10
 energy: -14.711370830144 gnorm: 0.000070576009 xtb: 6.7.1 (edcfbbe)
C            0.04609751345295        0.00745475242461        0.02742935324939
C            0.00083790296863        0.07302450915960        1.36147330429343
C            1.25462138394800        0.08585323308736        2.08134393940981
C            2.38477099424971        0.03172069215996        1.37009721704157
C            2.43003058714525       -0.03368175520571        0.03604365642075
C            1.17627899533666       -0.04649868917127       -0.68383450365646
H           -0.89235875885766        0.11776812798713        1.95850049569561
H            1.18847965002102        0.13918434941131        3.15325584665955
H            3.32324638400562       -0.07833908143596       -0.56098281153987
H            1.24244876782034       -0.10001858333520       -1.75577726757482
