      -----------------------------------------------------------      
     |                   =====================                   |     
     |                           x T B                           |     
     |                   =====================                   |     
     |                         S. Grimme                         |     
     |          Mulliken Center for Theoretical Chemistry        |     
     |                    University of Bonn                     |     
      -----------------------------------------------------------      

   * xtb version 6.7.1 (edcfbbe) compiled by 'runner@Mac-1756978095027.local' on 2025-09-04

   xtb is free software: you can redistribute it and/or modify it under
   the terms of the GNU Lesser General Public License as published by
   the Free Software Foundation, either version 3 of the License, or
   (at your option) any later version.
   
   xtb is distributed in the hope that it will be useful,
   but WITHOUT ANY WARRANTY; without even the implied warranty of
   MERCHANTABILITY or FITNESS FOR A PARTICULAR PURPOSE.  See the
   GNU Lesser General Public License for more details.
   
   Cite this work as:
   * C. Bannwarth, E. Caldeweyher, S. Ehlert, A. Hansen, P. Pracht,
     J. Seibert, S. Spicher, S. Grimme, WIREs Comput. Mol. Sci., 2020, 11,
     e01493. DOI: 10.1002/wcms.1493
   
   for GFN2-xTB:
   * C. Bannwarth, S. Ehlert and S. Grimme., J. Chem. Theory Comput., 2019,
     15, 1652-1671. DOI: 10.1021/acs.jctc.8b01176
   for GFN1-xTB:
   * S. Grimme, C. Bannwarth, P. Shushkov, J. Chem. Theory Comput., 2017,
     13, 1989-2009. DOI: 10.1021/acs.jctc.7b00118
   for GFN0-xTB:
   * P. Pracht, E. Caldeweyher, S. Ehlert, S. Grimme, ChemRxiv, 2019, preprint.
     DOI: 10.26434/chemrxiv.8326202.v1
   for GFN-FF:
   * S. Spicher and S. Grimme, Angew. Chem. Int. Ed., 2020, 59, 15665-15673.
     DOI: 10.1002/anie.202004239
   
   for ALPB and GBSA implicit solvation:
   * S. Ehlert, M. Stahn, S. Spicher, S. Grimme, J. Chem. Theory Comput.,
     2021, 17, 4250-4261. DOI: 10.1021/acs.jctc.1c00471
   
   for ddCOSMO and CPCM-X implicit solvation:
   * M. Stahn, S. Ehlert, S. Grimme, J. Phys. Chem. A,
     2023, XX, XXXX-XXXX. DOI: 10.1021/acs.jpca.3c04382
   
   for DFT-D4:
   * E. Caldeweyher, C. Bannwarth and S. Grimme, J. Chem. Phys., 2017,
     147, 034112. DOI: 10.1063/1.4993215
   * E. Caldeweyher, S. Ehlert, A. Hansen, H. Neugebauer, S. Spicher,
     C. Bannwarth and S. Grimme, J. Chem. Phys., 2019, 150, 154122.
     DOI: 10.1063/1.5090222
   * E. Caldeweyher, J.-M. Mewes, S. Ehlert and S. Grimme, Phys. Chem. Chem. Phys.
     2020, 22, 8499-8512. DOI: 10.1039/D0CP00502A
   
   for sTDA-xTB:
   * S. Grimme and C. Bannwarth, J. Chem. Phys., 2016, 145, 054103.
     DOI: 10.1063/1.4959605
   
   in the mass-spec context:
   * V. Asgeirsson, C. Bauer and S. Grimme, Chem. Sci., 2017, 8, 4879.
     DOI: 10.1039/c7sc00601b
   * J. Koopman and S. Grimme, ACS Omega 2019, 4, 12, 15120-15133.
     DOI: 10.1021/acsomega.9b02011
   
   for metadynamics refer to:
   * S. Grimme, J. Chem. Theory Comput., 2019, 155, 2847-2862
     DOI: 10.1021/acs.jctc.9b00143
   
   for SPH calculations refer to:
   * S. Spicher and S. Grimme, J. Chem. Theory Comput., 2021, 17, 1701-1714
     DOI: 10.1021/acs.jctc.0c01306
   
   for ONIOM refer to:
   * C. Plett, A. Katbashev, S. Ehlert, S. Grimme, M. Bursch,
     Phys. Chem. Chem. Phys., 2023, 25, 17860-17868. DOI: 10.1039/D3CP02178E
   
   for DIPRO refer to:
   * J. Kohn, N. Gildemeister, S. Grimme, D. Fazzi, A. Hansen,
     J. Chem. Phys., 2023, just accepted.
   
   for PTB refer to:
   * S. Grimme, M. Mueller, A. Hansen, J. Chem. Phys., 2023, 158, 124111.
     DOI: 10.1063/5.0137838
   
   with help from (in alphabetical order)
   P. Atkinson, C. Bannwarth, F. Bohle, G. Brandenburg, E. Caldeweyher
   M. Checinski, S. Dohm, S. Ehlert, S. Ehrlich, I. Gerasimov, C. Hölzer
   A. Katbashev, J. Kohn, J. Koopman, C. Lavigne, S. Lehtola, F. März, M. Müller,
   F. Musil, H. Neugebauer, J. Pisarek, C. Plett, P. Pracht, F. Pultar,
   J. Seibert, P. Shushkov, S. Spicher, M. Stahn, M. Steiner, T. Strunk,
   J. Stückrath, T. Rose, and J. Unsleber
   
 * started run on 2026/01/16 at 00:32:22.082     
   ID    Z sym.   atoms
    1    6 C      1-6
    2    1 H      7-10

           -------------------------------------------------
          |                Calculation Setup                |
           -------------------------------------------------

          program call               : xtb p_benzyne.xyz --gbsa acetone
          coordinate file            : p_benzyne.xyz
          omp threads                :                    10


           -------------------------------------------------
          |                 G F N 2 - x T B                 |
           -------------------------------------------------

        Reference                      10.1021/acs.jctc.8b01176
      * Hamiltonian:
        H0-scaling (s, p, d)           1.850000    2.230000    2.230000
        zeta-weighting                 0.500000
      * Dispersion:
        s8                             2.700000
        a1                             0.520000
        a2                             5.000000
        s9                             5.000000
      * Repulsion:
        kExp                           1.500000    1.000000
        rExp                           1.000000
      * Coulomb:
        alpha                          2.000000
        third order                    shell-resolved
        anisotropic                    true
        a3                             3.000000
        a5                             4.000000
        cn-shift                       1.200000
        cn-exp                         4.000000
        max-rad                        5.000000

      * Solvation model:               GBSA
        Solvent                        acetone
        Parameter file                 internal GFN2-xTB/GBSA
        Dielectric constant                2.0700E+01
        Reference state                gsolv [1 M gas/solution]
        Free energy shift                  4.0156E-03 Eh       2.5198E+00 kcal/mol
        Temperature                        2.9815E+02 K
        Density                            7.9000E-01 kg/L
        Solvent mass                       5.8080E+01 g/mol
        Interaction kernel             Still
        Born radius scaling (c1)           1.6568E+00
        Born radii integrator          GBOBC
        Born offset                        0.0000E+00 a0       0.0000E+00 AA
        H-bond correction              true
        Ion screening                  false
        Surface tension                    1.0000E-05 Eh       1.5569E+01 dyn/cm
        Grid points                               230 per atom

          ...................................................
          :                      SETUP                      :
          :.................................................:
          :  # basis functions                  28          :
          :  # atomic orbitals                  28          :
          :  # shells                           16          :
          :  # electrons                        28          :
          :  max. iterations                   250          :
          :  Hamiltonian                  GFN2-xTB          :
          :  restarted?                      false          :
          :  GBSA solvation                   true          :
          :  PC potential                    false          :
          :  electronic temp.          300.0000000     K    :
          :  accuracy                    1.0000000          :
          :  -> integral cutoff          0.2500000E+02      :
          :  -> integral neglect         0.1000000E-07      :
          :  -> SCF convergence          0.1000000E-05 Eh   :
          :  -> wf. convergence          0.1000000E-03 e    :
          :  Broyden damping             0.4000000          :
          :  net charge                          0          :
          :  unpaired electrons                  0          :
          ...................................................

 iter      E             dE          RMSdq      gap      omega  full diag
   1    -15.0252604 -0.150253E+02  0.577E+00    1.72       0.0  T
   2    -15.0276844 -0.242397E-02  0.343E+00    1.69       1.0  T
   3    -15.0262732  0.141115E-02  0.494E-01    1.75       1.0  T
   4    -15.0284159 -0.214267E-02  0.153E-01    1.70       1.0  T
   5    -15.0284403 -0.244407E-04  0.596E-02    1.70       1.0  T
   6    -15.0284018  0.385472E-04  0.767E-02    1.70       1.0  T
   7    -15.0284697 -0.679487E-04  0.645E-03    1.70       4.9  T
   8    -15.0284699 -0.157214E-06  0.880E-04    1.70      35.9  T
   9    -15.0284699  0.191047E-10  0.139E-04    1.70     228.2  T

   *** convergence criteria satisfied after 9 iterations ***

         #    Occupation            Energy/Eh            Energy/eV
      -------------------------------------------------------------
         1        2.0000           -0.6445459             -17.5390
       ...           ...                  ...                  ...
         8        2.0000           -0.4890562             -13.3079
         9        2.0000           -0.4764590             -12.9651
        10        2.0000           -0.4764339             -12.9644
        11        2.0000           -0.4306509             -11.7186
        12        2.0000           -0.4064302             -11.0595
        13        2.0000           -0.3994472             -10.8695
        14        2.0000           -0.3537169              -9.6251 (HOMO)
        15                         -0.2910852              -7.9208 (LUMO)
        16                         -0.2405713              -6.5463
        17                         -0.1915245              -5.2116
        18                         -0.0789551              -2.1485
        19                          0.1463213               3.9816
       ...                                ...                  ...
        28                          0.7269766              19.7820
      -------------------------------------------------------------
                  HL-Gap            0.0626317 Eh            1.7043 eV
             Fermi-level           -0.3224011 Eh           -8.7730 eV

 SCC (total)                   0 d,  0 h,  0 min,  0.146 sec
 SCC setup                      ...        0 min,  0.003 sec (  1.888%)
 Dispersion                     ...        0 min,  0.001 sec (  0.368%)
 classical contributions        ...        0 min,  0.002 sec (  1.273%)
 integral evaluation            ...        0 min,  0.002 sec (  1.475%)
 iterations                     ...        0 min,  0.132 sec ( 90.397%)
 molecular gradient             ...        0 min,  0.007 sec (  4.558%)
 printout                       ...        0 min,  0.000 sec (  0.034%)

         :::::::::::::::::::::::::::::::::::::::::::::::::::::
         ::                     SUMMARY                     ::
         :::::::::::::::::::::::::::::::::::::::::::::::::::::
         :: total energy             -14.717083735681 Eh    ::
         :: total w/o Gsasa/hb       -14.709335348184 Eh    ::
         :: gradient norm              0.000764088210 Eh/a0 ::
         :: HOMO-LUMO gap              1.704295197616 eV    ::
         ::.................................................::
         :: SCC energy               -15.028467541818 Eh    ::
         :: -> isotropic ES            0.002225647545 Eh    ::
         :: -> anisotropic ES          0.000430622458 Eh    ::
         :: -> anisotropic XC          0.012329071124 Eh    ::
         :: -> dispersion             -0.006724380410 Eh    ::
         :: -> Gsolv                  -0.008112020030 Eh    ::
         ::    -> Gelec               -0.000363632534 Eh    ::
         ::    -> Gsasa               -0.011179798354 Eh    ::
         ::    -> Ghb                 -0.000584140148 Eh    ::
         ::    -> Gshift               0.004015551005 Eh    ::
         :: repulsion energy           0.311383806137 Eh    ::
         :: add. restraining           0.000000000000 Eh    ::
         :: total charge              -0.000000000000 e     ::
         :::::::::::::::::::::::::::::::::::::::::::::::::::::

           -------------------------------------------------
          |                Property Printout                |
           -------------------------------------------------

    * Orbital Energies and Occupations

         #    Occupation            Energy/Eh            Energy/eV
      -------------------------------------------------------------
         1        2.0000           -0.6445459             -17.5390
         2        2.0000           -0.6120851             -16.6557
         3        2.0000           -0.6089107             -16.5693
         4        2.0000           -0.5708849             -15.5346
         5        2.0000           -0.5606364             -15.2557
         6        2.0000           -0.5112231             -13.9111
         7        2.0000           -0.4950081             -13.4699
         8        2.0000           -0.4890562             -13.3079
         9        2.0000           -0.4764590             -12.9651
        10        2.0000           -0.4764339             -12.9644
        11        2.0000           -0.4306509             -11.7186
        12        2.0000           -0.4064302             -11.0595
        13        2.0000           -0.3994472             -10.8695
        14        2.0000           -0.3537169              -9.6251 (HOMO)
        15                         -0.2910852              -7.9208 (LUMO)
        16                         -0.2405713              -6.5463
        17                         -0.1915245              -5.2116
        18                         -0.0789551              -2.1485
        19                          0.1463213               3.9816
        20                          0.1553096               4.2262
        21                          0.1865704               5.0768
        22                          0.2003145               5.4508
        23                          0.3267445               8.8912
        24                          0.3526747               9.5968
        25                          0.4573809              12.4460
       ...                                ...                  ...
        28                          0.7269766              19.7820
      -------------------------------------------------------------
                  HL-Gap            0.0626317 Eh            1.7043 eV
             Fermi-level           -0.3224011 Eh           -8.7730 eV

     #   Z          covCN         q      C6AA      α(0)
     1   6 C        2.002    -0.076    33.112     9.293
     2   6 C        2.933    -0.026    28.640     8.777
     3   6 C        2.933    -0.026    28.640     8.777
     4   6 C        2.002    -0.076    33.112     9.293
     5   6 C        2.933    -0.026    28.640     8.777
     6   6 C        2.933    -0.026    28.640     8.777
     7   1 H        0.926     0.064     2.157     2.297
     8   1 H        0.926     0.064     2.157     2.297
     9   1 H        0.926     0.064     2.157     2.297
    10   1 H        0.926     0.064     2.157     2.297

 Mol. C6AA /au·bohr⁶  :       1504.149526
 Mol. C8AA /au·bohr⁸  :      38972.009437
 Mol. α(0) /au        :         62.879572


Wiberg/Mayer (AO) data.
largest (>0.10) Wiberg bond orders for each atom

 ---------------------------------------------------------------------------
     #   Z sym  total        # sym  WBO       # sym  WBO       # sym  WBO
 ---------------------------------------------------------------------------
     1   6 C    3.877 --     2 C    1.608     6 C    1.608     4 C    0.551
     2   6 C    3.976 --     1 C    1.608     3 C    1.218     7 H    0.952
                             5 C    0.145
     3   6 C    3.976 --     4 C    1.608     2 C    1.218     8 H    0.952
                             6 C    0.145
     4   6 C    3.877 --     3 C    1.608     5 C    1.608     1 C    0.551
     5   6 C    3.976 --     4 C    1.608     6 C    1.218     9 H    0.952
                             2 C    0.145
     6   6 C    3.976 --     1 C    1.608     5 C    1.218    10 H    0.952
                             3 C    0.145
     7   1 H    0.996 --     2 C    0.952
     8   1 H    0.996 --     3 C    0.952
     9   1 H    0.996 --     5 C    0.952
    10   1 H    0.996 --     6 C    0.952
 ---------------------------------------------------------------------------

Topologies differ in total number of bonds
Writing topology from bond orders to xtbtopo.mol

molecular dipole:
                 x           y           z       tot (Debye)
 q only:        0.000       0.000       0.000
   full:        0.000      -0.000       0.000       0.000
molecular quadrupole (traceless):
                xx          xy          yy          xz          yz          zz
 q only:       -0.391      -0.138      -1.885      -2.290       0.243       2.277
  q+dip:       -0.668      -0.350      -5.152      -5.569       0.632       5.820
   full:       -1.290      -0.237      -2.552      -4.403       0.389       3.842


           -------------------------------------------------
          | TOTAL ENERGY              -14.717083735681 Eh   |
          | GRADIENT NORM               0.000764088210 Eh/α |
          | HOMO-LUMO GAP               1.704295197616 eV   |
           -------------------------------------------------

------------------------------------------------------------------------
 * finished run on 2026/01/16 at 00:32:22.261     
------------------------------------------------------------------------
 total:
 * wall-time:     0 d,  0 h,  0 min,  0.177 sec
 *  cpu-time:     0 d,  0 h,  0 min,  0.034 sec
 * ratio c/w:     0.193 speedup
 SCF:
 * wall-time:     0 d,  0 h,  0 min,  0.147 sec
 *  cpu-time:     0 d,  0 h,  0 min,  0.026 sec
 * ratio c/w:     0.179 speedup

