539
A_in_R_3c.xyz    Empirical formula: C174H209CuN57O86P12    Energy(Hartree): -22051.330316    
O        8.8513550000   -6.9555030000   -6.4871570000
C        9.7178170000   -7.7269480000   -5.6894810000
C        9.5903290000   -7.3061020000   -4.2193120000
O       10.1519440000   -6.0121370000   -4.0132470000
C        8.1293960000   -7.2107250000   -3.7489100000
O        8.0840050000   -7.5148800000   -2.3515810000
C        7.8162930000   -5.7392340000   -3.9597860000
C        9.1521660000   -5.1243860000   -3.5394670000
N        9.4035380000   -3.8034130000   -4.0565800000
C        9.6181370000   -2.7489810000   -3.1613750000
O        9.5263170000   -2.9657910000   -1.9456930000
N        9.9259110000   -1.5447720000   -3.6437720000
C        9.9947540000   -1.3191340000   -4.9583610000
N       10.2909660000   -0.0995760000   -5.3767230000
C        9.7645140000   -2.3774960000   -5.8908150000
C        9.4867450000   -3.6015320000   -5.3918460000
P        7.0079210000   -8.5425400000   -1.7974410000
O        7.7182040000   -9.9531800000   -1.9639570000
O        6.9549920000   -8.2213650000   -0.2526150000
C        8.1348670000   -8.2119670000    0.5503120000
C        7.8634680000   -7.4387500000    1.8506530000
O        7.8753170000   -6.0365630000    1.6561900000
C        6.4945830000   -7.7813920000    2.4688910000
O        6.6190820000   -7.9512260000    3.8784350000
C        5.6000600000   -6.6321340000    2.0161640000
C        6.5632030000   -5.5023600000    1.6256490000
N        6.2958570000   -4.9192510000    0.3307690000
C        5.7883720000   -5.4913530000   -0.8052280000
N        5.8177220000   -4.7064880000   -1.8390530000
C        6.3705170000   -3.5342720000   -1.3930900000
C        6.7017670000   -2.3298760000   -2.0732950000
O        6.6206470000   -2.1139120000   -3.2870790000
N        7.1583440000   -1.3552220000   -1.2095840000
C        7.3842250000   -1.5449670000    0.1259750000
N        7.8537920000   -0.5132410000    0.8217060000
N        7.1658850000   -2.6900030000    0.7502310000
C        6.6623340000   -3.6525160000   -0.0304520000
P        6.2345460000   -6.9783320000    5.0773940000
O        6.8988750000   -7.4296550000    6.3044130000
O        6.5723080000   -5.4890070000    4.6216030000
C        7.5943490000   -4.7774270000    5.3032060000
C        7.0309940000   -3.6088390000    6.1209170000
O        6.5766020000   -2.5523210000    5.2964810000
C        5.8643300000   -4.0076150000    7.0426430000
O        6.2364520000   -3.6561690000    8.3731990000
C        4.6662070000   -3.1913830000    6.5527890000
C        5.1743940000   -2.4164350000    5.3340130000
P        5.5762000000   -4.2971680000    9.6556930000
O        6.3754220000   -4.0073320000   10.8522590000
O        4.0571550000   -3.7665010000    9.7798140000
C        3.7759970000   -2.7286220000   10.7049670000
C        3.1927040000   -1.4816930000   10.0125710000
C        1.7115980000   -1.6821580000    9.6257950000
O        1.1727340000   -0.4128480000    9.3004800000
C        1.4472480000   -2.6992990000    8.5112180000
P       -0.1931770000   -0.0056650000   10.1270010000
O       -0.0844200000   -0.4488460000   11.5434510000
O       -0.0199670000    1.6160540000   10.1362660000
C        0.4310530000    2.3733770000    9.0328300000
C       -0.6700610000    2.8031750000    8.0488750000
O       -0.7939920000    1.8541710000    7.0033730000
C       -2.0717980000    2.9827030000    8.6774570000
O       -2.4903710000    4.3309950000    8.4678790000
C       -2.9078680000    1.9175200000    7.9851940000
C       -2.1656040000    1.7523960000    6.6590040000
P       -3.7838690000    4.9249410000    7.7589100000
O       -3.7003340000    6.3892100000    7.7930150000
O       -3.9037630000    4.2973410000    6.2950500000
C       -3.3912740000    5.0163020000    5.1810430000
C       -4.5138750000    5.5168200000    4.2631510000
O       -5.0906050000    4.4787140000    3.4859360000
C       -5.6712630000    6.1710480000    5.0278310000
O       -6.0881130000    7.3041080000    4.2684350000
C       -6.7164610000    5.0633690000    5.1177950000
C       -6.3662940000    4.1028800000    3.9734650000
N       -6.3703730000    2.7133380000    4.3653200000
C       -5.9765980000    2.1182220000    5.5344030000
N       -6.0332600000    0.8226850000    5.5148300000
C       -6.4751160000    0.5057960000    4.2554680000
C       -6.7235640000   -0.7169500000    3.5954960000
N       -6.5578740000   -1.9094470000    4.1457440000
N       -7.1379840000   -0.6316070000    2.3132090000
C       -7.3052550000    0.5506330000    1.7377140000
N       -7.1134810000    1.7432790000    2.2567940000
C       -6.6856070000    1.6820560000    3.5267590000
P       -7.4771940000    8.0446100000    4.4688080000
O       -7.4139020000    9.4323150000    3.9980530000
O       -8.5770410000    7.1690760000    3.6820640000
C       -8.6041640000    7.3852250000    2.2739330000
C       -9.6437150000    6.4813370000    1.6295340000
O       -9.2224020000    5.1280960000    1.6959150000
C      -11.0318800000    6.5316840000    2.2894510000
C      -11.5989820000    5.1427030000    1.9458460000
C      -10.3525610000    4.2765780000    1.6832400000
C      -10.8665700000   -5.7114090000   -4.2079120000
C      -10.2611890000   -4.3158560000   -4.0862910000
O       -9.9460760000   -4.0636380000   -2.7228720000
C       -8.9549170000   -4.1323830000   -4.8931830000
O       -9.0857530000   -2.9281110000   -5.6405430000
C       -7.8854900000   -4.0441240000   -3.8149590000
C       -8.6796100000   -3.4348340000   -2.6553780000
N       -8.1154410000   -3.6256010000   -1.3422530000
C       -8.0165270000   -2.5316480000   -0.5026510000
O       -8.2401970000   -1.3919900000   -0.8815370000
N       -7.6012810000   -2.8021490000    0.7632680000
C       -7.3907440000   -4.0408520000    1.3162910000
O       -7.1528820000   -4.1572230000    2.5135700000
C       -7.4697710000   -5.1513070000    0.3834210000
C       -7.1354880000   -6.5174860000    0.8874160000
C       -7.8410840000   -4.8858450000   -0.8835330000
P       -7.8338280000   -2.3331420000   -6.4585210000
O       -6.7026260000   -3.2521720000   -6.6088860000
O       -7.4231850000   -0.9958090000   -5.7065360000
C       -8.4114500000    0.0200990000   -5.5441540000
C       -7.8183020000    1.1822400000   -4.7478780000
O       -7.5184730000    0.7583680000   -3.4226840000
C       -6.5210770000    1.7567850000   -5.3489660000
O       -6.6524070000    3.1708230000   -5.3582010000
C       -5.4352540000    1.2439790000   -4.4158520000
C       -6.1793170000    1.0452140000   -3.0907890000
P       -5.3886500000    4.0785280000   -5.7602870000
O       -4.4522400000    3.3721190000   -6.6491610000
O       -4.9154930000    4.5385090000   -4.3165970000
C       -3.6074620000    4.9289520000   -3.9284140000
C       -2.7099880000    5.2007340000   -5.1339780000
O       -3.4069240000    5.9872210000   -6.0843910000
C       -1.4324870000    5.9664330000   -4.7632420000
O       -0.3861370000    5.4628630000   -5.5618710000
C       -1.7954850000    7.4152060000   -5.0805930000
C       -2.8558920000    7.2822330000   -6.1826320000
P        1.1632170000    5.8591290000   -5.2389720000
O        1.9682300000    4.9553610000   -6.0992550000
O        1.2017490000    5.3408580000   -3.6648730000
C        1.9635750000    6.0723480000   -2.7392010000
C        3.3946400000    5.5401490000   -2.6474440000
O        3.3564310000    4.1393460000   -2.4712230000
C        4.2743330000    5.8002380000   -3.8915770000
O        5.5189670000    6.3487910000   -3.4724260000
C        4.5324610000    4.4042270000   -4.4490060000
C        4.4758330000    3.5955090000   -3.1570860000
P        5.7826300000    7.9133560000   -3.4261680000
O        6.2725610000    8.5161550000   -4.6691080000
O        6.8593070000    8.0565970000   -2.2675220000
C        6.5627150000    7.6721780000   -0.9246960000
C        7.4579110000    6.5196260000   -0.4713070000
O        7.0776840000    5.3044690000   -1.0978300000
C        8.9507080000    6.7534060000   -0.8102890000
O        9.7272110000    6.5763240000    0.3694150000
C        9.2479740000    5.6674860000   -1.8346140000
C        8.2809400000    4.5849430000   -1.3572450000
N        8.0304170000    3.4834280000   -2.2388040000
C        7.9477620000    2.1833640000   -1.6865420000
O        8.1683680000    2.0232910000   -0.4850980000
N        7.6378000000    1.1645260000   -2.4848770000
C        7.4680250000    1.3253150000   -3.7980390000
N        7.1585070000    0.2719120000   -4.5295920000
C        7.5999510000    2.6206390000   -4.3896730000
C        7.8571790000    3.6618240000   -3.5712390000
P       10.8415710000    7.6868960000    0.6404470000
O       11.6910580000    8.0486370000   -0.4987750000
O       11.6829290000    7.1017920000    1.8375280000
C       11.1005910000    6.7196680000    3.0898220000
C       11.5276570000    5.3006030000    3.4590170000
O       10.8509680000    4.3417270000    2.6593740000
C       13.0378070000    5.0483630000    3.2947310000
O       13.6715950000    5.3454870000    4.5082680000
C       13.0852700000    3.5619290000    2.9048210000
C       11.7198470000    3.3035380000    2.2586280000
N       11.7665850000    3.2464410000    0.8130730000
C       11.9772400000    4.2598920000   -0.0835180000
N       11.7534160000    3.9170530000   -1.3165040000
C       11.3649670000    2.5974510000   -1.2616330000
C       10.9075210000    1.6915490000   -2.2599840000
O       10.6896650000    1.9266360000   -3.4556680000
N       10.6900920000    0.4228970000   -1.7546100000
C       10.8146500000    0.0749130000   -0.4368460000
N       10.6614400000   -1.2057870000   -0.1161810000
N       11.1339600000    0.9350730000    0.5153040000
C       11.3823150000    2.1695560000    0.0686570000
H        9.3356820000   -4.4751810000   -6.0082260000
H        9.8287900000   -2.2012640000   -6.9484810000
H       10.4531400000    0.6539470000   -4.7087190000
H       10.3759760000    0.0880600000   -6.3607410000
H        9.2153050000   -5.0433040000   -2.4433050000
H        6.9854060000   -5.3859810000   -3.3529030000
H        7.6267810000   -5.5566850000   -5.0157640000
H        7.4642250000   -7.8770570000   -4.2973120000
H       10.1446440000   -8.0189570000   -3.5980890000
H       10.7621600000   -7.5744250000   -5.9881330000
H        9.4726240000   -8.7931130000   -5.7574890000
H        8.8732900000   -7.2866180000   -7.3963160000
H        5.3994580000   -6.4867560000   -0.8427660000
H        7.3943160000   -0.4355490000   -1.6264480000
H        7.9838680000    0.4007180000    0.3942340000
H        7.9719790000   -0.6290480000    1.8128990000
H        6.5451450000   -4.6608890000    2.3285550000
H        4.9302690000   -6.3105520000    2.8053240000
H        5.0066540000   -6.9404100000    1.1605360000
H        6.1372920000   -8.7487150000    2.1102500000
H        8.6707160000   -7.6675370000    2.5542110000
H        8.9458070000   -7.7211670000    0.0106010000
H        8.4151350000   -9.2407240000    0.7852620000
H        4.9674280000   -1.3410760000    5.3882820000
H        4.3686550000   -2.4949980000    7.3352540000
H        3.8126280000   -3.8161950000    6.3095640000
H        5.6849780000   -5.0834790000    7.0068790000
H        7.8495520000   -3.2094940000    6.7316750000
H        8.2727600000   -4.3832890000    4.5433800000
H        8.1220470000   -5.4569560000    5.9770280000
H        0.4258310000   -3.0690890000    8.6225250000
H        2.1304700000   -3.5395470000    8.6420670000
H        1.2063450000   -2.0278350000   10.5386240000
H        3.1780210000   -0.6750760000   10.7596280000
H        4.7018320000   -2.4727230000   11.2268200000
H        3.0501070000   -3.1053110000   11.4284210000
H       -2.4375490000    2.5522760000    5.9549320000
H       -3.9470370000    2.1969390000    7.8600830000
H       -2.8251500000    0.9864910000    8.5493120000
H       -2.0280590000    2.8345510000    9.7592900000
H       -0.3709060000    3.7675850000    7.6100740000
H        1.1750740000    1.8025330000    8.4729780000
H        0.8852840000    3.2639250000    9.4752480000
H       -5.6494480000    2.6778080000    6.3845070000
H       -7.6469730000    0.5206830000    0.7096230000
H       -6.2876640000   -1.9531980000    5.1127300000
H       -6.7765190000   -2.7576580000    3.6200490000
H       -7.0686860000    4.1678940000    3.1290000000
H       -7.7179150000    5.4643040000    5.0069250000
H       -6.6391730000    4.5593810000    6.0772980000
H       -5.3554870000    6.5229810000    6.0119640000
H       -4.0795160000    6.2311150000    3.5559060000
H       -2.7611510000    4.3286460000    4.6087750000
H       -2.8178990000    5.8751070000    5.5371350000
H      -10.4110660000    3.7429960000    0.7249690000
H      -12.2006070000    5.2182430000    1.0415300000
H      -12.1981980000    4.7197910000    2.7485620000
H      -10.9047250000    6.6478030000    3.3727250000
H       -9.7523840000    6.7868720000    0.5780880000
H       -7.6205650000    7.1609810000    1.8539910000
H       -8.8481980000    8.4325200000    2.0819430000
H       -7.9481270000   -5.6703330000   -1.6169640000
H       -7.4807230000   -1.9659110000    1.3947340000
H       -7.2016140000   -7.2519190000    0.0926690000
H       -6.1314970000   -6.5091600000    1.3056670000
H       -7.8109100000   -6.7833220000    1.6980820000
H       -8.7861930000   -2.3457040000   -2.7798820000
H       -7.0501540000   -3.4300490000   -4.1306690000
H       -7.5462870000   -5.0485410000   -3.5698990000
H       -8.7723380000   -4.9578550000   -5.5819840000
H      -10.9958210000   -3.5788890000   -4.4352490000
H      -11.7462000000   -5.7808910000   -3.5650210000
H      -11.1477280000   -5.9161670000   -5.2417400000
H       -6.1245300000    1.9446460000   -2.4590900000
H       -4.6065030000    1.9386640000   -4.3114310000
H       -5.0525710000    0.2903760000   -4.7791780000
H       -6.3489210000    1.4206540000   -6.3736560000
H       -8.5653390000    1.9837880000   -4.6939390000
H       -9.2598080000   -0.3911550000   -4.9936260000
H       -8.7370270000    0.3682790000   -6.5249660000
H       -2.4168180000    7.4152430000   -7.1807930000
H       -0.9186810000    7.9652360000   -5.4128760000
H       -2.2235600000    7.8955120000   -4.2014130000
H       -1.1683480000    5.8297690000   -3.7110380000
H       -2.4626930000    4.2544190000   -5.6222380000
H       -3.1766290000    4.1326140000   -3.3172750000
H       -3.7285440000    5.8313120000   -3.3209980000
H        5.3749820000    3.7974920000   -2.5490510000
H        5.4869330000    4.3519990000   -4.9606830000
H        3.7031240000    4.1648560000   -5.1151140000
H        3.7821270000    6.4598290000   -4.6093100000
H        3.8919200000    6.0059500000   -1.7835750000
H        1.4655250000    5.9528740000   -1.7726500000
H        1.9901210000    7.1278990000   -3.0275310000
H        7.9213500000    4.6773850000   -3.9288770000
H        7.4917140000    2.7571280000   -5.4501630000
H        7.0135990000   -0.6442860000   -4.0870550000
H        7.0420090000    0.3785590000   -5.5227750000
H        8.6482100000    4.1476880000   -0.4132320000
H       10.2865960000    5.3434580000   -1.8323800000
H        8.9666020000    6.0365020000   -2.8197310000
H        9.1247950000    7.7509730000   -1.2150000000
H        7.3616070000    6.4059620000    0.6174310000
H        5.5168550000    7.3736100000   -0.8416610000
H        6.7609450000    8.5433440000   -0.2970980000
H       12.2840840000    5.2445770000    0.2086450000
H       10.3653620000   -0.3054460000   -2.4318690000
H       10.2592760000   -1.8689250000   -0.7806530000
H       10.6686860000   -1.4333780000    0.8628850000
H       11.2875550000    2.3392950000    2.5539810000
H       13.1832110000    2.9657810000    3.8115440000
H       13.8949260000    3.3248490000    2.2198500000
H       13.4227860000    5.6794940000    2.4836360000
H       14.6323600000    5.3055360000    4.3996550000
H       11.2638730000    5.1332140000    4.5136530000
H       10.0144260000    6.7684220000    3.0264620000
H       11.4771000000    7.4099580000    3.8470180000
O       -9.8946820000   -6.6651760000   -3.7818350000
O      -11.7515830000    7.5999370000    1.7439620000
H      -12.5759190000    7.7304200000    2.2351560000
N        4.3125620000    2.1704440000   -3.2374120000
C        4.4497870000    1.4775090000   -2.0134400000
O        4.8186910000    2.1084780000   -1.0224380000
N        4.1745800000    0.1766630000   -1.9759460000
C        3.8734180000   -0.5128160000   -3.0815930000
N        3.5740960000   -1.7899040000   -2.9678110000
C        3.8512080000    0.1495270000   -4.3523070000
C        4.0364240000    1.4878030000   -4.3760530000
N        4.5949670000   -2.8510430000    4.0814740000
C        4.0482270000   -4.0470830000    3.7017580000
N        3.7204480000   -4.0934080000    2.4452430000
C        4.0644700000   -2.8665640000    1.9341280000
C        3.9702180000   -2.3170100000    0.6246920000
O        3.5649510000   -2.8692040000   -0.3994940000
N        4.4063240000   -0.9999420000    0.5795360000
C        4.9074570000   -0.3030900000    1.6469490000
N        5.2649500000    0.9626380000    1.4591090000
N        5.0266970000   -0.8172530000    2.8558200000
C        4.6091500000   -2.0823030000    2.9563950000
H        3.9874630000    2.0697090000   -5.2821330000
H        3.6790350000   -0.4071430000   -5.2548480000
H        3.5775750000   -2.2351410000   -2.0451540000
H        3.4847530000   -2.3646120000   -3.7891840000
H        3.9002220000   -4.8567230000    4.3849560000
H        4.3525500000   -0.5296040000   -0.3479670000
H        5.2039950000    1.4060230000    0.5447460000
H        5.7068340000    1.4401720000    2.2244910000
N       -3.9028830000    8.2893810000   -6.0639980000
C       -3.8226990000    9.3996640000   -6.8703080000
O       -2.9327690000    9.5672330000   -7.6878420000
N       -4.8186940000   10.3178800000   -6.6859470000
C       -5.8787030000   10.2551220000   -5.7926370000
O       -6.6878510000   11.1677790000   -5.7459180000
C       -5.9059010000    9.0436870000   -4.9927490000
C       -7.0187000000    8.8581220000   -4.0132390000
C       -4.9260960000    8.1354090000   -5.1685540000
N        1.2239450000   -2.8224590000    6.1493690000
H       -4.9214390000    7.2031360000   -4.6284680000
H       -4.7683780000   11.1459230000   -7.2736520000
H       -7.1148540000    7.8125820000   -3.7395480000
H       -6.8298620000    9.4478890000   -3.1176830000
H       -7.9465920000    9.2180860000   -4.4500330000
P      -10.3881140000   -8.1383830000   -3.4533290000
O       -9.2941760000   -9.0033680000   -3.0021970000
O      -11.6033270000   -7.9985200000   -2.4098700000
C      -11.3424610000   -8.2489060000   -1.0330290000
C      -12.6196290000   -7.9416910000   -0.2422750000
H      -11.0185490000   -9.2848470000   -0.9229010000
C      -10.3274730000   -7.2807660000   -0.4454680000
C      -12.8424830000   -8.9210570000    0.9188450000
H      -13.4931770000   -7.9770530000   -0.9014590000
O      -12.4975540000   -6.5969370000    0.2125190000
C      -11.1860870000   -6.1008600000    0.0222460000
H       -9.8264330000   -7.7526730000    0.3964980000
H       -9.6010000000   -6.9867360000   -1.1940570000
H      -13.5889360000   -8.4785750000    1.5891560000
H      -13.2334320000   -9.8546450000    0.5011820000
H      -11.2070370000   -5.2864500000   -0.7165940000
O      -11.6301120000   -9.1512860000    1.6019340000
H      -11.7591770000   -9.8573780000    2.2510070000
N      -10.7200470000   -5.4925940000    1.2559270000
C      -10.5167290000   -4.1072800000    1.3095740000
O      -10.5964390000   -3.4486270000    0.2637470000
N      -10.2356870000   -3.5348410000    2.4798320000
C      -10.0783130000   -4.2579680000    3.5937120000
N       -9.7925500000   -3.6361140000    4.7210370000
C      -10.2679450000   -5.6752170000    3.5626480000
C      -10.6142330000   -6.2374800000    2.3860030000
N      -10.1656110000    3.2476240000    2.6732670000
C       -9.7867860000    3.3886380000    3.9815240000
N       -9.6217940000    2.2611030000    4.6022040000
C       -9.9021410000    1.2935290000    3.6639470000
C       -9.8571140000   -0.1283080000    3.7111780000
O       -9.5140030000   -0.8437760000    4.6575020000
N      -10.2638450000   -0.7072790000    2.5191310000
C      -10.6284070000   -0.0172670000    1.3956670000
N      -11.1064710000   -0.7131670000    0.3620720000
N      -10.6201010000    1.3013740000    1.3215980000
C      -10.2398410000    1.9064020000    2.4537390000
H      -10.8342690000   -7.2900230000    2.2789130000
H      -10.1612610000   -6.2591110000    4.4582030000
H       -9.6489370000   -2.6254100000    4.7338050000
H       -9.6265330000   -4.1678990000    5.5585330000
H       -9.6510770000    4.3510000000    4.4306320000
H      -10.2394010000   -1.7526800000    2.4789140000
H      -10.9189790000   -1.7163710000    0.3027790000
H      -11.1942740000   -0.2037430000   -0.5013700000
O        9.9668450000    8.8801790000    1.2223090000
O        4.4258730000    8.5160520000   -2.8613860000
O       -6.1209490000    5.3506340000   -6.3198680000
O       -8.5183560000   -1.7909540000   -7.7657010000
O      -11.1448170000   -8.5344040000   -4.7760020000
O       -7.8676020000    7.7971090000    5.9688060000
O       -5.0627040000    4.2780580000    8.4172280000
O       -1.3922230000   -0.4244390000    9.3400080000
O        3.9562450000   -1.1079150000    8.8938390000
H        4.7576100000   -0.6525500000    9.1907350000
O        1.3716420000   -2.2319160000    4.8945700000
C        0.7152290000   -3.0368680000    3.9152740000
C        0.8729820000   -2.4243810000    2.5631700000
H       -0.3575170000   -3.0894910000    4.1553230000
H        1.1285270000   -4.0511170000    3.9329450000
C        1.4331710000   -1.1609460000    2.4178040000
C        0.4213010000   -3.0787250000    1.4182720000
C        1.4482570000   -0.5547680000    1.1682730000
H        1.8192780000   -0.6578310000    3.2870170000
C        0.5052780000   -2.4283840000    0.2008950000
H        0.0036250000   -4.0686370000    1.4804910000
C        1.8648630000    0.8278450000    0.9430430000
N        0.9754830000   -1.1957170000    0.0923610000
H        0.1769220000   -2.8864740000   -0.7194900000
C        2.4239280000    1.6330120000    1.9249150000
N        1.6023030000    1.3085550000   -0.2829600000
Cu       0.8881660000   -0.0265170000   -1.5538960000
C        2.6684760000    2.9785240000    1.6727510000
H        2.6571810000    1.2188790000    2.8909520000
C        1.8229450000    2.5871760000   -0.5324200000
C        2.3321410000    3.4569030000    0.4104550000
C        3.2667610000    3.8692820000    2.6990800000
H        1.6011000000    2.9403240000   -1.5238880000
H        2.4877380000    4.4884350000    0.1444690000
H        3.2626910000    3.3981570000    3.6759190000
H        4.2926880000    4.0967980000    2.4161480000
H        2.7217830000    4.8079300000    2.7458120000
C        1.5821840000   -2.1285720000    7.1408360000
H        1.9716250000   -1.1164600000    7.0495740000
O        4.6547690000   -6.9222490000    5.1287360000
O        5.6763970000   -8.4898990000   -2.4208780000
H        7.0973020000  -10.6670390000   -2.1584360000
H        4.2211880000   -7.6872930000    5.5274490000
H       -8.4294680000    8.4769800000    6.3635400000
H      -11.4197120000   -9.4557250000   -4.8617550000
H       -8.6378810000   -2.4219770000   -8.4875230000
H       10.3509540000    9.7603420000    1.1234620000
H       -5.3921730000    4.7297180000    9.2052200000
H       -6.4224190000    5.2771850000   -7.2333490000
H        4.3140460000    9.4526130000   -3.0694580000
O        1.3873330000    7.3340680000   -5.2450980000
N       -5.6435760000   -0.0381550000   -2.2993590000
C       -5.0305000000    0.2250570000   -1.0682830000
O       -4.9103420000    1.3989900000   -0.6948670000
N       -4.5682050000   -0.7952850000   -0.3480600000
C       -4.6611230000   -2.0583530000   -0.7785840000
N       -4.1763130000   -3.0218960000   -0.0210180000
C       -5.2786780000   -2.3499390000   -2.0353350000
C       -5.7504390000   -1.3094040000   -2.7516640000
N       -2.3925910000    0.5392790000    5.9459990000
C       -1.9916490000   -0.7375850000    6.2500150000
N       -2.2042800000   -1.5816060000    5.2890600000
C       -2.7831310000   -0.8449190000    4.2780860000
C       -3.1660880000   -1.1888060000    2.9536570000
O       -3.0670010000   -2.2837530000    2.3973850000
N       -3.6643110000   -0.0947630000    2.2559860000
C       -3.7266180000    1.1851110000    2.7366690000
N       -4.0901530000    2.1535890000    1.8921430000
N       -3.3661800000    1.5146610000    3.9613410000
C       -2.9022120000    0.4853350000    4.6849080000
H       -6.2375490000   -1.4084220000   -3.7103850000
H       -5.3317060000   -3.3621540000   -2.3921440000
H       -3.7373910000   -2.7955310000    0.8782250000
H       -4.1650590000   -3.9668240000   -0.3663230000
H       -1.5567790000   -0.9730940000    7.2015320000
H       -3.9784590000   -0.2829150000    1.2833770000
H       -4.4815330000    1.9116740000    0.9839020000
H       -4.3118190000    3.0539920000    2.2940910000
O        5.3599990000   -5.7977530000    9.2423650000
H        5.1498290000   -6.4095710000    9.9586090000
O       -1.4037890000    1.4072600000   -0.8616580000
O       -3.1547540000   -1.5244750000   -5.2357150000
O       -2.6264940000    2.2389110000   -2.5651790000
O       -2.6923100000   -2.5746390000   -3.2908560000
N       -1.9076130000    0.0403030000   -2.5239410000
N       -2.7369180000   -0.2875260000   -3.4633280000
C       -2.9946170000   -2.8344340000   -7.2738130000
C       -1.5016230000    2.6772840000   -0.2102010000
C       -3.4854690000   -2.7821060000   -5.8539110000
C       -2.8451430000   -1.6768940000   -8.0262150000
C       -2.7389310000   -4.0679260000   -7.8630260000
C       -2.4361170000   -1.7522450000   -9.3480590000
C       -2.3400600000   -4.1412910000   -9.1864670000
C       -2.1859500000   -2.9836350000   -9.9316100000
C       -2.0719840000    1.3029340000   -2.0135610000
C       -2.7905460000   -1.5554190000   -3.9510010000
H       -2.5562460000    2.9860910000   -0.2219620000
H       -0.9321480000    3.4145900000   -0.7907140000
H       -4.5790480000   -2.8784300000   -5.8563880000
H       -3.0630250000   -3.5868390000   -5.2456690000
H       -3.0668840000   -0.7202250000   -7.5739440000
H       -2.8759500000   -4.9694010000   -7.2876480000
H       -2.3265480000   -0.8458580000   -9.9239750000
H       -2.1530050000   -5.1030720000   -9.6381990000
H       -1.8824210000   -3.0388700000  -10.9656510000
C       -1.0024690000    2.5999840000    1.2046410000
C       -0.6915650000    3.7761760000    1.8768700000
C       -0.8755870000    1.3876100000    1.8646620000
C       -0.2638530000    3.7376480000    3.1914340000
H       -0.7984000000    4.7213310000    1.3676660000
C       -0.4311860000    1.3511820000    3.1758280000
H       -1.1339890000    0.4762110000    1.3472900000
C       -0.1254320000    2.5228940000    3.8432910000
H       -0.0362120000    4.6564980000    3.7084180000
H       -0.3339960000    0.4030370000    3.6824610000
H        0.2023930000    2.4798850000    4.8704600000
O        0.5821350000   -1.6167280000   -2.7180960000
N        0.4698760000    0.6567700000   -5.5281040000
N        0.7759850000    0.9042220000   -3.3543140000
C        0.0515240000   -3.7187410000   -4.4673750000
C        0.1252910000   -2.4302060000   -4.8698900000
C        0.4174020000   -1.3794260000   -3.9376200000
C       -0.2855140000   -4.8405660000   -5.3467550000
C        0.6462380000    1.9705340000   -5.2818960000
C        0.5447310000    0.0142030000   -4.3383240000
C        0.8344770000    2.1153510000   -3.9263890000
H       -0.0862510000   -2.1731970000   -5.8931810000
H        0.5483210000   -5.5426550000   -5.3759450000
H       -0.5353540000   -4.5167000000   -6.3529100000
H       -1.1196320000   -5.3905320000   -4.9123750000
H        0.6479650000    2.7351770000   -6.0332470000
H        1.0088230000    3.0335850000   -3.4051780000
C        0.2568100000    0.1107080000   -6.8419960000
H        0.3154200000    0.9249200000   -7.5606030000
H        1.0224140000   -0.6272450000   -7.0743840000
H       -0.7337970000   -0.3405160000   -6.9132790000
H        0.2729990000   -3.9437610000   -3.4327530000
N        4.1811300000   -6.7241630000   -4.1899750000
C        3.9631590000   -7.1814710000   -5.4649620000
C        3.3118430000   -6.1460890000   -6.1884740000
C        3.1698260000   -5.0623000000   -5.2872810000
C        4.2634910000   -8.3971720000   -6.0504080000
C        2.9495210000   -6.3565510000   -7.5228660000
C        3.7190310000   -5.4679530000   -4.0802990000
C        3.8993670000   -8.5783590000   -7.3818250000
C        3.2523010000   -7.5762970000   -8.1011810000
H        4.6419250000   -7.2518450000   -3.4579730000
H        2.7236600000   -4.1124170000   -5.5008000000
H        4.7565080000   -9.1764960000   -5.4911620000
H        2.4459140000   -5.5861230000   -8.0847690000
H        3.8137430000   -4.9222310000   -3.1612930000
H        4.1191300000   -9.5170980000   -7.8667020000
H        2.9817880000   -7.7608440000   -9.1298700000
