40
r_1a_opt.xyz    Empirical formula: C20H12F3NO3S    Energy(Hartree): -1744.601852    
C        1.0170320000   -0.5904550000   -0.5623620000
C        0.7023960000    0.8250080000   -0.9340020000
C        2.3407730000   -1.0427750000   -0.2669840000
C        0.7434020000    1.8656650000    0.0500670000
C        2.5545150000   -2.4177760000    0.0571830000
C        0.3700360000    3.1745910000   -0.3685190000
C       -0.0077140000   -1.5106700000   -0.5326680000
C        3.4603410000   -0.1643670000   -0.2953240000
C        1.1173810000    1.6475000000    1.4051960000
C        1.4493080000   -3.3128220000    0.0793510000
C       -0.0253280000    3.3532010000   -1.7184470000
C        0.1815080000   -2.8697110000   -0.2069660000
C       -0.0261580000    2.2714620000   -2.5674330000
C        3.8736080000   -2.8627710000    0.3482320000
C        0.4011050000    4.2392650000    0.5744920000
C        4.7245850000   -0.6264710000   -0.0089150000
C        1.1403430000    2.6961880000    2.2941930000
C        4.9356270000   -1.9894130000    0.3187580000
C        0.7832220000    4.0042780000    1.8740080000
H        3.3017410000    0.8853110000   -0.5520260000
H        1.3659390000    0.6357440000    1.7318130000
H        1.6250390000   -4.3609380000    0.3330440000
H       -0.3292380000    4.3416240000   -2.0703280000
H       -0.6876620000   -3.5287330000   -0.1871740000
H       -0.3296090000    2.3812230000   -3.6127350000
H        4.0249900000   -3.9167410000    0.5953430000
H        0.1142180000    5.2411670000    0.2458320000
H        5.5731520000    0.0602920000   -0.0370790000
H        1.4242390000    2.5227920000    3.3340960000
H        5.9439430000   -2.3428020000    0.5442690000
H        0.8050520000    4.8250780000    2.5943470000
N        0.3361250000    1.0264830000   -2.1812040000
O       -2.5541700000    1.0192260000   -0.5157660000
S       -2.1204010000   -0.1646110000    0.1682560000
O       -1.3054770000   -1.1061570000   -0.8525770000
O       -1.4629080000   -0.1513980000    1.4490600000
C       -3.5742250000   -1.2856190000    0.3202710000
F       -4.1654210000   -1.4156490000   -0.8476950000
F       -3.1612140000   -2.4657060000    0.7478040000
F       -4.4120730000   -0.7647400000    1.1943810000
