40
s_1a_opt.xyz    Empirical formula: C20H12F3NO3S    Energy(Hartree): -1744.601852    
C        1.0169830000    0.5903840000   -0.5627660000
C        0.7023610000   -0.8251250000   -0.9342480000
C        2.3407010000    1.0425710000   -0.2671800000
C        0.7431830000   -1.8655680000    0.0500120000
C        2.5545170000    2.4175210000    0.0571330000
C        0.3696220000   -3.1745340000   -0.3682760000
C       -0.0077590000    1.5106370000   -0.5331480000
C        3.4601550000    0.1640080000   -0.2953850000
C        1.1171370000   -1.6471260000    1.4051210000
C        1.4493490000    3.3125910000    0.0792200000
C       -0.0256560000   -3.3533620000   -1.7181890000
C        0.1815320000    2.8696140000   -0.2073130000
C       -0.0261360000   -2.2718260000   -2.5674460000
C        3.8736140000    2.8623550000    0.3484250000
C        0.4004780000   -4.2389740000    0.5750130000
C        4.7243960000    0.6259560000   -0.0087340000
C        1.1398950000   -2.6955910000    2.2943720000
C        4.9355240000    1.9888650000    0.3190580000
C        0.7825870000   -4.0037250000    1.8744770000
H        3.3014330000   -0.8856370000   -0.5521580000
H        1.3657610000   -0.6353140000    1.7315010000
H        1.6250920000    4.3606790000    0.3330300000
H       -0.3297720000   -4.3417930000   -2.0698690000
H       -0.6874580000    3.5288680000   -0.1875470000
H       -0.3294410000   -2.3818390000   -3.6127660000
H        4.0250930000    3.9162860000    0.5956420000
H        0.1134400000   -5.2409210000    0.2466220000
H        5.5729030000   -0.0608850000   -0.0367810000
H        1.4237580000   -2.5219960000    3.3342500000
H        5.9438420000    2.3421210000    0.5447690000
H        0.8042490000   -4.8243700000    2.5950000000
N        0.3362600000   -1.0268050000   -2.1814920000
O       -1.4625720000    0.1517090000    1.4487700000
S       -2.1201850000    0.1646700000    0.1680190000
O       -1.3054970000    1.1059720000   -0.8530960000
O       -2.5542220000   -1.0191910000   -0.5157730000
C       -3.5738120000    1.2857920000    0.3204520000
F       -3.1603250000    2.4658170000    0.7479590000
F       -4.1652320000    1.4161240000   -0.8473560000
F       -4.4114940000    0.7650610000    1.1946910000
