529
A_in_R_c2.xyz    Empirical formula: C170H204CuN56O86P12    Energy(Hartree): -21841.561926    
O        8.6340880000   -6.4222800000   -7.9802940000
C        9.2868870000   -7.3733050000   -7.1721560000
C        9.0003830000   -7.0909080000   -5.6928560000
O        9.6143240000   -5.8706340000   -5.2885890000
C        7.5024810000   -6.9284250000   -5.3939950000
O        7.2185630000   -7.2863260000   -4.0428310000
C        7.3080540000   -5.4243130000   -5.4912700000
C        8.6158520000   -4.9610390000   -4.8484960000
N        9.0088120000   -3.6157800000   -5.1671730000
C        9.2717780000   -2.7226640000   -4.1198590000
O        9.1871280000   -3.1213360000   -2.9508400000
N        9.6148260000   -1.4700860000   -4.4135200000
C        9.7165610000   -1.0512570000   -5.6779880000
N       10.0027880000    0.2205910000   -5.8961090000
C        9.5242350000   -1.9641680000   -6.7615910000
C        9.1780450000   -3.2331570000   -6.4554040000
P        6.9876940000   -8.7878940000   -3.6060530000
O        7.9811750000   -9.7602810000   -4.0981520000
O        6.9013510000   -8.6367240000   -2.0213300000
C        8.1285980000   -8.5429440000   -1.3041230000
C        7.8944160000   -7.9281510000    0.0856300000
O        7.9119470000   -6.5130580000    0.0560720000
C        6.5463450000   -8.3435250000    0.7024740000
O        6.7160460000   -8.7201850000    2.0640110000
C        5.6501930000   -7.1351610000    0.4511130000
C        6.6106700000   -5.9659840000    0.1958340000
N        6.2762960000   -5.1652930000   -0.9554700000
C        5.7276470000   -5.5245070000   -2.1597280000
N        5.6779360000   -4.5547360000   -3.0183310000
C        6.2246970000   -3.4711580000   -2.3746220000
C        6.5182660000   -2.1559600000   -2.8233860000
O        6.3737130000   -1.7002350000   -3.9650140000
N        7.0274030000   -1.3588670000   -1.8156970000
C        7.3324310000   -1.8023420000   -0.5570890000
N        7.8549920000   -0.9203150000    0.2934950000
N        7.1429660000   -3.0448690000   -0.1541300000
C        6.5961640000   -3.8427150000   -1.0811440000
P        6.4903270000   -7.8932710000    3.4056160000
O        7.2315580000   -8.5265450000    4.5008730000
O        6.8620690000   -6.3755720000    3.1079780000
C        7.9655800000   -5.7867100000    3.7823090000
C        7.5109860000   -4.7390810000    4.8052740000
O        7.0264780000   -3.5632640000    4.1861410000
C        6.4076360000   -5.2501810000    5.7485520000
O        6.8716730000   -5.0768890000    7.0840400000
C        5.1890780000   -4.3733260000    5.4548290000
C        5.6358400000   -3.4099940000    4.3510380000
P        6.3132440000   -5.9020190000    8.3088760000
O        7.2092480000   -5.7830580000    9.4654270000
O        4.8117710000   -5.4107380000    8.6358250000
C        4.6179760000   -4.5231430000    9.7256210000
C        4.0918870000   -3.1513900000    9.2623750000
C        2.5851650000   -3.1978840000    8.9279600000
O        2.1201810000   -1.8638080000    8.8599450000
C        2.2188120000   -3.9706120000    7.6569500000
P        0.7559780000   -1.5653520000    9.7388660000
O        0.8889030000   -2.1586810000   11.0975230000
O        0.9335240000    0.0446850000    9.9052880000
C        1.3379870000    0.8908420000    8.8446240000
C        0.1837710000    1.4570410000    8.0049840000
O       -0.0980170000    0.6139480000    6.8971310000
C       -1.1380240000    1.6525860000    8.7852560000
O       -1.4986940000    3.0288200000    8.6931540000
C       -2.0908900000    0.6848460000    8.1023830000
C       -1.4991430000    0.6289100000    6.6937240000
P       -2.9115150000    3.6856140000    8.3682470000
O       -2.8033620000    5.1378010000    8.5486210000
O       -3.3458200000    3.2278000000    6.8999130000
C       -2.8662890000    3.9693830000    5.7800930000
C       -4.0002060000    4.7060830000    5.0549360000
O       -4.7557940000    3.8502240000    4.2119840000
C       -5.0116220000    5.3580320000    6.0057170000
O       -5.3788370000    6.6077600000    5.4238050000
C       -6.1417550000    4.3335190000    6.0769150000
C       -5.9944820000    3.5000950000    4.7954710000
N       -6.0648460000    2.0721100000    5.0210170000
C       -5.6049590000    1.3030520000    6.0565260000
N       -5.7646110000    0.0268460000    5.8817300000
C       -6.3536860000   -0.0920310000    4.6474640000
C       -6.7405150000   -1.1960870000    3.8571560000
N       -6.6375640000   -2.4605780000    4.2400780000
N       -7.2436410000   -0.9152240000    2.6368690000
C       -7.3713500000    0.3435550000    2.2362590000
N       -7.0620640000    1.4389800000    2.8917270000
C       -6.5389860000    1.1825790000    4.0989250000
P       -6.7133110000    7.4061600000    5.7305350000
O       -6.5720120000    8.8215660000    5.3722390000
O       -7.8821010000    6.6655550000    4.9091620000
C       -7.8633780000    6.9225630000    3.5074310000
C       -8.9858480000    6.1483730000    2.8341850000
O       -8.7250760000    4.7582510000    2.9174240000
C      -10.3724650000    6.3669980000    3.4667410000
C      -11.0792700000    5.0218490000    3.2090300000
C       -9.9454450000    4.0545630000    2.8084440000
C      -11.0186020000   -4.8116240000   -4.4972540000
C      -10.3628260000   -3.4564850000   -4.2434200000
O      -10.0092910000   -3.3566150000   -2.8701500000
C       -9.0689900000   -3.2384800000   -5.0586020000
O       -9.1484850000   -1.9407950000   -5.6356400000
C       -7.9725080000   -3.3627510000   -4.0119180000
C       -8.6900370000   -2.8525970000   -2.7589230000
N       -8.1373610000   -3.2612840000   -1.4899400000
C       -8.0329730000   -2.3144300000   -0.4845910000
O       -8.2322910000   -1.1266140000   -0.6851510000
N       -7.6595060000   -2.7859520000    0.7339660000
C       -7.4564380000   -4.0976820000    1.0820800000
O       -7.2454120000   -4.4098390000    2.2485280000
C       -7.5219820000   -5.0436640000   -0.0186460000
C       -7.1903790000   -6.4730030000    0.2640190000
C       -7.8780780000   -4.5801120000   -1.2313640000
P       -7.9159650000   -1.3320160000   -6.4763210000
O       -6.8350840000   -2.2811970000   -6.7547290000
O       -7.4378750000   -0.0567450000   -5.6677950000
C       -8.4138030000    0.9552710000   -5.3918120000
C       -7.8733100000    1.8805490000   -4.3024070000
O       -7.6083030000    1.1181940000   -3.1299450000
C       -6.5616410000    2.5945290000   -4.6803130000
O       -6.6485280000    3.9320240000   -4.2267290000
C       -5.5083580000    1.8044580000   -3.9241110000
C       -6.2871640000    1.3501920000   -2.6865080000
P       -5.4095280000    4.9241570000   -4.4907590000
O       -4.6765090000    4.5970500000   -5.7229880000
O       -4.6497500000    4.7740450000   -3.1050980000
C       -3.4470470000    5.4101320000   -2.6882990000
C       -2.6309610000    5.9560720000   -3.8611500000
O       -3.4008500000    6.9243460000   -4.5556470000
C       -1.3438010000    6.6555770000   -3.3895330000
O       -0.3362870000    6.4480830000   -4.3732720000
C       -1.7844000000    8.1104770000   -3.2944520000
C       -2.8257340000    8.2104260000   -4.4163710000
P        1.1852930000    6.8427670000   -4.1263530000
O        2.0446890000    6.2532120000   -5.1588250000
O        1.3679330000    6.3571090000   -2.6237960000
C        2.3513440000    6.8393230000   -1.7193470000
C        3.6817220000    6.0888650000   -1.8219100000
O        3.4492530000    4.6967340000   -1.9388780000
C        4.5982960000    6.4760420000   -3.0131340000
O        5.8912000000    6.8149970000   -2.5179530000
C        4.7114530000    5.1799260000   -3.8094820000
C        4.5464080000    4.1744080000   -2.6725290000
P        6.2747740000    8.3117550000   -2.1505140000
O        6.8686980000    9.1001030000   -3.2347450000
O        7.2904370000    8.1588780000   -0.9416100000
C        6.9405830000    7.4861440000    0.2665450000
C        7.7699690000    6.2135490000    0.4463250000
O        7.2883690000    5.1717820000   -0.3924980000
C        9.2586400000    6.4286030000    0.0819240000
O       10.0763460000    5.9630920000    1.1532530000
C        9.4334120000    5.5712880000   -1.1641540000
C        8.4323860000    4.4594130000   -0.8516960000
N        8.0783330000    3.5590900000   -1.9116650000
C        7.9089760000    2.1911400000   -1.6016110000
O        8.1107090000    1.8063340000   -0.4478960000
N        7.5299010000    1.3525220000   -2.5650150000
C        7.3877690000    1.7554310000   -3.8284320000
N        7.0198030000    0.8747120000   -4.7401820000
C        7.5966680000    3.1259330000   -4.1778480000
C        7.9281270000    3.9831670000   -3.1902020000
P       11.3623770000    6.8575860000    1.4603330000
O       12.1138910000    7.3331960000    0.2940720000
O       12.2519300000    5.9606540000    2.4043260000
C       11.7735790000    5.4061230000    3.6344780000
C       12.0807640000    3.9114350000    3.6880400000
O       11.2259760000    3.1881600000    2.8134430000
C       13.5287740000    3.5641480000    3.2961920000
O       14.3195640000    3.5830390000    4.4524130000
C       13.3718030000    2.1746470000    2.6578160000
C       11.9294670000    2.1691950000    2.1388390000
N       11.8353570000    2.3825850000    0.7100350000
C       12.0168680000    3.5344400000   -0.0068820000
N       11.6896020000    3.4229300000   -1.2593460000
C       11.2619740000    2.1232540000   -1.4079330000
C       10.7238740000    1.4119160000   -2.5166430000
O       10.4510710000    1.8502910000   -3.6406530000
N       10.4954670000    0.0798620000   -2.2194880000
C       10.7039250000   -0.4994750000   -0.9973990000
N       10.5558450000   -1.8198180000   -0.9013660000
N       11.1078100000    0.1745180000    0.0635420000
C       11.3618880000    1.4649760000   -0.1797450000
H        9.0327040000   -4.0060570000   -7.1953980000
H        9.6584860000   -1.6481410000   -7.7797760000
H       10.1641590000    0.8504350000   -5.1081750000
H       10.1477520000    0.5470590000   -6.8364690000
H        8.5350180000   -5.0068210000   -3.7514750000
H        6.4438520000   -5.0785510000   -4.9273570000
H        7.2540120000   -5.1261540000   -6.5356400000
H        6.8785880000   -7.5098750000   -6.0720620000
H        9.4166040000   -7.9089470000   -5.0940870000
H       10.3728250000   -7.3210100000   -7.3141080000
H        8.9371520000   -8.3886130000   -7.3909220000
H        8.7716650000   -6.6520320000   -8.9107630000
H        5.3845010000   -6.5142070000   -2.3778600000
H        7.2569660000   -0.3749820000   -2.0651800000
H        7.9606950000    0.0622750000    0.0454390000
H        8.0254220000   -1.2252710000    1.2356520000
H        6.6502540000   -5.2545470000    1.0298500000
H        5.0053430000   -6.9286650000    1.2978060000
H        5.0342230000   -7.3122240000   -0.4263560000
H        6.1648060000   -9.2454990000    0.2197490000
H        8.7222540000   -8.2397380000    0.7315500000
H        8.8333180000   -7.9104780000   -1.8492090000
H        8.5491880000   -9.5462760000   -1.2073350000
H        5.4658380000   -2.3567290000    4.6050950000
H        4.9356600000   -3.8128140000    6.3529320000
H        4.3253110000   -4.9584840000    5.1548900000
H        6.2118460000   -6.3110500000    5.5855930000
H        8.3878680000   -4.4504470000    5.3966490000
H        8.5800230000   -5.3010700000    3.0210840000
H        8.5314950000   -6.5653330000    4.2994090000
H        1.1834530000   -4.3063130000    7.7418620000
H        2.8591170000   -4.8512270000    7.5876240000
H        2.0915820000   -3.6765150000    9.7857190000
H        4.1675550000   -2.4666190000   10.1189020000
H        5.5732670000   -4.4046310000   10.2437640000
H        3.8931030000   -4.9766630000   10.4041770000
H       -1.7839860000    1.5232470000    6.1198220000
H       -3.1261610000    1.0046660000    8.1195730000
H       -1.9856690000   -0.2991810000    8.5633130000
H       -1.0019880000    1.4190050000    9.8437030000
H        0.4975590000    2.4380980000    7.6182940000
H        2.0096990000    0.3487660000    8.1767810000
H        1.8647240000    1.7142590000    9.3335670000
H       -5.1468940000    1.7170890000    6.9301580000
H       -7.7797110000    0.4718990000    1.2416610000
H       -6.2355930000   -2.6605190000    5.1386600000
H       -6.8704490000   -3.2114950000    3.5916730000
H       -6.7758120000    3.7109940000    4.0508380000
H       -7.1106460000    4.8183910000    6.1286160000
H       -6.0112700000    3.7064290000    6.9548440000
H       -4.5741920000    5.5619180000    6.9849860000
H       -3.5537830000    5.4631100000    4.4029070000
H       -2.4321240000    3.2516970000    5.0772630000
H       -2.1260560000    4.6952240000    6.1226100000
H      -10.0737010000    3.6696730000    1.7869970000
H      -11.7891370000    5.1308500000    2.3912550000
H      -11.5974130000    4.6518940000    4.0911770000
H      -10.2475620000    6.5431080000    4.5416010000
H       -9.0398660000    6.4601550000    1.7806150000
H       -6.9041710000    6.6016560000    3.0942820000
H       -7.9930530000    7.9945530000    3.3417760000
H       -7.9781510000   -5.2413810000   -2.0783600000
H       -7.5522520000   -2.0612240000    1.5019580000
H       -7.2904100000   -7.0791300000   -0.6297080000
H       -6.1715550000   -6.5346500000    0.6407800000
H       -7.8404760000   -6.8514410000    1.0499950000
H       -8.7043200000   -1.7507480000   -2.7393510000
H       -7.0927420000   -2.7863950000   -4.2754120000
H       -7.7028590000   -4.4124410000   -3.9121620000
H       -8.9477720000   -3.9736860000   -5.8549820000
H      -11.0781820000   -2.6623240000   -4.4916910000
H      -11.8618950000   -4.9376780000   -3.8153250000
H      -11.3621950000   -4.8813900000   -5.5301520000
H       -6.2864990000    2.1266980000   -1.9053980000
H       -4.6469280000    2.4185860000   -3.6812970000
H       -5.1895420000    0.9469490000   -4.5177170000
H       -6.3691340000    2.5955140000   -5.7551190000
H       -8.6361510000    2.6323020000   -4.0650090000
H       -9.3264300000    0.4753540000   -5.0344970000
H       -8.6160490000    1.5138370000   -6.3061050000
H       -2.3692380000    8.5084570000   -5.3705330000
H       -0.9655770000    8.8078210000   -3.4361910000
H       -2.2608980000    8.2896400000   -2.3314390000
H       -0.9892650000    6.2571280000   -2.4399170000
H       -2.4174990000    5.1408540000   -4.5591330000
H       -2.8745110000    4.6494440000   -2.1531240000
H       -3.7255870000    6.2174840000   -2.0041300000
H        5.4355750000    4.1946310000   -2.0188620000
H        5.6615490000    5.1061130000   -4.3253190000
H        3.8703360000    5.1340040000   -4.5009720000
H        4.1992780000    7.3005320000   -3.6035610000
H        4.2555490000    6.2799010000   -0.9037790000
H        1.9169530000    6.6701590000   -0.7327380000
H        2.5286030000    7.9045020000   -1.8722620000
H        8.0758170000    5.0369660000   -3.3632280000
H        7.5092620000    3.4497780000   -5.1986230000
H        6.8473030000   -0.1011460000   -4.4819440000
H        6.9503970000    1.1576270000   -5.7025110000
H        8.8209080000    3.8327180000   -0.0312740000
H       10.4476800000    5.2078720000   -1.3032750000
H        9.1154140000    6.1551560000   -2.0268540000
H        9.4837070000    7.4774230000   -0.1135470000
H        7.7089980000    5.8871500000    1.4930030000
H        5.8809410000    7.2292900000    0.2646320000
H        7.1665990000    8.1741610000    1.0832210000
H       12.3839260000    4.4414050000    0.4309460000
H       10.1211880000   -0.5094330000   -2.9951990000
H       10.0692490000   -2.3366860000   -1.6328190000
H       10.5942400000   -2.2146160000    0.0223950000
H       11.4265400000    1.2081760000    2.3047630000
H       13.4892250000    1.4166650000    3.4316160000
H       14.0785260000    1.9890440000    1.8531230000
H       13.8890510000    4.2938900000    2.5596560000
H       15.2519640000    3.4707350000    4.2193090000
H       11.9116470000    3.5666540000    4.7186180000
H       10.6990690000    5.5606790000    3.7208350000
H       12.3050740000    5.9044300000    4.4473890000
O      -10.0542150000   -5.8337660000   -4.2482820000
O      -10.9764650000    7.4638150000    2.8408580000
H      -11.7835410000    7.7125940000    3.3134190000
N        4.2895060000    2.7981330000   -3.0051080000
C        4.3416470000    1.8970330000   -1.9262280000
O        4.6645400000    2.3266660000   -0.8202100000
N        4.0333410000    0.6143890000   -2.1363140000
C        3.7691160000    0.1507890000   -3.3601210000
N        3.4380270000   -1.1197410000   -3.4972340000
C        3.8042380000    1.0342310000   -4.4857400000
C        4.0412010000    2.3451950000   -4.2579370000
N        4.9500610000   -3.6000030000    3.0914160000
C        4.3447350000   -4.6944660000    2.5351260000
N        3.8826980000   -4.4830260000    1.3389280000
C        4.1907730000   -3.1723470000    1.0571950000
C        3.9723600000   -2.3606460000   -0.0901070000
O        3.4294630000   -2.6749750000   -1.1556110000
N        4.4321370000   -1.0640450000    0.0900070000
C        5.0501290000   -0.6005680000    1.2236080000
N        5.3824010000    0.6844210000    1.2793120000
N        5.2836480000   -1.3572850000    2.2779010000
C        4.8580330000   -2.6167550000    2.1533490000
H        4.0558480000    3.0761360000   -5.0493500000
H        3.6331300000    0.6517540000   -5.4745890000
H        3.4502330000   -1.7410060000   -2.6860700000
H        3.3660570000   -1.5295570000   -4.4129290000
H        4.2525900000   -5.6271610000    3.0511650000
H        4.3103340000   -0.4168800000   -0.7191070000
H        5.2444450000    1.3017070000    0.4804120000
H        5.9613410000    0.9768580000    2.0471100000
N       -3.8469310000    9.2074830000   -4.1348260000
C       -3.7290060000   10.4327380000   -4.7472170000
O       -2.8083900000   10.7116290000   -5.4976010000
N       -4.7124200000   11.3293940000   -4.4368540000
C       -5.7980510000   11.1403900000   -3.5933520000
O       -6.6037210000   12.0438550000   -3.4302420000
C       -5.8520530000    9.8227540000   -2.9847630000
C       -6.9824240000    9.5099700000   -2.0599580000
C       -4.8836480000    8.9347350000   -3.2851380000
N        1.8440200000   -3.5649850000    5.3461370000
H       -4.9019560000    7.9302830000   -2.8944000000
H       -4.6377530000   12.2400470000   -4.8820460000
H       -7.0945110000    8.4377400000   -1.9393420000
H       -6.8084180000    9.9652010000   -1.0865190000
H       -7.9004390000    9.9373790000   -2.4556970000
P      -10.5555680000   -7.3371300000   -4.1562830000
O       -9.4579520000   -8.2725210000   -3.8916490000
O      -11.7337130000   -7.3715080000   -3.0632080000
C      -11.4152190000   -7.8613120000   -1.7642500000
C      -12.6691200000   -7.7577180000   -0.8880180000
H      -11.0495680000   -8.8849060000   -1.8592280000
C      -10.4121850000   -6.9768300000   -1.0410670000
C      -12.8096470000   -8.9453070000    0.0746520000
H      -13.5667310000   -7.7034980000   -1.5127070000
O      -12.5713800000   -6.5197940000   -0.1881640000
C      -11.2932870000   -5.9343130000   -0.3453390000
H       -9.8714990000   -7.5722500000   -0.3087440000
H       -9.7175900000   -6.5243010000   -1.7396240000
H      -13.5591720000   -8.6771250000    0.8284310000
H      -13.1608640000   -9.8069910000   -0.5027010000
H      -11.3812350000   -5.0099370000   -0.9356460000
O      -11.5678720000   -9.2268280000    0.6825440000
H      -11.6454190000  -10.0397980000    1.2021890000
N      -10.7918110000   -5.5206810000    0.9509690000
C      -10.5848870000   -4.1588380000    1.2124260000
O      -10.6902060000   -3.3478810000    0.2821370000
N      -10.2828600000   -3.7747380000    2.4516490000
C      -10.0844080000   -4.6625690000    3.4318090000
N       -9.7854180000   -4.2223810000    4.6381960000
C      -10.2524800000   -6.0610240000    3.1808190000
C      -10.6338390000   -6.4352180000    1.9423230000
N       -9.8721640000    2.8902040000    3.6485350000
C       -9.4542090000    2.8210110000    4.9506800000
N       -9.3948900000    1.6113740000    5.4166440000
C       -9.7887980000    0.8073750000    4.3708920000
C       -9.8496280000   -0.6065690000    4.2226410000
O       -9.5559010000   -1.4672090000    5.0582570000
N      -10.2992790000   -0.9843580000    2.9663500000
C      -10.6204440000   -0.1214580000    1.9547380000
N      -11.1414540000   -0.6375970000    0.8370790000
N      -10.5284320000    1.1901260000    2.0659550000
C      -10.0848810000    1.6040700000    3.2605440000
H      -10.8443500000   -7.4604860000    1.6736360000
H      -10.1045080000   -6.7778120000    3.9673650000
H       -9.6572660000   -3.2230460000    4.8116710000
H       -9.5756380000   -4.8787700000    5.3710640000
H       -9.2049670000    3.6971020000    5.5135900000
H      -10.3061860000   -2.0081220000    2.7642270000
H      -10.9901730000   -1.6254890000    0.6266290000
H      -11.1968070000   -0.0074060000    0.0540940000
O       10.7372890000    8.0058070000    2.3639080000
O        4.9203910000    8.8940750000   -1.5566670000
O       -6.1376880000    6.3145600000   -4.4121690000
O       -8.6396510000   -0.6745710000   -7.7103830000
O      -11.3565290000   -7.5025910000   -5.5016530000
O       -7.0857460000    7.0643200000    7.2176070000
O       -4.0166980000    2.9498470000    9.2145140000
O       -0.4506040000   -1.9105790000    8.9272750000
O        4.8272220000   -2.6644080000    8.1686470000
H        5.6722660000   -2.3086210000    8.4808020000
O        1.9775980000   -2.7318640000    4.2316860000
C        1.2456600000   -3.3005670000    3.1525630000
C        1.2778220000   -2.4078410000    1.9574380000
H        0.2007330000   -3.4491560000    3.4638440000
H        1.6650630000   -4.2807490000    2.8955450000
C        1.7651660000   -1.1064810000    2.0205510000
C        0.7405510000   -2.8533900000    0.7506300000
C        1.6873990000   -0.2923590000    0.8975030000
H        2.1636840000   -0.7422320000    2.9515790000
C        0.7055830000   -1.9923720000   -0.3270060000
H        0.3512440000   -3.8533520000    0.6606730000
C        1.9958000000    1.1311960000    0.8926040000
N        1.1577610000   -0.7498960000   -0.2485490000
H        0.2767080000   -2.2835310000   -1.2751350000
C        2.6633350000    1.7790210000    1.9191740000
N        1.4939640000    1.8134590000   -0.1543990000
Cu       0.9792250000    0.6685360000   -1.5911010000
C        2.7999790000    3.1649710000    1.9031260000
H        3.0819470000    1.2010670000    2.7254120000
C        1.5542090000    3.1385850000   -0.1465810000
N        1.0117020000    1.8585170000   -3.1397230000
O        0.2246760000   -0.5494510000   -2.7771500000
C        2.1783690000    3.8456000000    0.8590450000
C        3.5684550000    3.8842660000    2.9471320000
H        1.0769890000    3.6487700000   -0.9648150000
C        0.5181690000    1.2131780000   -4.2125740000
C        1.1830760000    3.1570820000   -3.5030810000
C        0.3102630000   -0.2139570000   -4.0330650000
H        2.1985700000    4.9208250000    0.8178710000
H        3.6216350000    3.3069440000    3.8643540000
H        4.5836350000    4.0347450000    2.5820690000
H        3.1354370000    4.8589350000    3.1472360000
N        0.3985440000    2.0629220000   -5.2428080000
H        1.6209000000    3.8909950000   -2.8603920000
C        0.8025110000    3.2852690000   -4.8058640000
C        0.2396010000   -1.0834380000   -5.0957980000
C       -0.1544440000    1.8165970000   -6.5467030000
H        0.8196300000    4.1519890000   -5.4340710000
C        0.1667780000   -2.5162400000   -5.0626630000
H        0.1159680000   -0.6446690000   -6.0721440000
H       -1.1091030000    1.2983020000   -6.4469050000
C       -0.3801900000   -3.1836040000   -6.1714950000
C        0.6761840000   -3.2845040000   -4.0063490000
H       -0.7675420000   -2.6019970000   -6.9953950000
C       -0.4506860000   -4.5598530000   -6.1997170000
C        0.6136620000   -4.6614580000   -4.0487950000
H        1.1555100000   -2.7924950000   -3.1759350000
H       -0.8811260000   -5.0601620000   -7.0542940000
C        0.0418670000   -5.3054710000   -5.1371210000
H        1.0231530000   -5.2354170000   -3.2324140000
H       -0.0114270000   -6.3824900000   -5.1640260000
C        2.3355470000   -3.1385650000    6.4263950000
H        2.8298620000   -2.1734550000    6.5123470000
O        4.9244500000   -7.7819040000    3.6082780000
O        5.4954720000   -9.0794700000   -3.9973000000
H        5.2514520000  -10.0107510000   -4.0750310000
H        4.4913780000   -8.5827600000    3.9302710000
H       -7.5589180000    7.7596060000    7.6921060000
H      -11.6330980000   -8.3983900000   -5.7333030000
H       -8.8809380000   -1.2475130000   -8.4503380000
H       11.2192010000    8.8419820000    2.3712420000
H       -4.3113730000    3.4294160000    9.9994240000
H       -6.6085600000    6.5517800000   -5.2190850000
H        4.9052410000    9.8591560000   -1.5104000000
O        1.2915140000    8.4218350000   -4.0170560000
H        1.5925830000    8.8666440000   -4.8179140000
H       -0.3238450000    2.7733630000   -7.0339240000
H        0.5325590000    1.2235870000   -7.1506550000
N       -5.7662880000    0.1604240000   -2.0652920000
C       -5.3380560000    0.2058800000   -0.7272460000
O       -5.3475540000    1.2886410000   -0.1398400000
N       -4.9100540000   -0.9159080000   -0.1502260000
C       -4.8421080000   -2.0662850000   -0.8216430000
N       -4.3956330000   -3.1421470000   -0.1975890000
C       -5.2471650000   -2.1331670000   -2.1893880000
C       -5.7021570000   -0.9982480000   -2.7578700000
N       -1.9040940000   -0.4748630000    5.8904690000
C       -1.6256790000   -1.8113830000    6.0303630000
N       -2.1069500000   -2.5352110000    5.0677330000
C       -2.7506940000   -1.6481960000    4.2309190000
C       -3.4411560000   -1.8272140000    3.0019910000
O       -3.6612820000   -2.8888690000    2.4110610000
N       -3.8617200000   -0.6246850000    2.4551470000
C       -3.6760220000    0.6080690000    3.0232040000
N       -4.0437290000    1.6832720000    2.3285410000
N       -3.0795270000    0.7795020000    4.1900170000
C       -2.6269050000   -0.3550870000    4.7412290000
H       -6.0359830000   -0.9517860000   -3.7843580000
H       -5.1458070000   -3.0399060000   -2.7576980000
H       -4.1257110000   -3.0970540000    0.7932720000
H       -4.2993760000   -4.0019720000   -0.7099180000
H       -1.0667440000   -2.1815090000    6.8676920000
H       -4.3178860000   -0.6822770000    1.5221280000
H       -4.5814710000    1.5647830000    1.4715810000
H       -4.1072500000    2.5590760000    2.8295790000
O        6.0585600000   -7.3302730000    7.7035380000
H        5.9093030000   -8.0355950000    8.3452210000
O       -2.7970730000    0.7073840000   -1.9388740000
O       -3.3961480000   -1.9243640000   -6.8168420000
O       -2.1432600000    1.5379920000   -3.9283410000
O       -4.0345610000   -2.8560460000   -4.8583160000
N       -2.9389520000   -0.6182600000   -3.7136930000
N       -3.2098310000   -0.6951430000   -4.9984330000
C       -4.2275030000   -2.7405850000   -8.9422210000
C       -2.4465850000    1.9471260000   -1.3182310000
C       -3.8895210000   -3.0735160000   -7.5155480000
C       -3.9949590000   -1.4860150000   -9.4847640000
C       -4.7985590000   -3.7298070000   -9.7358070000
C       -4.3313420000   -1.2226830000  -10.8029990000
C       -5.1311250000   -3.4658140000  -11.0518980000
C       -4.8978970000   -2.2100120000  -11.5897260000
C       -2.6213910000    0.6271430000   -3.2658100000
C       -3.5544560000   -1.9233570000   -5.4884510000
H       -3.3759090000    2.5181700000   -1.1849680000
H       -1.7776980000    2.4901740000   -2.0015030000
H       -4.7838910000   -3.4364900000   -6.9952480000
H       -3.1228940000   -3.8585720000   -7.4686640000
H       -3.5599820000   -0.7191110000   -8.8639680000
H       -4.9863680000   -4.7040670000   -9.3099930000
H       -4.1491980000   -0.2411820000  -11.2130910000
H       -5.5743000000   -4.2405870000  -11.6585470000
H       -5.1581230000   -2.0036120000  -12.6163940000
C       -1.7950370000    1.7427440000    0.0241680000
C       -1.4410380000    2.8593270000    0.7754260000
C       -1.5828020000    0.4767090000    0.5425280000
C       -0.8593410000    2.7061420000    2.0209050000
H       -1.6449800000    3.8450700000    0.3880810000
C       -1.0121960000    0.3289830000    1.7969610000
H       -1.8987930000   -0.3856730000   -0.0249930000
C       -0.6373930000    1.4380150000    2.5337260000
H       -0.5951390000    3.5747750000    2.6015250000
H       -0.8905230000   -0.6595830000    2.2133160000
H       -0.1991380000    1.3058430000    3.5114270000
