 Entering Gaussian System, FakeGaussianRunner
 Input=/Users/taipanlan/Desktop/chemsmart/10a_HA_sp.com
 Output=/Users/taipanlan/Desktop/chemsmart/10a_HA_sp.log
 ******************************************
 Fake Gaussian Executable
 ******************************************
 %chk=10a_HA_sp.chk
 %nprocshared=12
 %mem=40GB
 -------------------------------------------------
 # m062x def2svp scrf=(smd,solvent=dichloroethane)
 -------------------------------------------------
 -------------------------------------------------
 Gaussian pKa calculation job
 -------------------------------------------------
 Symbolic Z-matrix:
 Charge =  0 Multiplicity = 1
 H        0.0000000000    0.0000000000   -1.5742100000
 C        0.0000000000    0.0000000000   -0.5021190000
 N        0.0000000000    0.0000000000    0.6552740000

                          Input orientation:                             
 ------------------------------------------------------------------------
 Center     Atomic      Atomic             Coordinates (Angstroms)       
 Number     Number       Type             X           Y           Z      
 ------------------------------------------------------------------------
   1          1          0                  0.0           0.0      -1.57421
   2          6          0                  0.0           0.0     -0.502119
   3          7          0                  0.0           0.0      0.655274
 ------------------------------------------------------------------------
 Stoichiometry    CHN                       Standard orientation:                             
 ------------------------------------------------------------------------
 Center     Atomic      Atomic             Coordinates (Angstroms)       
 Number     Number       Type             X           Y           Z      
 ------------------------------------------------------------------------
   1          1          0                  0.0           0.0      -1.57421
   2          6          0                  0.0           0.0     -0.502119
   3          7          0                  0.0           0.0      0.655274
 ------------------------------------------------------------------------
 ! Dummy Rotational constant values and dummy SCF energy value...
 Rotational constants (GHZ):          11.4493930           9.4805599           5.3596246
 Standard basis: def2svp (5D, 7F)
 NAtoms=    3
 SCF Done:  E(RM062X) =  -663.4596568765768  A.U. after   14 cycles
 Mulliken charges:
               1
      1   H     0.860204
      2   C     0.445708
      3   N     0.395924
 Elapsed time: xx
 Normal termination of Gaussian 16 (fake executable) at 2026-05-16 12:43:27.265800.