 Entering Gaussian System, FakeGaussianRunner
 Input=/Users/taipanlan/Desktop/chemsmart/10a_A_opt.com
 Output=/Users/taipanlan/Desktop/chemsmart/10a_A_opt.log
 ******************************************
 Fake Gaussian Executable
 ******************************************
 %chk=10a_A_opt.chk
 %nprocshared=12
 %mem=40GB
 ------------------------
 # opt freq m062x def2svp
 ------------------------
 ------------------------
 Gaussian pKa calculation job
 ------------------------
 Symbolic Z-matrix:
 Charge =  -1 Multiplicity = 1
 C        0.0000000000    0.0000000000   -0.5021190000
 N        0.0000000000    0.0000000000    0.6552740000

                          Input orientation:                             
 ------------------------------------------------------------------------
 Center     Atomic      Atomic             Coordinates (Angstroms)       
 Number     Number       Type             X           Y           Z      
 ------------------------------------------------------------------------
   1          6          0                  0.0           0.0     -0.502119
   2          7          0                  0.0           0.0      0.655274
 ------------------------------------------------------------------------
 Stoichiometry    CN                       Standard orientation:                             
 ------------------------------------------------------------------------
 Center     Atomic      Atomic             Coordinates (Angstroms)       
 Number     Number       Type             X           Y           Z      
 ------------------------------------------------------------------------
   1          6          0                  0.0           0.0     -0.502119
   2          7          0                  0.0           0.0      0.655274
 ------------------------------------------------------------------------
 ! Dummy Rotational constant values and dummy SCF energy value...
 Rotational constants (GHZ):          11.4493930           9.4805599           5.3596246
 Standard basis: def2svp (5D, 7F)
 NAtoms=    2
 SCF Done:  E(RM062X) =  -664.8653864409997  A.U. after   14 cycles
 Mulliken charges:
               1
      1   C     0.573557
      2   N     0.625241
 Elapsed time: xx
 Normal termination of Gaussian 16 (fake executable) at 2026-05-16 12:43:20.833356.