 Entering Gaussian System, FakeGaussianRunner
 Input=/Users/taipanlan/Desktop/chemsmart/2a_A_opt.com
 Output=/Users/taipanlan/Desktop/chemsmart/2a_A_opt.log
 ******************************************
 Fake Gaussian Executable
 ******************************************
 %chk=2a_A_opt.chk
 %nprocshared=12
 %mem=40GB
 ------------------------
 # opt freq m062x def2svp
 ------------------------
 ------------------------
 Gaussian pKa calculation job
 ------------------------
 Symbolic Z-matrix:
 Charge =  -1 Multiplicity = 1
 O        0.6485210000    0.1351750000    1.4015590000
 S        0.0899870000    0.1521280000    0.0471010000
 C       -1.6361340000   -0.3459290000    0.0776080000
 H       -1.9653800000   -0.5004040000   -0.9514190000
 H       -1.7277830000   -1.2595580000    0.6664890000
 H       -2.1919250000    0.4735650000    0.5391020000
 O        0.2283640000    1.3203310000   -0.8118160000
 O        0.7222430000   -1.1536530000   -0.7472460000

                          Input orientation:                             
 ------------------------------------------------------------------------
 Center     Atomic      Atomic             Coordinates (Angstroms)       
 Number     Number       Type             X           Y           Z      
 ------------------------------------------------------------------------
   1          8          0             0.648521      0.135175       1.40156
   2         16          0             0.089987      0.152128      0.047101
   3          6          0             -1.63613     -0.345929      0.077608
   4          1          0             -1.96538     -0.500404     -0.951419
   5          1          0             -1.72778      -1.25956      0.666489
   6          1          0             -2.19192      0.473565      0.539102
   7          8          0             0.228364       1.32033     -0.811816
   8          8          0             0.722243      -1.15365     -0.747246
 ------------------------------------------------------------------------
 Stoichiometry    CH3O3S                       Standard orientation:                             
 ------------------------------------------------------------------------
 Center     Atomic      Atomic             Coordinates (Angstroms)       
 Number     Number       Type             X           Y           Z      
 ------------------------------------------------------------------------
   1          8          0             0.648521      0.135175       1.40156
   2         16          0             0.089987      0.152128      0.047101
   3          6          0             -1.63613     -0.345929      0.077608
   4          1          0             -1.96538     -0.500404     -0.951419
   5          1          0             -1.72778      -1.25956      0.666489
   6          1          0             -2.19192      0.473565      0.539102
   7          8          0             0.228364       1.32033     -0.811816
   8          8          0             0.722243      -1.15365     -0.747246
 ------------------------------------------------------------------------
 ! Dummy Rotational constant values and dummy SCF energy value...
 Rotational constants (GHZ):          11.4493930           9.4805599           5.3596246
 Standard basis: def2svp (5D, 7F)
 NAtoms=    8
 SCF Done:  E(RM062X) =  -350.51383647916856  A.U. after   14 cycles
 Mulliken charges:
               1
      1   O     0.931101
      2   S      0.56384
      3   C     0.210919
      4   H     0.358207
      5   H     0.322493
      6   H     0.600862
      7   O     0.429068
      8   O     0.267386
 Elapsed time: xx
 Normal termination of Gaussian 16 (fake executable) at 2026-05-16 12:43:20.724212.