 Entering Gaussian System, FakeGaussianRunner
 Input=/Users/taipanlan/PycharmProjects/chemsmart/2a_HA_sp.com
 Output=/Users/taipanlan/PycharmProjects/chemsmart/2a_HA_sp.log
 ******************************************
 Fake Gaussian Executable
 ******************************************
 %chk=2a_HA_sp.chk
 %nprocshared=12
 %mem=40GB
 -------------------------------------------------
 # m062x def2svp scrf=(smd,solvent=dichloroethane)
 -------------------------------------------------
 -------------------------------------------------
 Gaussian pKa calculation job
 -------------------------------------------------
 Symbolic Z-matrix:
 Charge =  0 Multiplicity = 1
 O        0.6485210000    0.1351750000    1.4015600000
 S        0.0899870000    0.1521280000    0.0471010000
 C       -1.6361300000   -0.3459290000    0.0776080000
 H       -1.9653800000   -0.5004040000   -0.9514190000
 H       -1.7277800000   -1.2595600000    0.6664890000
 H       -2.1919200000    0.4735650000    0.5391020000
 O        0.2283640000    1.3203300000   -0.8118160000
 O        0.7222430000   -1.1536500000   -0.7472460000
 H        1.4690700000   -1.4869000000   -0.2134010000

                          Input orientation:                             
 ------------------------------------------------------------------------
 Center     Atomic      Atomic             Coordinates (Angstroms)       
 Number     Number       Type             X           Y           Z      
 ------------------------------------------------------------------------
   1          8          0             0.648521      0.135175       1.40156
   2         16          0             0.089987      0.152128      0.047101
   3          6          0             -1.63613     -0.345929      0.077608
   4          1          0             -1.96538     -0.500404     -0.951419
   5          1          0             -1.72778      -1.25956      0.666489
   6          1          0             -2.19192      0.473565      0.539102
   7          8          0             0.228364       1.32033     -0.811816
   8          8          0             0.722243      -1.15365     -0.747246
   9          1          0              1.46907       -1.4869     -0.213401
 ------------------------------------------------------------------------
 Stoichiometry    CH4O3S                       Standard orientation:                             
 ------------------------------------------------------------------------
 Center     Atomic      Atomic             Coordinates (Angstroms)       
 Number     Number       Type             X           Y           Z      
 ------------------------------------------------------------------------
   1          8          0             0.648521      0.135175       1.40156
   2         16          0             0.089987      0.152128      0.047101
   3          6          0             -1.63613     -0.345929      0.077608
   4          1          0             -1.96538     -0.500404     -0.951419
   5          1          0             -1.72778      -1.25956      0.666489
   6          1          0             -2.19192      0.473565      0.539102
   7          8          0             0.228364       1.32033     -0.811816
   8          8          0             0.722243      -1.15365     -0.747246
   9          1          0              1.46907       -1.4869     -0.213401
 ------------------------------------------------------------------------
 ! Dummy Rotational constant values and dummy SCF energy value...
 Rotational constants (GHZ):          11.4493930           9.4805599           5.3596246
 Standard basis: def2svp (5D, 7F)
 NAtoms=    9
 SCF Done:  E(RM062X) =  -577.4607449828961  A.U. after   14 cycles
 Mulliken charges:
               1
      1   O    0.0766349
      2   S     0.287436
      3   C     0.124797
      4   H     0.938941
      5   H     0.863754
      6   H     0.325638
      7   O     0.350404
      8   O     0.809808
      9   H     0.998534
 Elapsed time: xx
 Normal termination of Gaussian 16 (fake executable) at 2026-06-09 16:49:36.686309.