 Entering Gaussian System, FakeGaussianRunner
 Input=/Users/taipanlan/Desktop/chemsmart/3a_A_opt.com
 Output=/Users/taipanlan/Desktop/chemsmart/3a_A_opt.log
 ******************************************
 Fake Gaussian Executable
 ******************************************
 %chk=3a_A_opt.chk
 %nprocshared=12
 %mem=40GB
 ------------------------
 # opt freq m062x def2svp
 ------------------------
 ------------------------
 Gaussian pKa calculation job
 ------------------------
 Symbolic Z-matrix:
 Charge =  -1 Multiplicity = 1
 C       -0.5994920000   -0.0005980000   -0.0000200000
 F       -1.0019170000   -0.6819350000   -1.0921400000
 F       -1.1941330000    1.1957620000   -0.0015220000
 F       -1.0022610000   -0.6793350000    1.0936240000
 C        0.9429720000    0.1602570000    0.0000660000
 O        1.5009370000    1.2257020000   -0.0000040000
 O        1.5275990000   -1.0449160000    0.0000310000

                          Input orientation:                             
 ------------------------------------------------------------------------
 Center     Atomic      Atomic             Coordinates (Angstroms)       
 Number     Number       Type             X           Y           Z      
 ------------------------------------------------------------------------
   1          6          0            -0.599492     -0.000598        -2e-05
   2          9          0             -1.00192     -0.681935      -1.09214
   3          9          0             -1.19413       1.19576     -0.001522
   4          9          0             -1.00226     -0.679335       1.09362
   5          6          0             0.942972      0.160257       6.6e-05
   6          8          0              1.50094        1.2257        -4e-06
   7          8          0               1.5276      -1.04492       3.1e-05
 ------------------------------------------------------------------------
 Stoichiometry    C2F3O2                       Standard orientation:                             
 ------------------------------------------------------------------------
 Center     Atomic      Atomic             Coordinates (Angstroms)       
 Number     Number       Type             X           Y           Z      
 ------------------------------------------------------------------------
   1          6          0            -0.599492     -0.000598        -2e-05
   2          9          0             -1.00192     -0.681935      -1.09214
   3          9          0             -1.19413       1.19576     -0.001522
   4          9          0             -1.00226     -0.679335       1.09362
   5          6          0             0.942972      0.160257       6.6e-05
   6          8          0              1.50094        1.2257        -4e-06
   7          8          0               1.5276      -1.04492       3.1e-05
 ------------------------------------------------------------------------
 ! Dummy Rotational constant values and dummy SCF energy value...
 Rotational constants (GHZ):          11.4493930           9.4805599           5.3596246
 Standard basis: def2svp (5D, 7F)
 NAtoms=    7
 SCF Done:  E(RM062X) =  -503.0834547054284  A.U. after   14 cycles
 Mulliken charges:
               1
      1   C     0.880725
      2   F     0.827882
      3   F     0.538399
      4   F     0.448716
      5   C     0.778295
      6   O     0.644956
      7   O      0.60607
 Elapsed time: xx
 Normal termination of Gaussian 16 (fake executable) at 2026-05-16 12:43:20.724942.