 Entering Gaussian System, FakeGaussianRunner
 Input=/Users/taipanlan/PycharmProjects/chemsmart/3a_HA_sp.com
 Output=/Users/taipanlan/PycharmProjects/chemsmart/3a_HA_sp.log
 ******************************************
 Fake Gaussian Executable
 ******************************************
 %chk=3a_HA_sp.chk
 %nprocshared=12
 %mem=40GB
 -------------------------------------------------
 # m062x def2svp scrf=(smd,solvent=dichloroethane)
 -------------------------------------------------
 -------------------------------------------------
 Gaussian pKa calculation job
 -------------------------------------------------
 Symbolic Z-matrix:
 Charge =  0 Multiplicity = 1
 C       -0.5994920000   -0.0005980000   -0.0000200000
 F       -1.0019200000   -0.6819350000   -1.0921400000
 F       -1.1941300000    1.1957600000   -0.0015220000
 F       -1.0022600000   -0.6793350000    1.0936200000
 C        0.9429720000    0.1602570000    0.0000660000
 O        1.5009400000    1.2257000000   -0.0000040000
 O        1.5276000000   -1.0449200000    0.0000310000
 H        2.4956400000   -0.9146730000   -0.0001470000

                          Input orientation:                             
 ------------------------------------------------------------------------
 Center     Atomic      Atomic             Coordinates (Angstroms)       
 Number     Number       Type             X           Y           Z      
 ------------------------------------------------------------------------
   1          6          0            -0.599492     -0.000598        -2e-05
   2          9          0             -1.00192     -0.681935      -1.09214
   3          9          0             -1.19413       1.19576     -0.001522
   4          9          0             -1.00226     -0.679335       1.09362
   5          6          0             0.942972      0.160257       6.6e-05
   6          8          0              1.50094        1.2257        -4e-06
   7          8          0               1.5276      -1.04492       3.1e-05
   8          1          0              2.49564     -0.914673     -0.000147
 ------------------------------------------------------------------------
 Stoichiometry    C2HF3O2                       Standard orientation:                             
 ------------------------------------------------------------------------
 Center     Atomic      Atomic             Coordinates (Angstroms)       
 Number     Number       Type             X           Y           Z      
 ------------------------------------------------------------------------
   1          6          0            -0.599492     -0.000598        -2e-05
   2          9          0             -1.00192     -0.681935      -1.09214
   3          9          0             -1.19413       1.19576     -0.001522
   4          9          0             -1.00226     -0.679335       1.09362
   5          6          0             0.942972      0.160257       6.6e-05
   6          8          0              1.50094        1.2257        -4e-06
   7          8          0               1.5276      -1.04492       3.1e-05
   8          1          0              2.49564     -0.914673     -0.000147
 ------------------------------------------------------------------------
 ! Dummy Rotational constant values and dummy SCF energy value...
 Rotational constants (GHZ):          11.4493930           9.4805599           5.3596246
 Standard basis: def2svp (5D, 7F)
 NAtoms=    8
 SCF Done:  E(RM062X) =  -684.9352125697862  A.U. after   14 cycles
 Mulliken charges:
               1
      1   C     0.389644
      2   F     0.210176
      3   F     0.267363
      4   F    0.0142471
      5   C     0.519567
      6   O     0.569743
      7   O     0.600912
      8   H     0.709463
 Elapsed time: xx
 Normal termination of Gaussian 16 (fake executable) at 2026-06-09 16:49:42.984879.