 Entering Gaussian System, FakeGaussianRunner
 Input=/Users/taipanlan/Desktop/chemsmart/4a_A_opt.com
 Output=/Users/taipanlan/Desktop/chemsmart/4a_A_opt.log
 ******************************************
 Fake Gaussian Executable
 ******************************************
 %chk=4a_A_opt.chk
 %nprocshared=12
 %mem=40GB
 ------------------------
 # opt freq m062x def2svp
 ------------------------
 ------------------------
 Gaussian pKa calculation job
 ------------------------
 Symbolic Z-matrix:
 Charge =  -1 Multiplicity = 1
 C        1.3894190000    0.1469430000    0.0000200000
 C        1.2204580000    1.5420480000    0.0002410000
 C        0.3065600000   -0.7134540000   -0.0001110000
 H        2.0937230000    2.1837930000    0.0003700000
 H        0.4458930000   -1.7870940000   -0.0001220000
 C       -0.0549180000    2.0724960000    0.0002220000
 C       -0.9816950000   -0.1707820000   -0.0001370000
 C       -1.1900240000    1.2352140000   -0.0001120000
 O       -2.3864970000    1.8210440000    0.0001210000
 N       -2.1049610000   -1.0941130000   -0.0000910000
 O       -1.8872040000   -2.2980830000    0.0004530000
 O       -3.2587170000   -0.6081260000   -0.0004210000
 N        2.7461060000   -0.4146600000   -0.0000700000
 O        2.8602650000   -1.6403850000    0.0001690000
 O        3.6878810000    0.3801600000   -0.0003360000
 H       -0.2198650000    3.1447780000    0.0003670000

                          Input orientation:                             
 ------------------------------------------------------------------------
 Center     Atomic      Atomic             Coordinates (Angstroms)       
 Number     Number       Type             X           Y           Z      
 ------------------------------------------------------------------------
   1          6          0              1.38942      0.146943         2e-05
   2          6          0              1.22046       1.54205      0.000241
   3          6          0              0.30656     -0.713454     -0.000111
   4          1          0              2.09372       2.18379       0.00037
   5          1          0             0.445893      -1.78709     -0.000122
   6          6          0            -0.054918        2.0725      0.000222
   7          6          0            -0.981695     -0.170782     -0.000137
   8          6          0             -1.19002       1.23521     -0.000112
   9          8          0              -2.3865       1.82104      0.000121
  10          7          0             -2.10496      -1.09411      -9.1e-05
  11          8          0              -1.8872      -2.29808      0.000453
  12          8          0             -3.25872     -0.608126     -0.000421
  13          7          0              2.74611      -0.41466        -7e-05
  14          8          0              2.86027      -1.64038      0.000169
  15          8          0              3.68788       0.38016     -0.000336
  16          1          0            -0.219865       3.14478      0.000367
 ------------------------------------------------------------------------
 Stoichiometry    C6H3N2O5                       Standard orientation:                             
 ------------------------------------------------------------------------
 Center     Atomic      Atomic             Coordinates (Angstroms)       
 Number     Number       Type             X           Y           Z      
 ------------------------------------------------------------------------
   1          6          0              1.38942      0.146943         2e-05
   2          6          0              1.22046       1.54205      0.000241
   3          6          0              0.30656     -0.713454     -0.000111
   4          1          0              2.09372       2.18379       0.00037
   5          1          0             0.445893      -1.78709     -0.000122
   6          6          0            -0.054918        2.0725      0.000222
   7          6          0            -0.981695     -0.170782     -0.000137
   8          6          0             -1.19002       1.23521     -0.000112
   9          8          0              -2.3865       1.82104      0.000121
  10          7          0             -2.10496      -1.09411      -9.1e-05
  11          8          0              -1.8872      -2.29808      0.000453
  12          8          0             -3.25872     -0.608126     -0.000421
  13          7          0              2.74611      -0.41466        -7e-05
  14          8          0              2.86027      -1.64038      0.000169
  15          8          0              3.68788       0.38016     -0.000336
  16          1          0            -0.219865       3.14478      0.000367
 ------------------------------------------------------------------------
 ! Dummy Rotational constant values and dummy SCF energy value...
 Rotational constants (GHZ):          11.4493930           9.4805599           5.3596246
 Standard basis: def2svp (5D, 7F)
 NAtoms=    16
 SCF Done:  E(RM062X) =  -26.990825774836026  A.U. after   14 cycles
 Mulliken charges:
               1
      1   C     0.791629
      2   C     0.112179
      3   C     0.835265
      4   H      0.38966
      5   H     0.466243
      6   C     0.606301
      7   C     0.145401
      8   C     0.643905
      9   O     0.610145
     10   N     0.316791
     11   O     0.232175
     12   O     0.456599
     13   N      0.36692
     14   O    0.0854487
     15   O     0.231945
     16   H     0.985651
 Elapsed time: xx
 Normal termination of Gaussian 16 (fake executable) at 2026-05-16 12:43:20.852939.