 Entering Gaussian System, FakeGaussianRunner
 Input=/Users/taipanlan/PycharmProjects/chemsmart/4a_HA_sp.com
 Output=/Users/taipanlan/PycharmProjects/chemsmart/4a_HA_sp.log
 ******************************************
 Fake Gaussian Executable
 ******************************************
 %chk=4a_HA_sp.chk
 %nprocshared=12
 %mem=40GB
 -------------------------------------------------
 # m062x def2svp scrf=(smd,solvent=dichloroethane)
 -------------------------------------------------
 -------------------------------------------------
 Gaussian pKa calculation job
 -------------------------------------------------
 Symbolic Z-matrix:
 Charge =  0 Multiplicity = 1
 C        1.3894200000    0.1469430000    0.0000200000
 C        1.2204600000    1.5420500000    0.0002410000
 C        0.3065600000   -0.7134540000   -0.0001110000
 H        2.0937200000    2.1837900000    0.0003700000
 H        0.4458930000   -1.7870900000   -0.0001220000
 C       -0.0549180000    2.0725000000    0.0002220000
 C       -0.9816950000   -0.1707820000   -0.0001370000
 C       -1.1900200000    1.2352100000   -0.0001120000
 O       -2.3865000000    1.8210400000    0.0001210000
 H       -3.0724000000    1.1082700000   -0.0001120000
 N       -2.1049600000   -1.0941100000   -0.0000910000
 O       -1.8872000000   -2.2980800000    0.0004530000
 O       -3.2587200000   -0.6081260000   -0.0004210000
 N        2.7461100000   -0.4146600000   -0.0000700000
 O        2.8602700000   -1.6403800000    0.0001690000
 O        3.6878800000    0.3801600000   -0.0003360000
 H       -0.2198650000    3.1447800000    0.0003670000

                          Input orientation:                             
 ------------------------------------------------------------------------
 Center     Atomic      Atomic             Coordinates (Angstroms)       
 Number     Number       Type             X           Y           Z      
 ------------------------------------------------------------------------
   1          6          0              1.38942      0.146943         2e-05
   2          6          0              1.22046       1.54205      0.000241
   3          6          0              0.30656     -0.713454     -0.000111
   4          1          0              2.09372       2.18379       0.00037
   5          1          0             0.445893      -1.78709     -0.000122
   6          6          0            -0.054918        2.0725      0.000222
   7          6          0            -0.981695     -0.170782     -0.000137
   8          6          0             -1.19002       1.23521     -0.000112
   9          8          0              -2.3865       1.82104      0.000121
  10          1          0              -3.0724       1.10827     -0.000112
  11          7          0             -2.10496      -1.09411      -9.1e-05
  12          8          0              -1.8872      -2.29808      0.000453
  13          8          0             -3.25872     -0.608126     -0.000421
  14          7          0              2.74611      -0.41466        -7e-05
  15          8          0              2.86027      -1.64038      0.000169
  16          8          0              3.68788       0.38016     -0.000336
  17          1          0            -0.219865       3.14478      0.000367
 ------------------------------------------------------------------------
 Stoichiometry    C6H4N2O5                       Standard orientation:                             
 ------------------------------------------------------------------------
 Center     Atomic      Atomic             Coordinates (Angstroms)       
 Number     Number       Type             X           Y           Z      
 ------------------------------------------------------------------------
   1          6          0              1.38942      0.146943         2e-05
   2          6          0              1.22046       1.54205      0.000241
   3          6          0              0.30656     -0.713454     -0.000111
   4          1          0              2.09372       2.18379       0.00037
   5          1          0             0.445893      -1.78709     -0.000122
   6          6          0            -0.054918        2.0725      0.000222
   7          6          0            -0.981695     -0.170782     -0.000137
   8          6          0             -1.19002       1.23521     -0.000112
   9          8          0              -2.3865       1.82104      0.000121
  10          1          0              -3.0724       1.10827     -0.000112
  11          7          0             -2.10496      -1.09411      -9.1e-05
  12          8          0              -1.8872      -2.29808      0.000453
  13          8          0             -3.25872     -0.608126     -0.000421
  14          7          0              2.74611      -0.41466        -7e-05
  15          8          0              2.86027      -1.64038      0.000169
  16          8          0              3.68788       0.38016     -0.000336
  17          1          0            -0.219865       3.14478      0.000367
 ------------------------------------------------------------------------
 ! Dummy Rotational constant values and dummy SCF energy value...
 Rotational constants (GHZ):          11.4493930           9.4805599           5.3596246
 Standard basis: def2svp (5D, 7F)
 NAtoms=    17
 SCF Done:  E(RM062X) =  -853.5278594383884  A.U. after   14 cycles
 Mulliken charges:
               1
      1   C     0.325904
      2   C     0.151264
      3   C     0.242028
      4   H     0.673623
      5   H     0.453285
      6   C     0.504876
      7   C     0.656401
      8   C     0.684746
      9   O    0.0743593
     10   H       0.4172
     11   N     0.659936
     12   O      0.80481
     13   O     0.869165
     14   N     0.127358
     15   O   0.00956953
     16   O     0.290211
     17   H     0.477857
 Elapsed time: xx
 Normal termination of Gaussian 16 (fake executable) at 2026-06-09 16:49:48.770318.