 Entering Gaussian System, FakeGaussianRunner
 Input=/Users/taipanlan/Desktop/chemsmart/5a_HA_sp.com
 Output=/Users/taipanlan/Desktop/chemsmart/5a_HA_sp.log
 ******************************************
 Fake Gaussian Executable
 ******************************************
 %chk=5a_HA_sp.chk
 %nprocshared=12
 %mem=40GB
 -------------------------------------------------
 # m062x def2svp scrf=(smd,solvent=dichloroethane)
 -------------------------------------------------
 -------------------------------------------------
 Gaussian pKa calculation job
 -------------------------------------------------
 Symbolic Z-matrix:
 Charge =  0 Multiplicity = 1
 C        0.0000000000    0.2422520000    0.0000000000
 C        0.1366770000    1.6408100000    0.0000000000
 C        1.1490300000   -0.5639000000    0.0000000000
 H       -0.7593790000    2.2530000000    0.0000000000
 H        1.0649200000   -1.6467300000    0.0000000000
 C        1.4033300000    2.2214500000    0.0000000000
 C        2.4158300000    0.0206430000    0.0000000000
 H        1.5016600000    3.3037000000    0.0000000000
 H        3.3004100000   -0.6102530000    0.0000000000
 C        2.5451300000    1.4127300000    0.0000000000
 H        3.5330200000    1.8661400000    0.0000000000
 C       -1.3855000000   -0.3137600000    0.0000000000
 O       -2.3827500000    0.3793110000    0.0000000000
 S       -1.5187400000   -2.1291800000    0.0000000000
 H       -2.8657300000   -2.0948200000    0.0000000000

                          Input orientation:                             
 ------------------------------------------------------------------------
 Center     Atomic      Atomic             Coordinates (Angstroms)       
 Number     Number       Type             X           Y           Z      
 ------------------------------------------------------------------------
   1          6          0                  0.0      0.242252           0.0
   2          6          0             0.136677       1.64081           0.0
   3          6          0              1.14903       -0.5639           0.0
   4          1          0            -0.759379         2.253           0.0
   5          1          0              1.06492      -1.64673           0.0
   6          6          0              1.40333       2.22145           0.0
   7          6          0              2.41583      0.020643           0.0
   8          1          0              1.50166        3.3037           0.0
   9          1          0              3.30041     -0.610253           0.0
  10          6          0              2.54513       1.41273           0.0
  11          1          0              3.53302       1.86614           0.0
  12          6          0              -1.3855      -0.31376           0.0
  13          8          0             -2.38275      0.379311           0.0
  14         16          0             -1.51874      -2.12918           0.0
  15          1          0             -2.86573      -2.09482           0.0
 ------------------------------------------------------------------------
 Stoichiometry    C7H6OS                       Standard orientation:                             
 ------------------------------------------------------------------------
 Center     Atomic      Atomic             Coordinates (Angstroms)       
 Number     Number       Type             X           Y           Z      
 ------------------------------------------------------------------------
   1          6          0                  0.0      0.242252           0.0
   2          6          0             0.136677       1.64081           0.0
   3          6          0              1.14903       -0.5639           0.0
   4          1          0            -0.759379         2.253           0.0
   5          1          0              1.06492      -1.64673           0.0
   6          6          0              1.40333       2.22145           0.0
   7          6          0              2.41583      0.020643           0.0
   8          1          0              1.50166        3.3037           0.0
   9          1          0              3.30041     -0.610253           0.0
  10          6          0              2.54513       1.41273           0.0
  11          1          0              3.53302       1.86614           0.0
  12          6          0              -1.3855      -0.31376           0.0
  13          8          0             -2.38275      0.379311           0.0
  14         16          0             -1.51874      -2.12918           0.0
  15          1          0             -2.86573      -2.09482           0.0
 ------------------------------------------------------------------------
 ! Dummy Rotational constant values and dummy SCF energy value...
 Rotational constants (GHZ):          11.4493930           9.4805599           5.3596246
 Standard basis: def2svp (5D, 7F)
 NAtoms=    15
 SCF Done:  E(RM062X) =  -431.139658759867  A.U. after   14 cycles
 Mulliken charges:
               1
      1   C     0.864026
      2   C     0.663833
      3   C     0.447959
      4   H     0.598111
      5   H  0.000823361
      6   C     0.461918
      7   C     0.532964
      8   H     0.454379
      9   H    0.0762216
     10   C     0.705575
     11   H     0.633504
     12   C     0.645596
     13   O     0.560888
     14   S     0.340952
     15   H     0.978042
 Elapsed time: xx
 Normal termination of Gaussian 16 (fake executable) at 2026-05-16 12:43:27.129019.