 Entering Gaussian System, FakeGaussianRunner
 Input=/Users/taipanlan/Desktop/chemsmart/5a_HRef_opt.com
 Output=/Users/taipanlan/Desktop/chemsmart/5a_HRef_opt.log
 ******************************************
 Fake Gaussian Executable
 ******************************************
 %chk=5a_HRef_opt.chk
 %nprocshared=12
 %mem=40GB
 ------------------------
 # opt freq m062x def2svp
 ------------------------
 ------------------------
 Gaussian pKa calculation job
 ------------------------
 Symbolic Z-matrix:
 Charge =  0 Multiplicity = 1
 C        1.5496790000   -0.0149090000    0.0224210000
 C        0.8527090000   -1.2246930000   -0.0037410000
 C        0.8886820000    1.2020700000    0.0189490000
 H        1.3842390000   -2.1688640000   -0.0203930000
 H        1.4387270000    2.1349000000    0.0325160000
 C       -0.5296830000   -1.2013690000   -0.0041260000
 C       -0.5048600000    1.2097350000   -0.0121570000
 C       -1.2705950000    0.0077150000   -0.0213440000
 O       -2.5890430000   -0.0340120000   -0.0821540000
 H       -2.9193720000    0.9007800000   -0.1124760000
 N       -1.2280690000   -2.5012710000    0.0150280000
 O       -2.2250330000   -2.5984710000    0.7207460000
 O       -0.7295810000   -3.4017470000   -0.6592430000
 N       -1.1677830000    2.5102590000   -0.0392030000
 O       -0.4837310000    3.5215110000   -0.0052270000
 O       -2.4165470000    2.5266070000   -0.0978620000
 N        3.0209420000   -0.0339520000    0.0478120000
 O        3.6004940000    1.0505390000    0.0596520000
 O        3.5690890000   -1.1348480000    0.0559480000

                          Input orientation:                             
 ------------------------------------------------------------------------
 Center     Atomic      Atomic             Coordinates (Angstroms)       
 Number     Number       Type             X           Y           Z      
 ------------------------------------------------------------------------
   1          6          0              1.54968     -0.014909      0.022421
   2          6          0             0.852709      -1.22469     -0.003741
   3          6          0             0.888682       1.20207      0.018949
   4          1          0              1.38424      -2.16886     -0.020393
   5          1          0              1.43873        2.1349      0.032516
   6          6          0            -0.529683      -1.20137     -0.004126
   7          6          0             -0.50486       1.20974     -0.012157
   8          6          0             -1.27059      0.007715     -0.021344
   9          8          0             -2.58904     -0.034012     -0.082154
  10          1          0             -2.91937       0.90078     -0.112476
  11          7          0             -1.22807      -2.50127      0.015028
  12          8          0             -2.22503      -2.59847      0.720746
  13          8          0            -0.729581      -3.40175     -0.659243
  14          7          0             -1.16778       2.51026     -0.039203
  15          8          0            -0.483731       3.52151     -0.005227
  16          8          0             -2.41655       2.52661     -0.097862
  17          7          0              3.02094     -0.033952      0.047812
  18          8          0              3.60049       1.05054      0.059652
  19          8          0              3.56909      -1.13485      0.055948
 ------------------------------------------------------------------------
 Stoichiometry    C6H3N3O7                       Standard orientation:                             
 ------------------------------------------------------------------------
 Center     Atomic      Atomic             Coordinates (Angstroms)       
 Number     Number       Type             X           Y           Z      
 ------------------------------------------------------------------------
   1          6          0              1.54968     -0.014909      0.022421
   2          6          0             0.852709      -1.22469     -0.003741
   3          6          0             0.888682       1.20207      0.018949
   4          1          0              1.38424      -2.16886     -0.020393
   5          1          0              1.43873        2.1349      0.032516
   6          6          0            -0.529683      -1.20137     -0.004126
   7          6          0             -0.50486       1.20974     -0.012157
   8          6          0             -1.27059      0.007715     -0.021344
   9          8          0             -2.58904     -0.034012     -0.082154
  10          1          0             -2.91937       0.90078     -0.112476
  11          7          0             -1.22807      -2.50127      0.015028
  12          8          0             -2.22503      -2.59847      0.720746
  13          8          0            -0.729581      -3.40175     -0.659243
  14          7          0             -1.16778       2.51026     -0.039203
  15          8          0            -0.483731       3.52151     -0.005227
  16          8          0             -2.41655       2.52661     -0.097862
  17          7          0              3.02094     -0.033952      0.047812
  18          8          0              3.60049       1.05054      0.059652
  19          8          0              3.56909      -1.13485      0.055948
 ------------------------------------------------------------------------
 ! Dummy Rotational constant values and dummy SCF energy value...
 Rotational constants (GHZ):          11.4493930           9.4805599           5.3596246
 Standard basis: def2svp (5D, 7F)
 NAtoms=    19
 SCF Done:  E(RM062X) =  -474.9479699405007  A.U. after   14 cycles
 Mulliken charges:
               1
      1   C     0.116189
      2   C      0.11861
      3   C    0.0475034
      4   H     0.974644
      5   H     0.969197
      6   C     0.671785
      7   C    0.0466246
      8   C     0.167385
      9   O     0.465514
     10   H     0.276468
     11   N     0.547583
     12   O     0.680803
     13   O     0.402737
     14   N     0.793424
     15   O    0.0782142
     16   O     0.165474
     17   N     0.262586
     18   O     0.755346
     19   O     0.402867
 Elapsed time: xx
 Normal termination of Gaussian 16 (fake executable) at 2026-05-16 12:43:23.033483.