 Entering Gaussian System, FakeGaussianRunner
 Input=/Users/taipanlan/PycharmProjects/chemsmart/5a_HA_opt.com
 Output=/Users/taipanlan/PycharmProjects/chemsmart/5a_HA_opt.log
 ******************************************
 Fake Gaussian Executable
 ******************************************
 %chk=5a_HA_opt.chk
 %nprocshared=12
 %mem=40GB
 ------------------------
 # opt freq m062x def2svp
 ------------------------
 ------------------------
 Gaussian pKa calculation job
 ------------------------
 Symbolic Z-matrix:
 Charge =  0 Multiplicity = 1
 C        0.0000000000    0.2422520000    0.0000000000
 C        0.1366770000    1.6408120000    0.0000000000
 C        1.1490270000   -0.5639000000    0.0000000000
 H       -0.7593790000    2.2529990000    0.0000000000
 H        1.0649250000   -1.6467300000    0.0000000000
 C        1.4033260000    2.2214470000    0.0000000000
 C        2.4158340000    0.0206430000    0.0000000000
 H        1.5016590000    3.3036960000    0.0000000000
 H        3.3004140000   -0.6102530000    0.0000000000
 C        2.5451270000    1.4127280000    0.0000000000
 H        3.5330240000    1.8661360000    0.0000000000
 C       -1.3854980000   -0.3137600000    0.0000000000
 O       -2.3827480000    0.3793110000    0.0000000000
 S       -1.5187430000   -2.1291780000    0.0000000000
 H       -2.8657310000   -2.0948190000    0.0000000000

                          Input orientation:                             
 ------------------------------------------------------------------------
 Center     Atomic      Atomic             Coordinates (Angstroms)       
 Number     Number       Type             X           Y           Z      
 ------------------------------------------------------------------------
   1          6          0                  0.0      0.242252           0.0
   2          6          0             0.136677       1.64081           0.0
   3          6          0              1.14903       -0.5639           0.0
   4          1          0            -0.759379         2.253           0.0
   5          1          0              1.06492      -1.64673           0.0
   6          6          0              1.40333       2.22145           0.0
   7          6          0              2.41583      0.020643           0.0
   8          1          0              1.50166        3.3037           0.0
   9          1          0              3.30041     -0.610253           0.0
  10          6          0              2.54513       1.41273           0.0
  11          1          0              3.53302       1.86614           0.0
  12          6          0              -1.3855      -0.31376           0.0
  13          8          0             -2.38275      0.379311           0.0
  14         16          0             -1.51874      -2.12918           0.0
  15          1          0             -2.86573      -2.09482           0.0
 ------------------------------------------------------------------------
 Stoichiometry    C7H6OS                       Standard orientation:                             
 ------------------------------------------------------------------------
 Center     Atomic      Atomic             Coordinates (Angstroms)       
 Number     Number       Type             X           Y           Z      
 ------------------------------------------------------------------------
   1          6          0                  0.0      0.242252           0.0
   2          6          0             0.136677       1.64081           0.0
   3          6          0              1.14903       -0.5639           0.0
   4          1          0            -0.759379         2.253           0.0
   5          1          0              1.06492      -1.64673           0.0
   6          6          0              1.40333       2.22145           0.0
   7          6          0              2.41583      0.020643           0.0
   8          1          0              1.50166        3.3037           0.0
   9          1          0              3.30041     -0.610253           0.0
  10          6          0              2.54513       1.41273           0.0
  11          1          0              3.53302       1.86614           0.0
  12          6          0              -1.3855      -0.31376           0.0
  13          8          0             -2.38275      0.379311           0.0
  14         16          0             -1.51874      -2.12918           0.0
  15          1          0             -2.86573      -2.09482           0.0
 ------------------------------------------------------------------------
 ! Dummy Rotational constant values and dummy SCF energy value...
 Rotational constants (GHZ):          11.4493930           9.4805599           5.3596246
 Standard basis: def2svp (5D, 7F)
 NAtoms=    15
 SCF Done:  E(RM062X) =  -919.9632512809238  A.U. after   14 cycles
 Mulliken charges:
               1
      1   C     0.231543
      2   C      0.74395
      3   C      0.31836
      4   H     0.813816
      5   H     0.229661
      6   C      0.91427
      7   C     0.905726
      8   H     0.501541
      9   H     0.873497
     10   C     0.339889
     11   H     0.750699
     12   C     0.654439
     13   O     0.114912
     14   S     0.291436
     15   H     0.933695
 Elapsed time: xx
 Normal termination of Gaussian 16 (fake executable) at 2026-06-09 16:49:51.590830.