 Entering Gaussian System, Link 0=/project/xlzhang/shared/bin/g16/g16
 Input=/users/s1155246976/scratch/6a_A_sp/6a_A_sp.com
 Output=/users/s1155246976/scratch/6a_A_sp/6a_A_sp.log
 Initial command:
 /project/xlzhang/shared/bin/g16/l1.exe "/ss02/scratch/s1/xlzhang/jingyi/6a_A_sp/Gau-2578725.inp" -scrdir="/ss02/scratch/s1/xlzhang/jingyi/6a_A_sp/"
 Entering Link 1 = /project/xlzhang/shared/bin/g16/l1.exe PID=   2578727.
  
 Copyright (c) 1988-2017, Gaussian, Inc.  All Rights Reserved.
  
 This is part of the Gaussian(R) 16 program.  It is based on
 the Gaussian(R) 09 system (copyright 2009, Gaussian, Inc.),
 the Gaussian(R) 03 system (copyright 2003, Gaussian, Inc.),
 the Gaussian(R) 98 system (copyright 1998, Gaussian, Inc.),
 the Gaussian(R) 94 system (copyright 1995, Gaussian, Inc.),
 the Gaussian 92(TM) system (copyright 1992, Gaussian, Inc.),
 the Gaussian 90(TM) system (copyright 1990, Gaussian, Inc.),
 the Gaussian 88(TM) system (copyright 1988, Gaussian, Inc.),
 the Gaussian 86(TM) system (copyright 1986, Carnegie Mellon
 University), and the Gaussian 82(TM) system (copyright 1983,
 Carnegie Mellon University). Gaussian is a federally registered
 trademark of Gaussian, Inc.
  
 This software contains proprietary and confidential information,
 including trade secrets, belonging to Gaussian, Inc.
  
 This software is provided under written license and may be
 used, copied, transmitted, or stored only in accord with that
 written license.
  
 The following legend is applicable only to US Government
 contracts under FAR:
  
                    RESTRICTED RIGHTS LEGEND
  
 Use, reproduction and disclosure by the US Government is
 subject to restrictions as set forth in subparagraphs (a)
 and (c) of the Commercial Computer Software - Restricted
 Rights clause in FAR 52.227-19.
  
 Gaussian, Inc.
 340 Quinnipiac St., Bldg. 40, Wallingford CT 06492
  
  
 ---------------------------------------------------------------
 Warning -- This program may not be used in any manner that
 competes with the business of Gaussian, Inc. or will provide
 assistance to any competitor of Gaussian, Inc.  The licensee
 of this program is prohibited from giving any competitor of
 Gaussian, Inc. access to this program.  By using this program,
 the user acknowledges that Gaussian, Inc. is engaged in the
 business of creating and licensing software in the field of
 computational chemistry and represents and warrants to the
 licensee that it is not a competitor of Gaussian, Inc. and that
 it will not use this program in any manner prohibited above.
 ---------------------------------------------------------------
  

 Cite this work as:
 Gaussian 16, Revision B.01,
 M. J. Frisch, G. W. Trucks, H. B. Schlegel, G. E. Scuseria, 
 M. A. Robb, J. R. Cheeseman, G. Scalmani, V. Barone, 
 G. A. Petersson, H. Nakatsuji, X. Li, M. Caricato, A. V. Marenich, 
 J. Bloino, B. G. Janesko, R. Gomperts, B. Mennucci, H. P. Hratchian, 
 J. V. Ortiz, A. F. Izmaylov, J. L. Sonnenberg, D. Williams-Young, 
 F. Ding, F. Lipparini, F. Egidi, J. Goings, B. Peng, A. Petrone, 
 T. Henderson, D. Ranasinghe, V. G. Zakrzewski, J. Gao, N. Rega, 
 G. Zheng, W. Liang, M. Hada, M. Ehara, K. Toyota, R. Fukuda, 
 J. Hasegawa, M. Ishida, T. Nakajima, Y. Honda, O. Kitao, H. Nakai, 
 T. Vreven, K. Throssell, J. A. Montgomery, Jr., J. E. Peralta, 
 F. Ogliaro, M. J. Bearpark, J. J. Heyd, E. N. Brothers, K. N. Kudin, 
 V. N. Staroverov, T. A. Keith, R. Kobayashi, J. Normand, 
 K. Raghavachari, A. P. Rendell, J. C. Burant, S. S. Iyengar, 
 J. Tomasi, M. Cossi, J. M. Millam, M. Klene, C. Adamo, R. Cammi, 
 J. W. Ochterski, R. L. Martin, K. Morokuma, O. Farkas, 
 J. B. Foresman, and D. J. Fox, Gaussian, Inc., Wallingford CT, 2016.
 
 ******************************************
 Gaussian 16:  ES64L-G16RevB.01 20-Dec-2017
                24-Mar-2026 
 ******************************************
 %chk=6a_A_sp.chk
 %nprocshared=32
 Will use up to   32 processors via shared memory.
 %mem=90GB
 -------------------------------------------------
 # mn15 def2svp scrf=(smd,solvent=TetraHydroFuran)
 -------------------------------------------------
 1/38=1,172=1/1;
 2/12=2,17=6,18=5,40=1/2;
 3/5=43,7=101,11=2,25=1,30=1,70=32201,72=20,74=-73/1,2,3;
 4//1;
 5/5=2,38=5,53=20/2;
 6/7=2,8=2,9=2,10=2,28=1/1;
 99/5=1,9=1/99;
 ----------------------------
 Gaussian pKa calculation job
 ----------------------------
 Symbolic Z-matrix:
 Charge = -1 Multiplicity = 1
 O                     1.42838  -0.00501   1.28795 
 O                     2.16264   0.00159  -0.86489 
 C                     1.32775  -0.00128   0.05718 
 C                    -0.15423   0.00047  -0.50154 
 H                    -0.15388   0.00156  -1.5959 
 Cl                   -1.04605   1.46011   0.02714 
 Cl                   -1.04898  -1.45831   0.02448 
 
                          Input orientation:                          
 ---------------------------------------------------------------------
 Center     Atomic      Atomic             Coordinates (Angstroms)
 Number     Number       Type             X           Y           Z
 ---------------------------------------------------------------------
      1          8           0        1.428376   -0.005010    1.287949
      2          8           0        2.162643    0.001592   -0.864885
      3          6           0        1.327754   -0.001280    0.057183
      4          6           0       -0.154234    0.000474   -0.501540
      5          1           0       -0.153878    0.001564   -1.595900
      6         17           0       -1.046047    1.460112    0.027144
      7         17           0       -1.048976   -1.458311    0.024475
 ---------------------------------------------------------------------
                    Distance matrix (angstroms):
                    1          2          3          4          5
     1  O    0.000000
     2  O    2.274618   0.000000
     3  C    1.234878   1.243888   0.000000
     4  C    2.388923   2.345195   1.583813   0.000000
     5  H    3.289401   2.429126   2.219893   1.094361   0.000000
     6  Cl   3.139901   3.635751   2.787741   1.790358   2.357456
     7  Cl   3.137790   3.638238   2.787984   1.790338   2.357552
                    6          7
     6  Cl   0.000000
     7  Cl   2.918426   0.000000
 Stoichiometry    C2HCl2O2(1-)
 Framework group  C1[X(C2HCl2O2)]
 Deg. of freedom    15
 Full point group                 C1      NOp   1
 Largest Abelian subgroup         C1      NOp   1
 Largest concise Abelian subgroup C1      NOp   1
                         Standard orientation:                         
 ---------------------------------------------------------------------
 Center     Atomic      Atomic             Coordinates (Angstroms)
 Number     Number       Type             X           Y           Z
 ---------------------------------------------------------------------
      1          8           0        1.428376   -0.005010    1.287949
      2          8           0        2.162643    0.001592   -0.864885
      3          6           0        1.327754   -0.001280    0.057183
      4          6           0       -0.154234    0.000474   -0.501540
      5          1           0       -0.153878    0.001564   -1.595900
      6         17           0       -1.046047    1.460112    0.027144
      7         17           0       -1.048976   -1.458311    0.024475
 ---------------------------------------------------------------------
 Rotational constants (GHZ):           2.6176517           2.0233980           1.4254532
 Standard basis: def2SVP (5D, 7F)
 There are   103 symmetry adapted cartesian basis functions of A   symmetry.
 There are    97 symmetry adapted basis functions of A   symmetry.
    97 basis functions,   181 primitive gaussians,   103 cartesian basis functions
    32 alpha electrons       32 beta electrons
       nuclear repulsion energy       341.2168116015 Hartrees.
 NAtoms=    7 NActive=    7 NUniq=    7 SFac= 1.00D+00 NAtFMM=   60 NAOKFM=F Big=F
 Integral buffers will be    131072 words long.
 Raffenetti 2 integral format.
 Two-electron integral symmetry is turned on.
 ------------------------------------------------------------------------------
 Polarizable Continuum Model (PCM)
 =================================
 Model                : PCM.
 Atomic radii         : SMD-Coulomb.
 Polarization charges : Total charges.
 Charge compensation  : None.
 Solution method      : On-the-fly selection.
 Cavity type          : VdW (van der Waals Surface) (Alpha=1.000).
 Cavity algorithm     : GePol (No added spheres)
                        Default sphere list used, NSphG=    7.
                        Lebedev-Laikov grids with approx.  5.0 points / Ang**2.
                        Smoothing algorithm: York/Karplus (Gamma=1.0000).
                        Polarization charges: spherical gaussians, with
                                              point-specific exponents (IZeta= 3).
                        Self-potential: point-specific (ISelfS= 7).
                        Self-field    : sphere-specific E.n sum rule (ISelfD= 2).
 Solvent              : TetraHydroFuran, Eps=   7.425700 Eps(inf)=   1.974025
 ------------------------------------------------------------------------------
 Spheres list:
 ISph  on   Nord     Re0    Alpha      Xe            Ye            Ze
    1   O      1    2.2940  1.000      1.428376     -0.005010      1.287949
    2   O      2    2.2940  1.000      2.162643      0.001592     -0.864885
    3   C      3    1.8500  1.000      1.327754     -0.001280      0.057183
    4   C      4    1.8500  1.000     -0.154234      0.000474     -0.501540
    5   H      5    1.2000  1.000     -0.153878      0.001564     -1.595900
    6  Cl      6    2.3800  1.000     -1.046047      1.460112      0.027144
    7  Cl      7    2.3800  1.000     -1.048976     -1.458311      0.024475
 ------------------------------------------------------------------------------
 ------------------------------------------------------------------------------
 Atomic radii for non-electrostatic terms: SMD-CDS.
 ------------------------------------------------------------------------------
 Nuclear repulsion after PCM non-electrostatic terms =      341.2115048760 Hartrees.
 One-electron integrals computed using PRISM.
   1 Symmetry operations used in ECPInt.
 ECPInt:  NShTT=     946 NPrTT=    4106 LenC2=     927 LenP2D=    3105.
 LDataN:  DoStor=T MaxTD1= 4 Len=   56
 NBasis=    97 RedAO= T EigKep=  4.19D-03  NBF=    97
 NBsUse=    97 1.00D-06 EigRej= -1.00D+00 NBFU=    97
 ExpMin= 1.22D-01 ExpMax= 1.04D+04 ExpMxC= 1.57D+03 IAcc=3 IRadAn=         5 AccDes= 0.00D+00
 Harris functional with IExCor= 1009 and IRadAn=       5 diagonalized for initial guess.
 HarFok:  IExCor= 1009 AccDes= 0.00D+00 IRadAn=         5 IDoV= 1 UseB2=F ITyADJ=14
 ICtDFT=  3500011 ScaDFX=  1.000000  1.000000  1.000000  1.000000
 FoFCou: FMM=F IPFlag=           0 FMFlag=      100000 FMFlg1=           0
         NFxFlg=           0 DoJE=T BraDBF=F KetDBF=T FulRan=T
         wScrn=  0.000000 ICntrl=       500 IOpCl=  0 I1Cent=   200000004 NGrid=           0
         NMat0=    1 NMatS0=      1 NMatT0=    0 NMatD0=    1 NMtDS0=    0 NMtDT0=    0
 Petite list used in FoFCou.
 Keep R1 ints in memory in canonical form, NReq=40979720.
 Requested convergence on RMS density matrix=1.00D-08 within 128 cycles.
 Requested convergence on MAX density matrix=1.00D-06.
 Requested convergence on             energy=1.00D-06.
 No special actions if energy rises.
 Inv3:  Mode=1 IEnd=     4064688.
 Iteration    1 A*A^-1 deviation from unit magnitude is 2.66D-15 for     99.
 Iteration    1 A*A^-1 deviation from orthogonality  is 1.21D-15 for   1138      2.
 Iteration    1 A^-1*A deviation from unit magnitude is 2.33D-15 for    570.
 Iteration    1 A^-1*A deviation from orthogonality  is 1.40D-15 for   1162   1161.
 Error on total polarization charges =  0.00020
 SCF Done:  E(RMN15) =  -1146.81579303     A.U. after   13 cycles
            NFock= 13  Conv=0.28D-08     -V/T= 2.0033
 SMD-CDS (non-electrostatic) energy       (kcal/mol) =      -3.33
 (included in total energy above)

 **********************************************************************

            Population analysis using the SCF Density.

 **********************************************************************

 Orbital symmetries:
       Occupied  (A) (A) (A) (A) (A) (A) (A) (A) (A) (A) (A) (A)
                 (A) (A) (A) (A) (A) (A) (A) (A) (A) (A) (A) (A)
                 (A) (A) (A) (A) (A) (A) (A) (A)
       Virtual   (A) (A) (A) (A) (A) (A) (A) (A) (A) (A) (A) (A)
                 (A) (A) (A) (A) (A) (A) (A) (A) (A) (A) (A) (A)
                 (A) (A) (A) (A) (A) (A) (A) (A) (A) (A) (A) (A)
                 (A) (A) (A) (A) (A) (A) (A) (A) (A) (A) (A) (A)
                 (A) (A) (A) (A) (A) (A) (A) (A) (A) (A) (A) (A)
                 (A) (A) (A) (A) (A)
 The electronic state is 1-A.
 Alpha  occ. eigenvalues -- -100.28522-100.28517 -18.69669 -18.69358 -10.10396
 Alpha  occ. eigenvalues --  -10.08831  -9.13356  -9.13345  -7.16163  -7.16159
 Alpha  occ. eigenvalues --   -7.14729  -7.14725  -7.14655  -7.14652  -0.99923
 Alpha  occ. eigenvalues --   -0.91221  -0.88005  -0.80434  -0.64465  -0.50722
 Alpha  occ. eigenvalues --   -0.45839  -0.44591  -0.42374  -0.38464  -0.37744
 Alpha  occ. eigenvalues --   -0.33891  -0.31968  -0.30637  -0.30249  -0.23234
 Alpha  occ. eigenvalues --   -0.22650  -0.22018
 Alpha virt. eigenvalues --    0.09571   0.10119   0.17664   0.20620   0.26345
 Alpha virt. eigenvalues --    0.35468   0.43589   0.51029   0.52144   0.55114
 Alpha virt. eigenvalues --    0.57155   0.60234   0.65884   0.66511   0.67138
 Alpha virt. eigenvalues --    0.71090   0.77604   0.79262   0.82019   0.82420
 Alpha virt. eigenvalues --    0.83230   0.84017   0.85539   0.86691   0.87149
 Alpha virt. eigenvalues --    0.88209   0.89772   0.93128   0.96799   0.97646
 Alpha virt. eigenvalues --    1.00574   1.06438   1.11544   1.13016   1.18443
 Alpha virt. eigenvalues --    1.23047   1.25122   1.30871   1.33220   1.40921
 Alpha virt. eigenvalues --    1.41894   1.57265   1.62322   1.69061   1.77987
 Alpha virt. eigenvalues --    1.83435   1.91836   1.96053   2.01646   2.15662
 Alpha virt. eigenvalues --    2.18356   2.23279   2.27811   2.40450   2.73794
 Alpha virt. eigenvalues --    2.75485   2.77569   2.82263   2.84847   3.03328
 Alpha virt. eigenvalues --    3.25403   3.34172   3.38334   3.62379   3.75768
          Condensed to atoms (all electrons):
               1          2          3          4          5          6
     1  O    7.929025  -0.079222   0.673871  -0.158385   0.006208   0.004041
     2  O   -0.079222   7.955091   0.653133  -0.155116   0.023328   0.001069
     3  C    0.673871   0.653133   4.541042   0.089927  -0.001523  -0.017874
     4  C   -0.158385  -0.155116   0.089927   5.553913   0.325566   0.188124
     5  H    0.006208   0.023328  -0.001523   0.325566   0.619186  -0.023136
     6  Cl   0.004041   0.001069  -0.017874   0.188124  -0.023136  17.072768
     7  Cl   0.004084   0.001079  -0.017886   0.187881  -0.023129  -0.054015
               7
     1  O    0.004084
     2  O    0.001079
     3  C   -0.017886
     4  C    0.187881
     5  H   -0.023129
     6  Cl  -0.054015
     7  Cl  17.072928
 Mulliken charges:
               1
     1  O   -0.379621
     2  O   -0.399361
     3  C    0.079311
     4  C   -0.031910
     5  H    0.073499
     6  Cl  -0.170976
     7  Cl  -0.170942
 Sum of Mulliken charges =  -1.00000
 Mulliken charges with hydrogens summed into heavy atoms:
               1
     1  O   -0.379621
     2  O   -0.399361
     3  C    0.079311
     4  C    0.041589
     6  Cl  -0.170976
     7  Cl  -0.170942
 Electronic spatial extent (au):  <R**2>=            832.7544
 Charge=             -1.0000 electrons
 Dipole moment (field-independent basis, Debye):
    X=             -6.0195    Y=              0.0069    Z=             -1.9428  Tot=              6.3253
 Quadrupole moment (field-independent basis, Debye-Ang):
   XX=            -66.4781   YY=            -50.6424   ZZ=            -54.1404
   XY=              0.0053   XZ=              0.2129   YZ=              0.0219
 Traceless Quadrupole moment (field-independent basis, Debye-Ang):
   XX=             -9.3911   YY=              6.4446   ZZ=              2.9466
   XY=              0.0053   XZ=              0.2129   YZ=              0.0219
 Octapole moment (field-independent basis, Debye-Ang**2):
  XXX=            -34.6772  YYY=             -0.0086  ZZZ=             -5.6193  XYY=              1.9641
  XXY=              0.0051  XXZ=              5.8594  XZZ=            -13.1284  YZZ=              0.0275
  YYZ=              1.9075  XYZ=              0.0434
 Hexadecapole moment (field-independent basis, Debye-Ang**3):
 XXXX=           -576.9384 YYYY=           -357.8792 ZZZZ=           -154.2077 XXXY=             -0.0011
 XXXZ=             13.3239 YYYX=              0.0061 YYYZ=              0.0126 ZZZX=             -5.0256
 ZZZY=              0.0329 XXYY=           -140.7868 XXZZ=           -129.9726 YYZZ=            -85.3281
 XXYZ=              0.0629 YYXZ=             -3.0274 ZZXY=              0.0241
 N-N= 3.412115048760D+02 E-N=-3.416877687359D+03  KE= 1.143086098429D+03
 1\1\GINC-CHPC-CN071\SP\RMN15\def2SVP\C2H1Cl2O2(1-)\S1155246976\24-Mar-
 2026\0\\# mn15 def2svp scrf=(smd,solvent=TetraHydroFuran)\\Gaussian pK
 a calculation job\\-1,1\O,0,1.428376,-0.00501,1.287949\O,0,2.162643,0.
 001592,-0.864885\C,0,1.327754,-0.00128,0.057183\C,0,-0.154234,0.000474
 ,-0.50154\H,0,-0.153878,0.001564,-1.5959\Cl,0,-1.046047,1.460112,0.027
 144\Cl,0,-1.048976,-1.458311,0.024475\\Version=ES64L-G16RevB.01\State=
 1-A\HF=-1146.815793\RMSD=2.769e-09\Dipole=-2.3682696,0.002702,-0.76435
 28\Quadrupole=-6.9820704,4.7913792,2.1906912,0.0039179,0.158264,0.0163
 135\PG=C01 [X(C2H1Cl2O2)]\\@


 A HARD FALL SHOULD MEAN A HIGH BOUNCE 
 IF ONE IS MADE OF THE RIGHT MATERIAL.

                -- THE CHEMIST ANALYST, MARCH 1950
 Job cpu time:       0 days  0 hours  2 minutes 22.5 seconds.
 Elapsed time:       0 days  0 hours  0 minutes  5.3 seconds.
 File lengths (MBytes):  RWF=     43 Int=      0 D2E=      0 Chk=      3 Scr=      2
 Normal termination of Gaussian 16 at Tue Mar 24 17:58:22 2026.
