 Entering Gaussian System, FakeGaussianRunner
 Input=/Users/taipanlan/Desktop/chemsmart/6a_A_sp.com
 Output=/Users/taipanlan/Desktop/chemsmart/6a_A_sp.log
 ******************************************
 Fake Gaussian Executable
 ******************************************
 %chk=6a_A_sp.chk
 %nprocshared=12
 %mem=40GB
 -------------------------------------------------
 # m062x def2svp scrf=(smd,solvent=dichloroethane)
 -------------------------------------------------
 -------------------------------------------------
 Gaussian pKa calculation job
 -------------------------------------------------
 Symbolic Z-matrix:
 Charge =  -1 Multiplicity = 1
 O        1.4036200000   -0.0037170000    1.2206200000
 O        2.1213300000    0.0010040000   -0.9246540000
 C        1.2289500000   -0.0007980000   -0.1080620000
 C       -0.2427040000    0.0003040000   -0.5227030000
 H       -0.2845400000    0.0011580000   -1.6086500000
 Cl      -1.0632200000    1.4917900000    0.0489310000
 Cl      -1.0659800000   -1.4901800000    0.0469510000

                          Input orientation:                             
 ------------------------------------------------------------------------
 Center     Atomic      Atomic             Coordinates (Angstroms)       
 Number     Number       Type             X           Y           Z      
 ------------------------------------------------------------------------
   1          8          0              1.40362     -0.003717       1.22062
   2          8          0              2.12133      0.001004     -0.924654
   3          6          0              1.22895     -0.000798     -0.108062
   4          6          0            -0.242704      0.000304     -0.522703
   5          1          0             -0.28454      0.001158      -1.60865
   6         17          0             -1.06322       1.49179      0.048931
   7         17          0             -1.06598      -1.49018      0.046951
 ------------------------------------------------------------------------
 Stoichiometry    C2HCl2O2                       Standard orientation:                             
 ------------------------------------------------------------------------
 Center     Atomic      Atomic             Coordinates (Angstroms)       
 Number     Number       Type             X           Y           Z      
 ------------------------------------------------------------------------
   1          8          0              1.40362     -0.003717       1.22062
   2          8          0              2.12133      0.001004     -0.924654
   3          6          0              1.22895     -0.000798     -0.108062
   4          6          0            -0.242704      0.000304     -0.522703
   5          1          0             -0.28454      0.001158      -1.60865
   6         17          0             -1.06322       1.49179      0.048931
   7         17          0             -1.06598      -1.49018      0.046951
 ------------------------------------------------------------------------
 ! Dummy Rotational constant values and dummy SCF energy value...
 Rotational constants (GHZ):          11.4493930           9.4805599           5.3596246
 Standard basis: def2svp (5D, 7F)
 NAtoms=    7
 SCF Done:  E(RM062X) =  -624.2879119717076  A.U. after   14 cycles
 Mulliken charges:
               1
      1   O     0.326032
      2   O     0.847609
      3   C     0.423412
      4   C     0.507482
      5   H     0.995742
      6  Cl    0.0927791
      7  Cl     0.588757
 Elapsed time: xx
 Normal termination of Gaussian 16 (fake executable) at 2026-05-16 12:43:29.172019.