 Entering Gaussian System, FakeGaussianRunner
 Input=/Users/taipanlan/Desktop/chemsmart/6a_HA_opt.com
 Output=/Users/taipanlan/Desktop/chemsmart/6a_HA_opt.log
 ******************************************
 Fake Gaussian Executable
 ******************************************
 %chk=6a_HA_opt.chk
 %nprocshared=12
 %mem=40GB
 ------------------------
 # opt freq m062x def2svp
 ------------------------
 ------------------------
 Gaussian pKa calculation job
 ------------------------
 Symbolic Z-matrix:
 Charge =  0 Multiplicity = 1
 H        2.3637960000   -0.0039250000    1.3955790000
 O        1.4036250000   -0.0037170000    1.2206150000
 O        2.1213330000    0.0010040000   -0.9246540000
 C        1.2289510000   -0.0007980000   -0.1080620000
 C       -0.2427040000    0.0003040000   -0.5227030000
 H       -0.2845400000    0.0011580000   -1.6086530000
 Cl      -1.0632220000    1.4917900000    0.0489310000
 Cl      -1.0659780000   -1.4901760000    0.0469510000

                          Input orientation:                             
 ------------------------------------------------------------------------
 Center     Atomic      Atomic             Coordinates (Angstroms)       
 Number     Number       Type             X           Y           Z      
 ------------------------------------------------------------------------
   1          1          0               2.3638     -0.003925       1.39558
   2          8          0              1.40362     -0.003717       1.22062
   3          8          0              2.12133      0.001004     -0.924654
   4          6          0              1.22895     -0.000798     -0.108062
   5          6          0            -0.242704      0.000304     -0.522703
   6          1          0             -0.28454      0.001158      -1.60865
   7         17          0             -1.06322       1.49179      0.048931
   8         17          0             -1.06598      -1.49018      0.046951
 ------------------------------------------------------------------------
 Stoichiometry    CHClO                       Standard orientation:                             
 ------------------------------------------------------------------------
 Center     Atomic      Atomic             Coordinates (Angstroms)       
 Number     Number       Type             X           Y           Z      
 ------------------------------------------------------------------------
   1          1          0               2.3638     -0.003925       1.39558
   2          8          0              1.40362     -0.003717       1.22062
   3          8          0              2.12133      0.001004     -0.924654
   4          6          0              1.22895     -0.000798     -0.108062
   5          6          0            -0.242704      0.000304     -0.522703
   6          1          0             -0.28454      0.001158      -1.60865
   7         17          0             -1.06322       1.49179      0.048931
   8         17          0             -1.06598      -1.49018      0.046951
 ------------------------------------------------------------------------
 ! Dummy Rotational constant values and dummy SCF energy value...
 Rotational constants (GHZ):          11.4493930           9.4805599           5.3596246
 Standard basis: def2svp (5D, 7F)
 NAtoms=    8
 SCF Done:  E(RM062X) =  -843.2145769187202  A.U. after   14 cycles
 Mulliken charges:
               1
      1   H    0.0310775
      2   O     0.600647
      3   O      0.14845
      4   C     0.951599
      5   C     0.200812
      6   H     0.507218
      7  Cl     0.673039
      8  Cl      0.23037
 Elapsed time: xx
 Normal termination of Gaussian 16 (fake executable) at 2026-05-16 12:43:18.709400.