 Entering Gaussian System, Link 0=/project/xlzhang/shared/bin/g16/g16
 Input=/users/s1155246976/scratch/6a_HA_sp/6a_HA_sp.com
 Output=/users/s1155246976/scratch/6a_HA_sp/6a_HA_sp.log
 Initial command:
 /project/xlzhang/shared/bin/g16/l1.exe "/ss02/scratch/s1/xlzhang/jingyi/6a_HA_sp/Gau-2578724.inp" -scrdir="/ss02/scratch/s1/xlzhang/jingyi/6a_HA_sp/"
 Entering Link 1 = /project/xlzhang/shared/bin/g16/l1.exe PID=   2578726.
  
 Copyright (c) 1988-2017, Gaussian, Inc.  All Rights Reserved.
  
 This is part of the Gaussian(R) 16 program.  It is based on
 the Gaussian(R) 09 system (copyright 2009, Gaussian, Inc.),
 the Gaussian(R) 03 system (copyright 2003, Gaussian, Inc.),
 the Gaussian(R) 98 system (copyright 1998, Gaussian, Inc.),
 the Gaussian(R) 94 system (copyright 1995, Gaussian, Inc.),
 the Gaussian 92(TM) system (copyright 1992, Gaussian, Inc.),
 the Gaussian 90(TM) system (copyright 1990, Gaussian, Inc.),
 the Gaussian 88(TM) system (copyright 1988, Gaussian, Inc.),
 the Gaussian 86(TM) system (copyright 1986, Carnegie Mellon
 University), and the Gaussian 82(TM) system (copyright 1983,
 Carnegie Mellon University). Gaussian is a federally registered
 trademark of Gaussian, Inc.
  
 This software contains proprietary and confidential information,
 including trade secrets, belonging to Gaussian, Inc.
  
 This software is provided under written license and may be
 used, copied, transmitted, or stored only in accord with that
 written license.
  
 The following legend is applicable only to US Government
 contracts under FAR:
  
                    RESTRICTED RIGHTS LEGEND
  
 Use, reproduction and disclosure by the US Government is
 subject to restrictions as set forth in subparagraphs (a)
 and (c) of the Commercial Computer Software - Restricted
 Rights clause in FAR 52.227-19.
  
 Gaussian, Inc.
 340 Quinnipiac St., Bldg. 40, Wallingford CT 06492
  
  
 ---------------------------------------------------------------
 Warning -- This program may not be used in any manner that
 competes with the business of Gaussian, Inc. or will provide
 assistance to any competitor of Gaussian, Inc.  The licensee
 of this program is prohibited from giving any competitor of
 Gaussian, Inc. access to this program.  By using this program,
 the user acknowledges that Gaussian, Inc. is engaged in the
 business of creating and licensing software in the field of
 computational chemistry and represents and warrants to the
 licensee that it is not a competitor of Gaussian, Inc. and that
 it will not use this program in any manner prohibited above.
 ---------------------------------------------------------------
  

 Cite this work as:
 Gaussian 16, Revision B.01,
 M. J. Frisch, G. W. Trucks, H. B. Schlegel, G. E. Scuseria, 
 M. A. Robb, J. R. Cheeseman, G. Scalmani, V. Barone, 
 G. A. Petersson, H. Nakatsuji, X. Li, M. Caricato, A. V. Marenich, 
 J. Bloino, B. G. Janesko, R. Gomperts, B. Mennucci, H. P. Hratchian, 
 J. V. Ortiz, A. F. Izmaylov, J. L. Sonnenberg, D. Williams-Young, 
 F. Ding, F. Lipparini, F. Egidi, J. Goings, B. Peng, A. Petrone, 
 T. Henderson, D. Ranasinghe, V. G. Zakrzewski, J. Gao, N. Rega, 
 G. Zheng, W. Liang, M. Hada, M. Ehara, K. Toyota, R. Fukuda, 
 J. Hasegawa, M. Ishida, T. Nakajima, Y. Honda, O. Kitao, H. Nakai, 
 T. Vreven, K. Throssell, J. A. Montgomery, Jr., J. E. Peralta, 
 F. Ogliaro, M. J. Bearpark, J. J. Heyd, E. N. Brothers, K. N. Kudin, 
 V. N. Staroverov, T. A. Keith, R. Kobayashi, J. Normand, 
 K. Raghavachari, A. P. Rendell, J. C. Burant, S. S. Iyengar, 
 J. Tomasi, M. Cossi, J. M. Millam, M. Klene, C. Adamo, R. Cammi, 
 J. W. Ochterski, R. L. Martin, K. Morokuma, O. Farkas, 
 J. B. Foresman, and D. J. Fox, Gaussian, Inc., Wallingford CT, 2016.
 
 ******************************************
 Gaussian 16:  ES64L-G16RevB.01 20-Dec-2017
                24-Mar-2026 
 ******************************************
 %chk=6a_HA_sp.chk
 %nprocshared=32
 Will use up to   32 processors via shared memory.
 %mem=90GB
 -------------------------------------------------
 # mn15 def2svp scrf=(smd,solvent=TetraHydroFuran)
 -------------------------------------------------
 1/38=1,172=1/1;
 2/12=2,17=6,18=5,40=1/2;
 3/5=43,7=101,11=2,25=1,30=1,70=32201,72=20,74=-73/1,2,3;
 4//1;
 5/5=2,38=5,53=20/2;
 6/7=2,8=2,9=2,10=2,28=1/1;
 99/5=1,9=1/99;
 ----------------------------
 Gaussian pKa calculation job
 ----------------------------
 Symbolic Z-matrix:
 Charge =  0 Multiplicity = 1
 H                     2.29769  -0.0008    1.417 
 O                     1.34605  -0.00068   1.21327 
 O                     2.1175   -0.00043  -0.89545 
 C                     1.20872  -0.00059  -0.10878 
 C                    -0.25114   0.00002  -0.53961 
 H                    -0.27921   0.00011  -1.63367 
 Cl                   -1.04261   1.46428   0.04609 
 Cl                   -1.044    -1.46352   0.04594 
 
                          Input orientation:                          
 ---------------------------------------------------------------------
 Center     Atomic      Atomic             Coordinates (Angstroms)
 Number     Number       Type             X           Y           Z
 ---------------------------------------------------------------------
      1          1           0        2.297693   -0.000795    1.416996
      2          8           0        1.346052   -0.000681    1.213266
      3          8           0        2.117500   -0.000433   -0.895449
      4          6           0        1.208715   -0.000586   -0.108776
      5          6           0       -0.251135    0.000015   -0.539613
      6          1           0       -0.279211    0.000108   -1.633665
      7         17           0       -1.042614    1.464283    0.046092
      8         17           0       -1.043996   -1.463517    0.045936
 ---------------------------------------------------------------------
                    Distance matrix (angstroms):
                    1          2          3          4          5
     1  H    0.000000
     2  O    0.973204   0.000000
     3  O    2.319455   2.245398   0.000000
     4  C    1.874527   1.329156   1.201975   0.000000
     5  C    3.213229   2.371411   2.395214   1.522098   0.000000
     6  H    3.993365   3.278185   2.507825   2.130542   1.094412
     7  Cl   3.896599   3.035480   3.608076   2.690410   1.764531
     8  Cl   3.896953   3.035602   3.608584   2.690504   1.764489
                    6          7          8
     6  H    0.000000
     7  Cl   2.355457   0.000000
     8  Cl   2.355452   2.927800   0.000000
 Stoichiometry    C2H2Cl2O2
 Framework group  C1[X(C2H2Cl2O2)]
 Deg. of freedom    18
 Full point group                 C1      NOp   1
 Largest Abelian subgroup         C1      NOp   1
 Largest concise Abelian subgroup C1      NOp   1
                         Standard orientation:                         
 ---------------------------------------------------------------------
 Center     Atomic      Atomic             Coordinates (Angstroms)
 Number     Number       Type             X           Y           Z
 ---------------------------------------------------------------------
      1          1           0        2.297693   -0.000796    1.416996
      2          8           0        1.346052   -0.000681    1.213266
      3          8           0        2.117500   -0.000434   -0.895449
      4          6           0        1.208715   -0.000586   -0.108776
      5          6           0       -0.251135    0.000015   -0.539613
      6          1           0       -0.279211    0.000108   -1.633665
      7         17           0       -1.042614    1.464283    0.046092
      8         17           0       -1.043997   -1.463517    0.045936
 ---------------------------------------------------------------------
 Rotational constants (GHZ):           2.5963146           2.0606528           1.4424854
 Standard basis: def2SVP (5D, 7F)
 There are   108 symmetry adapted cartesian basis functions of A   symmetry.
 There are   102 symmetry adapted basis functions of A   symmetry.
   102 basis functions,   188 primitive gaussians,   108 cartesian basis functions
    32 alpha electrons       32 beta electrons
       nuclear repulsion energy       358.6185739291 Hartrees.
 NAtoms=    8 NActive=    8 NUniq=    8 SFac= 1.00D+00 NAtFMM=   60 NAOKFM=F Big=F
 Integral buffers will be    131072 words long.
 Raffenetti 2 integral format.
 Two-electron integral symmetry is turned on.
 ------------------------------------------------------------------------------
 Polarizable Continuum Model (PCM)
 =================================
 Model                : PCM.
 Atomic radii         : SMD-Coulomb.
 Polarization charges : Total charges.
 Charge compensation  : None.
 Solution method      : On-the-fly selection.
 Cavity type          : VdW (van der Waals Surface) (Alpha=1.000).
 Cavity algorithm     : GePol (No added spheres)
                        Default sphere list used, NSphG=    8.
                        Lebedev-Laikov grids with approx.  5.0 points / Ang**2.
                        Smoothing algorithm: York/Karplus (Gamma=1.0000).
                        Polarization charges: spherical gaussians, with
                                              point-specific exponents (IZeta= 3).
                        Self-potential: point-specific (ISelfS= 7).
                        Self-field    : sphere-specific E.n sum rule (ISelfD= 2).
 Solvent              : TetraHydroFuran, Eps=   7.425700 Eps(inf)=   1.974025
 ------------------------------------------------------------------------------
 Spheres list:
 ISph  on   Nord     Re0    Alpha      Xe            Ye            Ze
    1   H      1    1.2000  1.000      2.297693     -0.000796      1.416996
    2   O      2    2.2940  1.000      1.346052     -0.000681      1.213266
    3   O      3    2.2940  1.000      2.117500     -0.000434     -0.895449
    4   C      4    1.8500  1.000      1.208715     -0.000586     -0.108776
    5   C      5    1.8500  1.000     -0.251135      0.000015     -0.539613
    6   H      6    1.2000  1.000     -0.279211      0.000108     -1.633665
    7  Cl      7    2.3800  1.000     -1.042614      1.464283      0.046092
    8  Cl      8    2.3800  1.000     -1.043997     -1.463517      0.045936
 ------------------------------------------------------------------------------
 ------------------------------------------------------------------------------
 Atomic radii for non-electrostatic terms: SMD-CDS.
 ------------------------------------------------------------------------------
 Nuclear repulsion after PCM non-electrostatic terms =      358.6136968583 Hartrees.
 One-electron integrals computed using PRISM.
   1 Symmetry operations used in ECPInt.
 ECPInt:  NShTT=    1081 NPrTT=    4569 LenC2=    1064 LenP2D=    3495.
 LDataN:  DoStor=T MaxTD1= 4 Len=   56
 NBasis=   102 RedAO= T EigKep=  2.99D-03  NBF=   102
 NBsUse=   102 1.00D-06 EigRej= -1.00D+00 NBFU=   102
 ExpMin= 1.22D-01 ExpMax= 1.04D+04 ExpMxC= 1.57D+03 IAcc=3 IRadAn=         5 AccDes= 0.00D+00
 Harris functional with IExCor= 1009 and IRadAn=       5 diagonalized for initial guess.
 HarFok:  IExCor= 1009 AccDes= 0.00D+00 IRadAn=         5 IDoV= 1 UseB2=F ITyADJ=14
 ICtDFT=  3500011 ScaDFX=  1.000000  1.000000  1.000000  1.000000
 FoFCou: FMM=F IPFlag=           0 FMFlag=      100000 FMFlg1=           0
         NFxFlg=           0 DoJE=T BraDBF=F KetDBF=T FulRan=T
         wScrn=  0.000000 ICntrl=       500 IOpCl=  0 I1Cent=   200000004 NGrid=           0
         NMat0=    1 NMatS0=      1 NMatT0=    0 NMatD0=    1 NMtDS0=    0 NMtDT0=    0
 Petite list used in FoFCou.
 Keep R1 ints in memory in canonical form, NReq=43741779.
 Requested convergence on RMS density matrix=1.00D-08 within 128 cycles.
 Requested convergence on MAX density matrix=1.00D-06.
 Requested convergence on             energy=1.00D-06.
 No special actions if energy rises.
 Inv3:  Mode=1 IEnd=     3988227.
 Iteration    1 A*A^-1 deviation from unit magnitude is 3.11D-15 for     95.
 Iteration    1 A*A^-1 deviation from orthogonality  is 1.84D-15 for   1150    898.
 Iteration    1 A^-1*A deviation from unit magnitude is 3.11D-15 for     95.
 Iteration    1 A^-1*A deviation from orthogonality  is 1.65D-15 for   1148   1006.
 Error on total polarization charges =  0.00210
 SCF Done:  E(RMN15) =  -1147.30311934     A.U. after   12 cycles
            NFock= 12  Conv=0.72D-08     -V/T= 2.0033
 SMD-CDS (non-electrostatic) energy       (kcal/mol) =      -3.06
 (included in total energy above)

 **********************************************************************

            Population analysis using the SCF Density.

 **********************************************************************

 Orbital symmetries:
       Occupied  (A) (A) (A) (A) (A) (A) (A) (A) (A) (A) (A) (A)
                 (A) (A) (A) (A) (A) (A) (A) (A) (A) (A) (A) (A)
                 (A) (A) (A) (A) (A) (A) (A) (A)
       Virtual   (A) (A) (A) (A) (A) (A) (A) (A) (A) (A) (A) (A)
                 (A) (A) (A) (A) (A) (A) (A) (A) (A) (A) (A) (A)
                 (A) (A) (A) (A) (A) (A) (A) (A) (A) (A) (A) (A)
                 (A) (A) (A) (A) (A) (A) (A) (A) (A) (A) (A) (A)
                 (A) (A) (A) (A) (A) (A) (A) (A) (A) (A) (A) (A)
                 (A) (A) (A) (A) (A) (A) (A) (A) (A) (A)
 The electronic state is 1-A.
 Alpha  occ. eigenvalues -- -100.33966-100.33962 -18.87781 -18.82853 -10.21168
 Alpha  occ. eigenvalues --  -10.17673  -9.18824  -9.18815  -7.21714  -7.21712
 Alpha  occ. eigenvalues --   -7.20141  -7.20140  -7.20059  -7.20059  -1.16147
 Alpha  occ. eigenvalues --   -1.06663  -0.95364  -0.86334  -0.75082  -0.66614
 Alpha  occ. eigenvalues --   -0.56022  -0.54717  -0.53834  -0.51156  -0.47633
 Alpha  occ. eigenvalues --   -0.46482  -0.39279  -0.38815  -0.36875  -0.36037
 Alpha  occ. eigenvalues --   -0.35354  -0.33330
 Alpha virt. eigenvalues --   -0.00062   0.04955   0.10902   0.12095   0.14364
 Alpha virt. eigenvalues --    0.20101   0.28616   0.34120   0.43397   0.44491
 Alpha virt. eigenvalues --    0.47484   0.49674   0.50549   0.54527   0.59633
 Alpha virt. eigenvalues --    0.60862   0.63657   0.66103   0.68189   0.73317
 Alpha virt. eigenvalues --    0.76689   0.77206   0.78782   0.79324   0.80266
 Alpha virt. eigenvalues --    0.81058   0.82100   0.83406   0.84671   0.87442
 Alpha virt. eigenvalues --    0.90929   0.90966   0.98824   1.00017   1.02491
 Alpha virt. eigenvalues --    1.09475   1.13341   1.14778   1.15908   1.26954
 Alpha virt. eigenvalues --    1.32022   1.34276   1.36589   1.43184   1.48938
 Alpha virt. eigenvalues --    1.52461   1.61681   1.61766   1.73917   1.84393
 Alpha virt. eigenvalues --    1.85033   1.90854   1.92695   2.06343   2.10164
 Alpha virt. eigenvalues --    2.13750   2.18191   2.30645   2.39473   2.62271
 Alpha virt. eigenvalues --    2.67809   2.78549   2.86581   2.89404   3.05696
 Alpha virt. eigenvalues --    3.16230   3.18328   3.44961   3.58980   3.69606
          Condensed to atoms (all electrons):
               1          2          3          4          5          6
     1  H    0.444919   0.325677   0.003592  -0.011440   0.013018  -0.000376
     2  O    0.325677   7.626450  -0.078155   0.411445  -0.132310   0.004278
     3  O    0.003592  -0.078155   7.621893   0.728402  -0.088262   0.010385
     4  C   -0.011440   0.411445   0.728402   4.619974   0.173303  -0.013511
     5  C    0.013018  -0.132310  -0.088262   0.173303   5.196908   0.376026
     6  H   -0.000376   0.004278   0.010385  -0.013511   0.376026   0.526843
     7  Cl  -0.000719   0.002391   0.000294  -0.027710   0.231580  -0.021110
     8  Cl  -0.000719   0.002393   0.000298  -0.027688   0.231524  -0.021109
               7          8
     1  H   -0.000719  -0.000719
     2  O    0.002391   0.002393
     3  O    0.000294   0.000298
     4  C   -0.027710  -0.027688
     5  C    0.231580   0.231524
     6  H   -0.021110  -0.021109
     7  Cl  16.946598  -0.056597
     8  Cl  -0.056597  16.946616
 Mulliken charges:
               1
     1  H    0.226048
     2  O   -0.162168
     3  O   -0.198446
     4  C    0.147224
     5  C   -0.001787
     6  H    0.138574
     7  Cl  -0.074725
     8  Cl  -0.074719
 Sum of Mulliken charges =  -0.00000
 Mulliken charges with hydrogens summed into heavy atoms:
               1
     2  O    0.063879
     3  O   -0.198446
     4  C    0.147224
     5  C    0.136787
     7  Cl  -0.074725
     8  Cl  -0.074719
 Electronic spatial extent (au):  <R**2>=            815.8997
 Charge=             -0.0000 electrons
 Dipole moment (field-independent basis, Debye):
    X=              0.7459    Y=             -0.0008    Z=              0.5338  Tot=              0.9172
 Quadrupole moment (field-independent basis, Debye-Ang):
   XX=            -46.4053   YY=            -47.1873   ZZ=            -45.6041
   XY=             -0.0016   XZ=              7.0396   YZ=             -0.0011
 Traceless Quadrupole moment (field-independent basis, Debye-Ang):
   XX=             -0.0064   YY=             -0.7884   ZZ=              0.7948
   XY=             -0.0016   XZ=              7.0396   YZ=             -0.0011
 Octapole moment (field-independent basis, Debye-Ang**2):
  XXX=              9.0217  YYY=              0.0002  ZZZ=              2.1940  XYY=              0.9196
  XXY=             -0.0053  XXZ=             20.9670  XZZ=              2.3955  YZZ=              0.0000
  YYZ=              2.5235  XYZ=             -0.0040
 Hexadecapole moment (field-independent basis, Debye-Ang**3):
 XXXX=           -451.9642 YYYY=           -343.1166 ZZZZ=           -132.3697 XXXY=             -0.0045
 XXXZ=             50.2712 YYYX=             -0.0030 YYYZ=              0.0040 ZZZX=             16.5454
 ZZZY=             -0.0046 XXYY=           -130.9145 XXZZ=            -91.3011 YYZZ=            -83.0218
 XXYZ=             -0.0160 YYXZ=             -2.9031 ZZXY=             -0.0042
 N-N= 3.586136968583D+02 E-N=-3.438659961105D+03  KE= 1.143544278362D+03
 1\1\GINC-CHPC-CN071\SP\RMN15\def2SVP\C2H2Cl2O2\S1155246976\24-Mar-2026
 \0\\# mn15 def2svp scrf=(smd,solvent=TetraHydroFuran)\\Gaussian pKa ca
 lculation job\\0,1\H,0,2.297693,-0.000795,1.416996\O,0,1.346052,-0.000
 681,1.213266\O,0,2.1175,-0.000433,-0.895449\C,0,1.208715,-0.000586,-0.
 108776\C,0,-0.251135,0.000015,-0.539613\H,0,-0.279211,0.000108,-1.6336
 65\Cl,0,-1.042614,1.464283,0.046092\Cl,0,-1.043996,-1.463517,0.045936\
 \Version=ES64L-G16RevB.01\State=1-A\HF=-1147.3031193\RMSD=7.199e-09\Di
 pole=0.2934556,-0.0003301,0.2100088\Quadrupole=-0.0047565,-0.5861347,0
 .5908912,-0.0011853,5.2337976,-0.0008046\PG=C01 [X(C2H2Cl2O2)]\\@


 A HARD FALL SHOULD MEAN A HIGH BOUNCE 
 IF ONE IS MADE OF THE RIGHT MATERIAL.

                -- THE CHEMIST ANALYST, MARCH 1950
 Job cpu time:       0 days  0 hours  2 minutes 27.9 seconds.
 Elapsed time:       0 days  0 hours  0 minutes  5.5 seconds.
 File lengths (MBytes):  RWF=     43 Int=      0 D2E=      0 Chk=      3 Scr=      2
 Normal termination of Gaussian 16 at Tue Mar 24 17:58:22 2026.
