 Entering Gaussian System, FakeGaussianRunner
 Input=/Users/taipanlan/Desktop/chemsmart/7a_HA_sp.com
 Output=/Users/taipanlan/Desktop/chemsmart/7a_HA_sp.log
 ******************************************
 Fake Gaussian Executable
 ******************************************
 %chk=7a_HA_sp.chk
 %nprocshared=12
 %mem=40GB
 -------------------------------------------------
 # m062x def2svp scrf=(smd,solvent=dichloroethane)
 -------------------------------------------------
 -------------------------------------------------
 Gaussian pKa calculation job
 -------------------------------------------------
 Symbolic Z-matrix:
 Charge =  0 Multiplicity = 1
 C        2.0785000000    0.0146020000    0.0000140000
 C        1.3861900000   -1.2057300000    0.0002580000
 C        1.3758300000    1.2290300000   -0.0002410000
 H        1.9337300000   -2.1458400000    0.0005520000
 H        1.9325800000    2.1604900000   -0.0004560000
 C       -0.0051090000   -1.2142400000    0.0002440000
 C       -0.0127440000    1.2232400000   -0.0002080000
 H       -0.5593440000   -2.1452000000    0.0003780000
 H       -0.5759380000    2.1488100000   -0.0003250000
 C       -0.6925350000    0.0006690000    0.0000300000
 O        3.4377100000    0.0874630000   -0.0000610000
 H        3.8267000000   -0.8017810000    0.0000420000
 N       -2.1565900000   -0.0066600000    0.0001010000
 O       -2.7391700000    1.0809500000    0.0005510000
 O       -2.7288500000   -1.1003200000   -0.0006750000

                          Input orientation:                             
 ------------------------------------------------------------------------
 Center     Atomic      Atomic             Coordinates (Angstroms)       
 Number     Number       Type             X           Y           Z      
 ------------------------------------------------------------------------
   1          6          0               2.0785      0.014602       1.4e-05
   2          6          0              1.38619      -1.20573      0.000258
   3          6          0              1.37583       1.22903     -0.000241
   4          1          0              1.93373      -2.14584      0.000552
   5          1          0              1.93258       2.16049     -0.000456
   6          6          0            -0.005109      -1.21424      0.000244
   7          6          0            -0.012744       1.22324     -0.000208
   8          1          0            -0.559344       -2.1452      0.000378
   9          1          0            -0.575938       2.14881     -0.000325
  10          6          0            -0.692535      0.000669         3e-05
  11          8          0              3.43771      0.087463      -6.1e-05
  12          1          0               3.8267     -0.801781       4.2e-05
  13          7          0             -2.15659      -0.00666      0.000101
  14          8          0             -2.73917       1.08095      0.000551
  15          8          0             -2.72885      -1.10032     -0.000675
 ------------------------------------------------------------------------
 Stoichiometry    C6H5NO3                       Standard orientation:                             
 ------------------------------------------------------------------------
 Center     Atomic      Atomic             Coordinates (Angstroms)       
 Number     Number       Type             X           Y           Z      
 ------------------------------------------------------------------------
   1          6          0               2.0785      0.014602       1.4e-05
   2          6          0              1.38619      -1.20573      0.000258
   3          6          0              1.37583       1.22903     -0.000241
   4          1          0              1.93373      -2.14584      0.000552
   5          1          0              1.93258       2.16049     -0.000456
   6          6          0            -0.005109      -1.21424      0.000244
   7          6          0            -0.012744       1.22324     -0.000208
   8          1          0            -0.559344       -2.1452      0.000378
   9          1          0            -0.575938       2.14881     -0.000325
  10          6          0            -0.692535      0.000669         3e-05
  11          8          0              3.43771      0.087463      -6.1e-05
  12          1          0               3.8267     -0.801781       4.2e-05
  13          7          0             -2.15659      -0.00666      0.000101
  14          8          0             -2.73917       1.08095      0.000551
  15          8          0             -2.72885      -1.10032     -0.000675
 ------------------------------------------------------------------------
 ! Dummy Rotational constant values and dummy SCF energy value...
 Rotational constants (GHZ):          11.4493930           9.4805599           5.3596246
 Standard basis: def2svp (5D, 7F)
 NAtoms=    15
 SCF Done:  E(RM062X) =  -663.9877470514459  A.U. after   14 cycles
 Mulliken charges:
               1
      1   C     0.983376
      2   C     0.494853
      3   C     0.435412
      4   H     0.529063
      5   H      0.53787
      6   C     0.513855
      7   C     0.595391
      8   H     0.682883
      9   H   0.00530676
     10   C     0.667563
     11   O     0.398062
     12   H    0.0925923
     13   N     0.747762
     14   O     0.222426
     15   O     0.490543
 Elapsed time: xx
 Normal termination of Gaussian 16 (fake executable) at 2026-05-16 12:43:27.237820.