 Entering Gaussian System, FakeGaussianRunner
 Input=/Users/taipanlan/Desktop/chemsmart/7a_HRef_sp.com
 Output=/Users/taipanlan/Desktop/chemsmart/7a_HRef_sp.log
 ******************************************
 Fake Gaussian Executable
 ******************************************
 %chk=7a_HRef_sp.chk
 %nprocshared=12
 %mem=40GB
 -------------------------------------------------
 # m062x def2svp scrf=(smd,solvent=dichloroethane)
 -------------------------------------------------
 -------------------------------------------------
 Gaussian pKa calculation job
 -------------------------------------------------
 Symbolic Z-matrix:
 Charge =  0 Multiplicity = 1
 C        1.5496800000   -0.0149090000    0.0224210000
 C        0.8527090000   -1.2246900000   -0.0037410000
 C        0.8886820000    1.2020700000    0.0189490000
 H        1.3842400000   -2.1688600000   -0.0203930000
 H        1.4387300000    2.1349000000    0.0325160000
 C       -0.5296830000   -1.2013700000   -0.0041260000
 C       -0.5048600000    1.2097400000   -0.0121570000
 C       -1.2705900000    0.0077150000   -0.0213440000
 O       -2.5890400000   -0.0340120000   -0.0821540000
 H       -2.9193700000    0.9007800000   -0.1124760000
 N       -1.2280700000   -2.5012700000    0.0150280000
 O       -2.2250300000   -2.5984700000    0.7207460000
 O       -0.7295810000   -3.4017500000   -0.6592430000
 N       -1.1677800000    2.5102600000   -0.0392030000
 O       -0.4837310000    3.5215100000   -0.0052270000
 O       -2.4165500000    2.5266100000   -0.0978620000
 N        3.0209400000   -0.0339520000    0.0478120000
 O        3.6004900000    1.0505400000    0.0596520000
 O        3.5690900000   -1.1348500000    0.0559480000

                          Input orientation:                             
 ------------------------------------------------------------------------
 Center     Atomic      Atomic             Coordinates (Angstroms)       
 Number     Number       Type             X           Y           Z      
 ------------------------------------------------------------------------
   1          6          0              1.54968     -0.014909      0.022421
   2          6          0             0.852709      -1.22469     -0.003741
   3          6          0             0.888682       1.20207      0.018949
   4          1          0              1.38424      -2.16886     -0.020393
   5          1          0              1.43873        2.1349      0.032516
   6          6          0            -0.529683      -1.20137     -0.004126
   7          6          0             -0.50486       1.20974     -0.012157
   8          6          0             -1.27059      0.007715     -0.021344
   9          8          0             -2.58904     -0.034012     -0.082154
  10          1          0             -2.91937       0.90078     -0.112476
  11          7          0             -1.22807      -2.50127      0.015028
  12          8          0             -2.22503      -2.59847      0.720746
  13          8          0            -0.729581      -3.40175     -0.659243
  14          7          0             -1.16778       2.51026     -0.039203
  15          8          0            -0.483731       3.52151     -0.005227
  16          8          0             -2.41655       2.52661     -0.097862
  17          7          0              3.02094     -0.033952      0.047812
  18          8          0              3.60049       1.05054      0.059652
  19          8          0              3.56909      -1.13485      0.055948
 ------------------------------------------------------------------------
 Stoichiometry    C6H3N3O7                       Standard orientation:                             
 ------------------------------------------------------------------------
 Center     Atomic      Atomic             Coordinates (Angstroms)       
 Number     Number       Type             X           Y           Z      
 ------------------------------------------------------------------------
   1          6          0              1.54968     -0.014909      0.022421
   2          6          0             0.852709      -1.22469     -0.003741
   3          6          0             0.888682       1.20207      0.018949
   4          1          0              1.38424      -2.16886     -0.020393
   5          1          0              1.43873        2.1349      0.032516
   6          6          0            -0.529683      -1.20137     -0.004126
   7          6          0             -0.50486       1.20974     -0.012157
   8          6          0             -1.27059      0.007715     -0.021344
   9          8          0             -2.58904     -0.034012     -0.082154
  10          1          0             -2.91937       0.90078     -0.112476
  11          7          0             -1.22807      -2.50127      0.015028
  12          8          0             -2.22503      -2.59847      0.720746
  13          8          0            -0.729581      -3.40175     -0.659243
  14          7          0             -1.16778       2.51026     -0.039203
  15          8          0            -0.483731       3.52151     -0.005227
  16          8          0             -2.41655       2.52661     -0.097862
  17          7          0              3.02094     -0.033952      0.047812
  18          8          0              3.60049       1.05054      0.059652
  19          8          0              3.56909      -1.13485      0.055948
 ------------------------------------------------------------------------
 ! Dummy Rotational constant values and dummy SCF energy value...
 Rotational constants (GHZ):          11.4493930           9.4805599           5.3596246
 Standard basis: def2svp (5D, 7F)
 NAtoms=    19
 SCF Done:  E(RM062X) =  -709.4403330098077  A.U. after   14 cycles
 Mulliken charges:
               1
      1   C     0.633762
      2   C     0.175238
      3   C     0.597752
      4   H     0.825703
      5   H     0.940827
      6   C     0.906807
      7   C     0.642639
      8   C     0.454771
      9   O     0.319671
     10   H     0.961594
     11   N     0.678147
     12   O     0.210957
     13   O     0.155982
     14   N     0.912432
     15   O     0.802484
     16   O     0.280846
     17   N     0.544249
     18   O     0.927387
     19   O     0.913654
 Elapsed time: xx
 Normal termination of Gaussian 16 (fake executable) at 2026-05-16 12:43:31.360775.