 Entering Gaussian System, FakeGaussianRunner
 Input=/Users/taipanlan/Desktop/chemsmart/8a_A_opt.com
 Output=/Users/taipanlan/Desktop/chemsmart/8a_A_opt.log
 ******************************************
 Fake Gaussian Executable
 ******************************************
 %chk=8a_A_opt.chk
 %nprocshared=12
 %mem=40GB
 ------------------------
 # opt freq m062x def2svp
 ------------------------
 ------------------------
 Gaussian pKa calculation job
 ------------------------
 Symbolic Z-matrix:
 Charge =  -1 Multiplicity = 1
 C        0.2206240000    0.0311670000   -0.0001280000
 C       -0.4477960000   -1.2030630000   -0.0001010000
 C       -0.5153920000    1.2258520000   -0.0000380000
 H        0.1244320000   -2.1243910000   -0.0001660000
 H        0.0190100000    2.1706120000   -0.0000580000
 C       -1.8427340000   -1.2371740000    0.0000000000
 C       -1.9086800000    1.1861910000    0.0000600000
 H       -2.3593700000   -2.1932270000    0.0000130000
 H       -2.4764440000    2.1127460000    0.0001220000
 C       -2.5736800000   -0.0449400000    0.0000800000
 H       -3.6603600000   -0.0748770000    0.0001580000
 C        1.7037380000    0.1231380000   -0.0002530000
 O        2.3413140000    1.1596130000    0.0000910000
 O        2.3162760000   -1.0921200000    0.0001410000

                          Input orientation:                             
 ------------------------------------------------------------------------
 Center     Atomic      Atomic             Coordinates (Angstroms)       
 Number     Number       Type             X           Y           Z      
 ------------------------------------------------------------------------
   1          6          0             0.220624      0.031167     -0.000128
   2          6          0            -0.447796      -1.20306     -0.000101
   3          6          0            -0.515392       1.22585      -3.8e-05
   4          1          0             0.124432      -2.12439     -0.000166
   5          1          0              0.01901       2.17061      -5.8e-05
   6          6          0             -1.84273      -1.23717           0.0
   7          6          0             -1.90868       1.18619         6e-05
   8          1          0             -2.35937      -2.19323       1.3e-05
   9          1          0             -2.47644       2.11275      0.000122
  10          6          0             -2.57368      -0.04494         8e-05
  11          1          0             -3.66036     -0.074877      0.000158
  12          6          0              1.70374      0.123138     -0.000253
  13          8          0              2.34131       1.15961       9.1e-05
  14          8          0              2.31628      -1.09212      0.000141
 ------------------------------------------------------------------------
 Stoichiometry    C7H5O2                       Standard orientation:                             
 ------------------------------------------------------------------------
 Center     Atomic      Atomic             Coordinates (Angstroms)       
 Number     Number       Type             X           Y           Z      
 ------------------------------------------------------------------------
   1          6          0             0.220624      0.031167     -0.000128
   2          6          0            -0.447796      -1.20306     -0.000101
   3          6          0            -0.515392       1.22585      -3.8e-05
   4          1          0             0.124432      -2.12439     -0.000166
   5          1          0              0.01901       2.17061      -5.8e-05
   6          6          0             -1.84273      -1.23717           0.0
   7          6          0             -1.90868       1.18619         6e-05
   8          1          0             -2.35937      -2.19323       1.3e-05
   9          1          0             -2.47644       2.11275      0.000122
  10          6          0             -2.57368      -0.04494         8e-05
  11          1          0             -3.66036     -0.074877      0.000158
  12          6          0              1.70374      0.123138     -0.000253
  13          8          0              2.34131       1.15961       9.1e-05
  14          8          0              2.31628      -1.09212      0.000141
 ------------------------------------------------------------------------
 ! Dummy Rotational constant values and dummy SCF energy value...
 Rotational constants (GHZ):          11.4493930           9.4805599           5.3596246
 Standard basis: def2svp (5D, 7F)
 NAtoms=    14
 SCF Done:  E(RM062X) =  -196.04043885080645  A.U. after   14 cycles
 Mulliken charges:
               1
      1   C      0.35471
      2   C     0.349518
      3   C     0.394338
      4   H     0.427601
      5   H     0.162363
      6   C      0.22729
      7   C     0.967233
      8   H     0.875715
      9   H     0.969657
     10   C     0.505207
     11   H     0.444176
     12   C     0.280165
     13   O     0.670682
     14   O     0.307037
 Elapsed time: xx
 Normal termination of Gaussian 16 (fake executable) at 2026-05-16 12:43:20.932460.