 Entering Gaussian System, FakeGaussianRunner
 Input=/Users/taipanlan/Desktop/chemsmart/8a_A_sp.com
 Output=/Users/taipanlan/Desktop/chemsmart/8a_A_sp.log
 ******************************************
 Fake Gaussian Executable
 ******************************************
 %chk=8a_A_sp.chk
 %nprocshared=12
 %mem=40GB
 -------------------------------------------------
 # m062x def2svp scrf=(smd,solvent=dichloroethane)
 -------------------------------------------------
 -------------------------------------------------
 Gaussian pKa calculation job
 -------------------------------------------------
 Symbolic Z-matrix:
 Charge =  -1 Multiplicity = 1
 C        0.2206240000    0.0311670000   -0.0001280000
 C       -0.4477960000   -1.2030600000   -0.0001010000
 C       -0.5153920000    1.2258500000   -0.0000380000
 H        0.1244320000   -2.1243900000   -0.0001660000
 H        0.0190100000    2.1706100000   -0.0000580000
 C       -1.8427300000   -1.2371700000    0.0000000000
 C       -1.9086800000    1.1861900000    0.0000600000
 H       -2.3593700000   -2.1932300000    0.0000130000
 H       -2.4764400000    2.1127500000    0.0001220000
 C       -2.5736800000   -0.0449400000    0.0000800000
 H       -3.6603600000   -0.0748770000    0.0001580000
 C        1.7037400000    0.1231380000   -0.0002530000
 O        2.3413100000    1.1596100000    0.0000910000
 O        2.3162800000   -1.0921200000    0.0001410000

                          Input orientation:                             
 ------------------------------------------------------------------------
 Center     Atomic      Atomic             Coordinates (Angstroms)       
 Number     Number       Type             X           Y           Z      
 ------------------------------------------------------------------------
   1          6          0             0.220624      0.031167     -0.000128
   2          6          0            -0.447796      -1.20306     -0.000101
   3          6          0            -0.515392       1.22585      -3.8e-05
   4          1          0             0.124432      -2.12439     -0.000166
   5          1          0              0.01901       2.17061      -5.8e-05
   6          6          0             -1.84273      -1.23717           0.0
   7          6          0             -1.90868       1.18619         6e-05
   8          1          0             -2.35937      -2.19323       1.3e-05
   9          1          0             -2.47644       2.11275      0.000122
  10          6          0             -2.57368      -0.04494         8e-05
  11          1          0             -3.66036     -0.074877      0.000158
  12          6          0              1.70374      0.123138     -0.000253
  13          8          0              2.34131       1.15961       9.1e-05
  14          8          0              2.31628      -1.09212      0.000141
 ------------------------------------------------------------------------
 Stoichiometry    C7H5O2                       Standard orientation:                             
 ------------------------------------------------------------------------
 Center     Atomic      Atomic             Coordinates (Angstroms)       
 Number     Number       Type             X           Y           Z      
 ------------------------------------------------------------------------
   1          6          0             0.220624      0.031167     -0.000128
   2          6          0            -0.447796      -1.20306     -0.000101
   3          6          0            -0.515392       1.22585      -3.8e-05
   4          1          0             0.124432      -2.12439     -0.000166
   5          1          0              0.01901       2.17061      -5.8e-05
   6          6          0             -1.84273      -1.23717           0.0
   7          6          0             -1.90868       1.18619         6e-05
   8          1          0             -2.35937      -2.19323       1.3e-05
   9          1          0             -2.47644       2.11275      0.000122
  10          6          0             -2.57368      -0.04494         8e-05
  11          1          0             -3.66036     -0.074877      0.000158
  12          6          0              1.70374      0.123138     -0.000253
  13          8          0              2.34131       1.15961       9.1e-05
  14          8          0              2.31628      -1.09212      0.000141
 ------------------------------------------------------------------------
 ! Dummy Rotational constant values and dummy SCF energy value...
 Rotational constants (GHZ):          11.4493930           9.4805599           5.3596246
 Standard basis: def2svp (5D, 7F)
 NAtoms=    14
 SCF Done:  E(RM062X) =  -273.5969304266702  A.U. after   14 cycles
 Mulliken charges:
               1
      1   C     0.636872
      2   C     0.247109
      3   C      0.64197
      4   H     0.592616
      5   H      0.42542
      6   C     0.320954
      7   C     0.980913
      8   H     0.129822
      9   H    0.0617182
     10   C       0.2055
     11   H     0.398914
     12   C     0.353654
     13   O     0.071731
     14   O    0.0846433
 Elapsed time: xx
 Normal termination of Gaussian 16 (fake executable) at 2026-05-16 12:43:29.127695.