 Entering Gaussian System, FakeGaussianRunner
 Input=/Users/taipanlan/Desktop/chemsmart/8a_HA_sp.com
 Output=/Users/taipanlan/Desktop/chemsmart/8a_HA_sp.log
 ******************************************
 Fake Gaussian Executable
 ******************************************
 %chk=8a_HA_sp.chk
 %nprocshared=12
 %mem=40GB
 -------------------------------------------------
 # m062x def2svp scrf=(smd,solvent=dichloroethane)
 -------------------------------------------------
 -------------------------------------------------
 Gaussian pKa calculation job
 -------------------------------------------------
 Symbolic Z-matrix:
 Charge =  0 Multiplicity = 1
 C        0.2206240000    0.0311670000   -0.0001280000
 C       -0.4477960000   -1.2030600000   -0.0001010000
 C       -0.5153920000    1.2258500000   -0.0000380000
 H        0.1244320000   -2.1243900000   -0.0001660000
 H        0.0190100000    2.1706100000   -0.0000580000
 C       -1.8427300000   -1.2371700000    0.0000000000
 C       -1.9086800000    1.1861900000    0.0000600000
 H       -2.3593700000   -2.1932300000    0.0000130000
 H       -2.4764400000    2.1127500000    0.0001220000
 C       -2.5736800000   -0.0449400000    0.0000800000
 H       -3.6603600000   -0.0748770000    0.0001580000
 C        1.7037400000    0.1231380000   -0.0002530000
 O        2.3413100000    1.1596100000    0.0000910000
 O        2.3162800000   -1.0921200000    0.0001410000
 H        3.2755300000   -0.9178340000    0.0003570000

                          Input orientation:                             
 ------------------------------------------------------------------------
 Center     Atomic      Atomic             Coordinates (Angstroms)       
 Number     Number       Type             X           Y           Z      
 ------------------------------------------------------------------------
   1          6          0             0.220624      0.031167     -0.000128
   2          6          0            -0.447796      -1.20306     -0.000101
   3          6          0            -0.515392       1.22585      -3.8e-05
   4          1          0             0.124432      -2.12439     -0.000166
   5          1          0              0.01901       2.17061      -5.8e-05
   6          6          0             -1.84273      -1.23717           0.0
   7          6          0             -1.90868       1.18619         6e-05
   8          1          0             -2.35937      -2.19323       1.3e-05
   9          1          0             -2.47644       2.11275      0.000122
  10          6          0             -2.57368      -0.04494         8e-05
  11          1          0             -3.66036     -0.074877      0.000158
  12          6          0              1.70374      0.123138     -0.000253
  13          8          0              2.34131       1.15961       9.1e-05
  14          8          0              2.31628      -1.09212      0.000141
  15          1          0              3.27553     -0.917834      0.000357
 ------------------------------------------------------------------------
 Stoichiometry    C7H6O2                       Standard orientation:                             
 ------------------------------------------------------------------------
 Center     Atomic      Atomic             Coordinates (Angstroms)       
 Number     Number       Type             X           Y           Z      
 ------------------------------------------------------------------------
   1          6          0             0.220624      0.031167     -0.000128
   2          6          0            -0.447796      -1.20306     -0.000101
   3          6          0            -0.515392       1.22585      -3.8e-05
   4          1          0             0.124432      -2.12439     -0.000166
   5          1          0              0.01901       2.17061      -5.8e-05
   6          6          0             -1.84273      -1.23717           0.0
   7          6          0             -1.90868       1.18619         6e-05
   8          1          0             -2.35937      -2.19323       1.3e-05
   9          1          0             -2.47644       2.11275      0.000122
  10          6          0             -2.57368      -0.04494         8e-05
  11          1          0             -3.66036     -0.074877      0.000158
  12          6          0              1.70374      0.123138     -0.000253
  13          8          0              2.34131       1.15961       9.1e-05
  14          8          0              2.31628      -1.09212      0.000141
  15          1          0              3.27553     -0.917834      0.000357
 ------------------------------------------------------------------------
 ! Dummy Rotational constant values and dummy SCF energy value...
 Rotational constants (GHZ):          11.4493930           9.4805599           5.3596246
 Standard basis: def2svp (5D, 7F)
 NAtoms=    15
 SCF Done:  E(RM062X) =  -839.6837599797772  A.U. after   14 cycles
 Mulliken charges:
               1
      1   C     0.645844
      2   C     0.938554
      3   C     0.261185
      4   H     0.179265
      5   H      0.45437
      6   C     0.204826
      7   C     0.685584
      8   H     0.706208
      9   H     0.985227
     10   C     0.358108
     11   H     0.840322
     12   C     0.328237
     13   O     0.321996
     14   O     0.248366
     15   H      0.74442
 Elapsed time: xx
 Normal termination of Gaussian 16 (fake executable) at 2026-05-16 12:43:26.919031.