 Entering Gaussian System, FakeGaussianRunner
 Input=/Users/taipanlan/Desktop/chemsmart/9a_A_sp.com
 Output=/Users/taipanlan/Desktop/chemsmart/9a_A_sp.log
 ******************************************
 Fake Gaussian Executable
 ******************************************
 %chk=9a_A_sp.chk
 %nprocshared=12
 %mem=40GB
 -------------------------------------------------
 # m062x def2svp scrf=(smd,solvent=dichloroethane)
 -------------------------------------------------
 -------------------------------------------------
 Gaussian pKa calculation job
 -------------------------------------------------
 Symbolic Z-matrix:
 Charge =  -1 Multiplicity = 1
 C       -1.3974500000   -0.1203230000   -0.0000890000
 H       -1.6805500000   -0.6988290000    0.8860020000
 H       -1.9252700000    0.8339120000   -0.0059740000
 H       -1.6794700000   -0.7098530000   -0.8791430000
 C        0.0888860000    0.1254890000   -0.0000300000
 O        0.6346060000    1.2083700000   -0.0000130000
 O        0.7902920000   -1.0398900000   -0.0000580000

                          Input orientation:                             
 ------------------------------------------------------------------------
 Center     Atomic      Atomic             Coordinates (Angstroms)       
 Number     Number       Type             X           Y           Z      
 ------------------------------------------------------------------------
   1          6          0             -1.39745     -0.120323      -8.9e-05
   2          1          0             -1.68055     -0.698829      0.886002
   3          1          0             -1.92527      0.833912     -0.005974
   4          1          0             -1.67947     -0.709853     -0.879143
   5          6          0             0.088886      0.125489        -3e-05
   6          8          0             0.634606       1.20837      -1.3e-05
   7          8          0             0.790292      -1.03989      -5.8e-05
 ------------------------------------------------------------------------
 Stoichiometry    C2H3O2                       Standard orientation:                             
 ------------------------------------------------------------------------
 Center     Atomic      Atomic             Coordinates (Angstroms)       
 Number     Number       Type             X           Y           Z      
 ------------------------------------------------------------------------
   1          6          0             -1.39745     -0.120323      -8.9e-05
   2          1          0             -1.68055     -0.698829      0.886002
   3          1          0             -1.92527      0.833912     -0.005974
   4          1          0             -1.67947     -0.709853     -0.879143
   5          6          0             0.088886      0.125489        -3e-05
   6          8          0             0.634606       1.20837      -1.3e-05
   7          8          0             0.790292      -1.03989      -5.8e-05
 ------------------------------------------------------------------------
 ! Dummy Rotational constant values and dummy SCF energy value...
 Rotational constants (GHZ):          11.4493930           9.4805599           5.3596246
 Standard basis: def2svp (5D, 7F)
 NAtoms=    7
 SCF Done:  E(RM062X) =  -797.3207617331966  A.U. after   14 cycles
 Mulliken charges:
               1
      1   C     0.411122
      2   H     0.595426
      3   H     0.417637
      4   H     0.509674
      5   C     0.661139
      6   O     0.658449
      7   O     0.170234
 Elapsed time: xx
 Normal termination of Gaussian 16 (fake executable) at 2026-05-16 12:43:29.067905.