 Entering Gaussian System, FakeGaussianRunner
 Input=/Users/taipanlan/PycharmProjects/chemsmart/ammonia_fake.com
 Output=/Users/taipanlan/PycharmProjects/chemsmart/ammonia_fake.log
 ******************************************
 Fake Gaussian Executable
 ******************************************
 %chk=ammonia_fake.chk
 %nprocshared=12
 %mem=40GB
 ----------------------------------------------------------
 # opt freq m062x def2svp scrf=(smd,solvent=dichloroethane)
 ----------------------------------------------------------
 ----------------------------------------------------------
 Gaussian job with default settings
 ----------------------------------------------------------
 Symbolic Z-matrix:
 Charge =  0 Multiplicity = 1
 N        0.0000000000    0.0000000000    0.0000000000
 H       -0.4417000000    0.2906000000    0.8711000000
 H        0.7256000000    0.6896000000   -0.1907000000
 H        0.4875000000   -0.8701000000    0.2089000000

                          Input orientation:                             
 ------------------------------------------------------------------------
 Center     Atomic      Atomic             Coordinates (Angstroms)       
 Number     Number       Type             X           Y           Z      
 ------------------------------------------------------------------------
   1          7          0                  0.0           0.0           0.0
   2          1          0              -0.4417        0.2906        0.8711
   3          1          0               0.7256        0.6896       -0.1907
   4          1          0               0.4875       -0.8701        0.2089
 ------------------------------------------------------------------------
 Stoichiometry    H3N                       Standard orientation:                             
 ------------------------------------------------------------------------
 Center     Atomic      Atomic             Coordinates (Angstroms)       
 Number     Number       Type             X           Y           Z      
 ------------------------------------------------------------------------
   1          7          0                  0.0           0.0           0.0
   2          1          0              -0.4417        0.2906        0.8711
   3          1          0               0.7256        0.6896       -0.1907
   4          1          0               0.4875       -0.8701        0.2089
 ------------------------------------------------------------------------
 ! Dummy Rotational constant values and dummy SCF energy value...
 Rotational constants (GHZ):          11.4493930           9.4805599           5.3596246
 Standard basis: def2svp (5D, 7F)
 NAtoms=    4
 SCF Done:  E(RM062X) =  -166.68925004224556  A.U. after   14 cycles
 Mulliken charges:
               1
      1   N     0.055316
      2   H    -0.051270
      3   H     0.016753
      4   H    -0.020799
 Sum of Mulliken charges =  0.00000
 Elapsed time:      0 days  0 hours  0 minutes  0.0 seconds.
 Normal termination of Gaussian 16 (fake executable) at Fri Jul 10 14:12:14 2026.