 Entering Gaussian System, FakeGaussianRunner
 Input=/Users/taipanlan/PycharmProjects/chemsmart/crest_best_pka_A_sp.com
 Output=/Users/taipanlan/PycharmProjects/chemsmart/crest_best_pka_A_sp.log
 ******************************************
 Fake Gaussian Executable
 ******************************************
 %chk=crest_best_pka_A_sp.chk
 %nprocshared=12
 %mem=40GB
 ----------------------------------------
 # m062x def2svp scrf=(SMD,solvent=water)
 ----------------------------------------
 ----------------------------------------
 None
 ----------------------------------------
 Symbolic Z-matrix:
 Charge =  -1 Multiplicity = 1
 C       -1.0440200000   -2.3921200000   -1.1765800000
 C        0.1047620000   -1.6967400000   -1.6013500000
 C       -1.0128800000   -3.2879300000   -0.0053163300
 C        1.3145300000   -1.7138200000   -0.7587640000
 C       -2.1956500000   -2.3195400000   -1.9574900000
 C        0.0850945000   -1.0180800000   -2.8171600000
 C       -2.0177900000   -3.2670700000    0.9696450000
 C        0.0124509000   -4.2217800000    0.1258570000
 C       -2.2135800000   -1.6035500000   -3.1395300000
 C       -1.0665500000   -0.9595570000   -3.5774500000
 C        2.5400900000   -2.1858900000   -1.2071800000
 C        1.1838300000   -1.3381300000    0.5871270000
 C       -1.9555700000   -4.1320700000    2.0530900000
 C        0.0635395000   -5.0900600000    1.1977600000
 C       -0.9196320000   -5.0380600000    2.1711700000
 C        3.5916400000   -2.3379000000   -0.3197250000
 C        2.2150200000   -1.5701200000    1.4906700000
 C        3.4197400000   -2.0662700000    1.0300800000
 H       -3.0721800000   -2.8634700000   -1.6409700000
 H        0.9825550000   -0.5255700000   -3.1562900000
 H        0.7679620000   -4.2765300000   -0.6429540000
 H       -3.1104400000   -1.5687600000   -3.7381600000
 H       -1.0696100000   -0.4200130000   -4.5112800000
 H        2.6529700000   -2.4651400000   -2.2438000000
 H       -2.7313900000   -4.0908300000    2.8054900000
 H        0.8661160000   -5.8065300000    1.2712300000
 H       -0.8868630000   -5.7062000000    3.0172100000
 H        4.5411700000   -2.7066600000   -0.6753200000
 H        2.0719000000   -1.3307600000    2.5326100000
 H        4.2288700000   -2.2366200000    1.7222400000
 C       -0.0437643000   -0.6274730000    0.9856820000
 O       -0.7619660000   -0.8562990000    1.9239600000
 O       -3.0470200000   -2.3728700000    0.8501780000
 H       -3.6159000000   -2.4491600000    1.6270400000
 C       -0.3105660000    0.5231090000    0.0485394000
 N        0.6273570000    1.3186300000   -0.4925770000
 N       -1.4820200000    0.9427790000   -0.4496800000
 N        0.0798110000    2.1887300000   -1.3460400000
 C        1.9915900000    1.4003300000   -0.1480310000
 C       -1.1960800000    1.9545000000   -1.3179900000
 C       -2.8352500000    0.5761620000   -0.1207610000
 C        2.3703700000    1.5210000000    1.1955100000
 C        2.9873500000    1.4397500000   -1.1304200000
 C       -2.3141200000    2.4943400000   -2.1296200000
 H       -2.8437700000   -0.4682590000    0.2085060000
 C       -3.7868300000    0.8083230000   -1.3406300000
 C       -3.3634400000    1.5041300000    0.9509980000
 C        3.7027100000    1.5892300000    1.5560100000
 Cl       1.1654200000    1.6202700000    2.4198500000
 C        4.3251800000    1.4995900000   -0.7733170000
 Cl       2.5748300000    1.4277800000   -2.7881500000
 H       -1.9468700000    2.9100200000   -3.0687200000
 H       -2.8514500000    3.2767200000   -1.5730300000
 O       -3.1441500000    1.4033300000   -2.4476600000
 C       -4.9652900000    1.6572100000   -0.8089060000
 H       -4.1324800000   -0.1510730000   -1.7300700000
 C       -4.5380700000    2.1259900000    0.5464670000
 C       -2.7995600000    1.7629000000    2.1854800000
 C        4.6816000000    1.5557300000    0.5676540000
 H        3.9794700000    1.6796700000    2.5937800000
 H        5.0837500000    1.5116100000   -1.5391500000
 H       -5.1841100000    2.4796900000   -1.4916500000
 H       -5.8675400000    1.0492900000   -0.7333180000
 C       -5.1665700000    3.0302100000    1.3825300000
 C       -3.4334500000    2.6711100000    3.0200400000
 H       -1.9009900000    1.2561800000    2.5018900000
 Cl       6.3296600000    1.6076000000    1.0086100000
 C       -4.6012200000    3.3015100000    2.6194100000
 H       -6.0807500000    3.5143200000    1.0764100000
 H       -3.0134900000    2.8856600000    3.9901900000

                          Input orientation:                             
 ------------------------------------------------------------------------
 Center     Atomic      Atomic             Coordinates (Angstroms)       
 Number     Number       Type             X           Y           Z      
 ------------------------------------------------------------------------
   1          6          0             -1.04402      -2.39212      -1.17658
   2          6          0             0.104762      -1.69674      -1.60135
   3          6          0             -1.01288      -3.28793   -0.00531633
   4          6          0              1.31453      -1.71382     -0.758764
   5          6          0             -2.19565      -2.31954      -1.95749
   6          6          0            0.0850945      -1.01808      -2.81716
   7          6          0             -2.01779      -3.26707      0.969645
   8          6          0            0.0124509      -4.22178      0.125857
   9          6          0             -2.21358      -1.60355      -3.13953
  10          6          0             -1.06655     -0.959557      -3.57745
  11          6          0              2.54009      -2.18589      -1.20718
  12          6          0              1.18383      -1.33813      0.587127
  13          6          0             -1.95557      -4.13207       2.05309
  14          6          0            0.0635395      -5.09006       1.19776
  15          6          0            -0.919632      -5.03806       2.17117
  16          6          0              3.59164       -2.3379     -0.319725
  17          6          0              2.21502      -1.57012       1.49067
  18          6          0              3.41974      -2.06627       1.03008
  19          1          0             -3.07218      -2.86347      -1.64097
  20          1          0             0.982555      -0.52557      -3.15629
  21          1          0             0.767962      -4.27653     -0.642954
  22          1          0             -3.11044      -1.56876      -3.73816
  23          1          0             -1.06961     -0.420013      -4.51128
  24          1          0              2.65297      -2.46514       -2.2438
  25          1          0             -2.73139      -4.09083       2.80549
  26          1          0             0.866116      -5.80653       1.27123
  27          1          0            -0.886863       -5.7062       3.01721
  28          1          0              4.54117      -2.70666      -0.67532
  29          1          0               2.0719      -1.33076       2.53261
  30          1          0              4.22887      -2.23662       1.72224
  31          6          0           -0.0437643     -0.627473      0.985682
  32          8          0            -0.761966     -0.856299       1.92396
  33          8          0             -3.04702      -2.37287      0.850178
  34          1          0              -3.6159      -2.44916       1.62704
  35          6          0            -0.310566      0.523109     0.0485394
  36          7          0             0.627357       1.31863     -0.492577
  37          7          0             -1.48202      0.942779      -0.44968
  38          7          0             0.079811       2.18873      -1.34604
  39          6          0              1.99159       1.40033     -0.148031
  40          6          0             -1.19608        1.9545      -1.31799
  41          6          0             -2.83525      0.576162     -0.120761
  42          6          0              2.37037         1.521       1.19551
  43          6          0              2.98735       1.43975      -1.13042
  44          6          0             -2.31412       2.49434      -2.12962
  45          1          0             -2.84377     -0.468259      0.208506
  46          6          0             -3.78683      0.808323      -1.34063
  47          6          0             -3.36344       1.50413      0.950998
  48          6          0              3.70271       1.58923       1.55601
  49         17          0              1.16542       1.62027       2.41985
  50          6          0              4.32518       1.49959     -0.773317
  51         17          0              2.57483       1.42778      -2.78815
  52          1          0             -1.94687       2.91002      -3.06872
  53          1          0             -2.85145       3.27672      -1.57303
  54          8          0             -3.14415       1.40333      -2.44766
  55          6          0             -4.96529       1.65721     -0.808906
  56          1          0             -4.13248     -0.151073      -1.73007
  57          6          0             -4.53807       2.12599      0.546467
  58          6          0             -2.79956        1.7629       2.18548
  59          6          0               4.6816       1.55573      0.567654
  60          1          0              3.97947       1.67967       2.59378
  61          1          0              5.08375       1.51161      -1.53915
  62          1          0             -5.18411       2.47969      -1.49165
  63          1          0             -5.86754       1.04929     -0.733318
  64          6          0             -5.16657       3.03021       1.38253
  65          6          0             -3.43345       2.67111       3.02004
  66          1          0             -1.90099       1.25618       2.50189
  67         17          0              6.32966        1.6076       1.00861
  68          6          0             -4.60122       3.30151       2.61941
  69          1          0             -6.08075       3.51432       1.07641
  70          1          0             -3.01349       2.88566       3.99019
 ------------------------------------------------------------------------
 Stoichiometry    C37H24Cl3N3O3                       Standard orientation:                             
 ------------------------------------------------------------------------
 Center     Atomic      Atomic             Coordinates (Angstroms)       
 Number     Number       Type             X           Y           Z      
 ------------------------------------------------------------------------
   1          6          0             -1.04402      -2.39212      -1.17658
   2          6          0             0.104762      -1.69674      -1.60135
   3          6          0             -1.01288      -3.28793   -0.00531633
   4          6          0              1.31453      -1.71382     -0.758764
   5          6          0             -2.19565      -2.31954      -1.95749
   6          6          0            0.0850945      -1.01808      -2.81716
   7          6          0             -2.01779      -3.26707      0.969645
   8          6          0            0.0124509      -4.22178      0.125857
   9          6          0             -2.21358      -1.60355      -3.13953
  10          6          0             -1.06655     -0.959557      -3.57745
  11          6          0              2.54009      -2.18589      -1.20718
  12          6          0              1.18383      -1.33813      0.587127
  13          6          0             -1.95557      -4.13207       2.05309
  14          6          0            0.0635395      -5.09006       1.19776
  15          6          0            -0.919632      -5.03806       2.17117
  16          6          0              3.59164       -2.3379     -0.319725
  17          6          0              2.21502      -1.57012       1.49067
  18          6          0              3.41974      -2.06627       1.03008
  19          1          0             -3.07218      -2.86347      -1.64097
  20          1          0             0.982555      -0.52557      -3.15629
  21          1          0             0.767962      -4.27653     -0.642954
  22          1          0             -3.11044      -1.56876      -3.73816
  23          1          0             -1.06961     -0.420013      -4.51128
  24          1          0              2.65297      -2.46514       -2.2438
  25          1          0             -2.73139      -4.09083       2.80549
  26          1          0             0.866116      -5.80653       1.27123
  27          1          0            -0.886863       -5.7062       3.01721
  28          1          0              4.54117      -2.70666      -0.67532
  29          1          0               2.0719      -1.33076       2.53261
  30          1          0              4.22887      -2.23662       1.72224
  31          6          0           -0.0437643     -0.627473      0.985682
  32          8          0            -0.761966     -0.856299       1.92396
  33          8          0             -3.04702      -2.37287      0.850178
  34          1          0              -3.6159      -2.44916       1.62704
  35          6          0            -0.310566      0.523109     0.0485394
  36          7          0             0.627357       1.31863     -0.492577
  37          7          0             -1.48202      0.942779      -0.44968
  38          7          0             0.079811       2.18873      -1.34604
  39          6          0              1.99159       1.40033     -0.148031
  40          6          0             -1.19608        1.9545      -1.31799
  41          6          0             -2.83525      0.576162     -0.120761
  42          6          0              2.37037         1.521       1.19551
  43          6          0              2.98735       1.43975      -1.13042
  44          6          0             -2.31412       2.49434      -2.12962
  45          1          0             -2.84377     -0.468259      0.208506
  46          6          0             -3.78683      0.808323      -1.34063
  47          6          0             -3.36344       1.50413      0.950998
  48          6          0              3.70271       1.58923       1.55601
  49         17          0              1.16542       1.62027       2.41985
  50          6          0              4.32518       1.49959     -0.773317
  51         17          0              2.57483       1.42778      -2.78815
  52          1          0             -1.94687       2.91002      -3.06872
  53          1          0             -2.85145       3.27672      -1.57303
  54          8          0             -3.14415       1.40333      -2.44766
  55          6          0             -4.96529       1.65721     -0.808906
  56          1          0             -4.13248     -0.151073      -1.73007
  57          6          0             -4.53807       2.12599      0.546467
  58          6          0             -2.79956        1.7629       2.18548
  59          6          0               4.6816       1.55573      0.567654
  60          1          0              3.97947       1.67967       2.59378
  61          1          0              5.08375       1.51161      -1.53915
  62          1          0             -5.18411       2.47969      -1.49165
  63          1          0             -5.86754       1.04929     -0.733318
  64          6          0             -5.16657       3.03021       1.38253
  65          6          0             -3.43345       2.67111       3.02004
  66          1          0             -1.90099       1.25618       2.50189
  67         17          0              6.32966        1.6076       1.00861
  68          6          0             -4.60122       3.30151       2.61941
  69          1          0             -6.08075       3.51432       1.07641
  70          1          0             -3.01349       2.88566       3.99019
 ------------------------------------------------------------------------
 ! Dummy Rotational constant values and dummy SCF energy value...
 Rotational constants (GHZ):          11.4493930           9.4805599           5.3596246
 Standard basis: def2svp (5D, 7F)
 NAtoms=    70
 SCF Done:  E(RM062X) =  -517.7581093673431  A.U. after   14 cycles
 Mulliken charges:
               1
      1   C     0.813764
      2   C     0.712614
      3   C     0.749322
      4   C     0.854619
      5   C     0.577262
      6   C    0.0324386
      7   C     0.812531
      8   C      0.18552
      9   C   0.00652243
     10   C      0.15876
     11   C     0.878025
     12   C       0.5689
     13   C     0.228418
     14   C     0.484217
     15   C      0.94977
     16   C    0.0664777
     17   C    0.0556109
     18   C     0.866609
     19   H     0.279093
     20   H     0.319363
     21   H     0.579672
     22   H     0.683378
     23   H     0.245217
     24   H     0.556817
     25   H     0.308351
     26   H     0.737218
     27   H     0.436049
     28   H     0.602266
     29   H      0.13435
     30   H     0.583944
     31   C    0.0182356
     32   O     0.383289
     33   O     0.776586
     34   H    0.0220746
     35   C     0.829319
     36   N     0.490647
     37   N     0.155018
     38   N     0.404236
     39   C     0.125182
     40   C     0.561675
     41   C     0.244747
     42   C     0.246273
     43   C     0.301416
     44   C    0.0118559
     45   H     0.509872
     46   C     0.874672
     47   C     0.909353
     48   C     0.565606
     49  Cl     0.726476
     50   C     0.202607
     51  Cl     0.271426
     52   H      0.76375
     53   H     0.564938
     54   O     0.835202
     55   C     0.319021
     56   H     0.987557
     57   C     0.106425
     58   C     0.802104
     59   C     0.773131
     60   H     0.411999
     61   H     0.716579
     62   H     0.601117
     63   H     0.129705
     64   C     0.237516
     65   C    0.0916845
     66   H     0.196272
     67  Cl     0.325942
     68   C     0.337313
     69   H     0.394748
     70   H     0.557128
 Elapsed time: xx
 Normal termination of Gaussian 16 (fake executable) at 2026-02-24 17:48:19.819041.