 Entering Gaussian System, FakeGaussianRunner
 Input=/Users/taipanlan/PycharmProjects/chemsmart/crest_best_pka_A.com
 Output=/Users/taipanlan/PycharmProjects/chemsmart/crest_best_pka_A.log
 ******************************************
 Fake Gaussian Executable
 ******************************************
 %chk=crest_best_pka_A.chk
 %nprocshared=12
 %mem=40GB
 ------------------------
 # opt freq m062x def2svp
 ------------------------
 ------------------------
 None
 ------------------------
 Symbolic Z-matrix:
 Charge =  -1 Multiplicity = 1
 C       -1.0440166707   -2.3921211654   -1.1765767093
 C        0.1047624537   -1.6967413479   -1.6013453653
 C       -1.0128798417   -3.2879254912   -0.0053163255
 C        1.3145315588   -1.7138241388   -0.7587637208
 C       -2.1956491536   -2.3195387871   -1.9574947334
 C        0.0850945133   -1.0180841072   -2.8171631370
 C       -2.0177859335   -3.2670660274    0.9696450995
 C        0.0124508943   -4.2217818399    0.1258570417
 C       -2.2135839563   -1.6035487691   -3.1395296683
 C       -1.0665510930   -0.9595571050   -3.5774468549
 C        2.5400920741   -2.1858860815   -1.2071750125
 C        1.1838300825   -1.3381272125    0.5871267480
 C       -1.9555684177   -4.1320726770    2.0530866131
 C        0.0635394663   -5.0900618978    1.1977630783
 C       -0.9196318651   -5.0380578812    2.1711685897
 C        3.5916426493   -2.3378999847   -0.3197251272
 C        2.2150247173   -1.5701229140    1.4906743079
 C        3.4197412441   -2.0662682694    1.0300787605
 H       -3.0721784832   -2.8634742490   -1.6409739456
 H        0.9825547054   -0.5255698568   -3.1562929025
 H        0.7679618842   -4.2765326201   -0.6429544152
 H       -3.1104424531   -1.5687612066   -3.7381610570
 H       -1.0696068712   -0.4200127403   -4.5112753766
 H        2.6529663285   -2.4651401722   -2.2438005431
 H       -2.7313925548   -4.0908272834    2.8054872913
 H        0.8661162156   -5.8065275878    1.2712292506
 H       -0.8868628460   -5.7061993677    3.0172115549
 H        4.5411701424   -2.7066585184   -0.6753204361
 H        2.0719021247   -1.3307600343    2.5326097383
 H        4.2288666166   -2.2366174850    1.7222357682
 C       -0.0437643369   -0.6274725176    0.9856819116
 O       -0.7619659970   -0.8562987079    1.9239633498
 O       -3.0470173574   -2.3728700618    0.8501777316
 H       -3.6159024202   -2.4491642642    1.6270363949
 C       -0.3105658146    0.5231092666    0.0485393627
 N        0.6273565662    1.3186295728   -0.4925766829
 N       -1.4820218002    0.9427786602   -0.4496802496
 N        0.0798109893    2.1887272597   -1.3460354794
 C        1.9915852283    1.4003302459   -0.1480313627
 C       -1.1960777900    1.9544995724   -1.3179918171
 C       -2.8352452219    0.5761623303   -0.1207608337
 C        2.3703689764    1.5210011449    1.1955102507
 C        2.9873483595    1.4397518155   -1.1304199861
 C       -2.3141233019    2.4943443485   -2.1296151912
 H       -2.8437714712   -0.4682586982    0.2085062519
 C       -3.7868291333    0.8083234921   -1.3406265784
 C       -3.3634366095    1.5041303513    0.9509978809
 C        3.7027087397    1.5892325539    1.5560071334
 Cl       1.1654165974    1.6202704245    2.4198459806
 C        4.3251784326    1.4995868307   -0.7733170410
 Cl       2.5748319956    1.4277831087   -2.7881523792
 H       -1.9468681972    2.9100154955   -3.0687226385
 H       -2.8514474458    3.2767158272   -1.5730297738
 O       -3.1441529408    1.4033311288   -2.4476602910
 C       -4.9652944715    1.6572063723   -0.8089063450
 H       -4.1324806301   -0.1510725791   -1.7300690517
 C       -4.5380660463    2.1259878243    0.5464674044
 C       -2.7995612836    1.7629011966    2.1854814464
 C        4.6815978505    1.5557271849    0.5676537635
 H        3.9794727489    1.6796711975    2.5937819502
 H        5.0837471952    1.5116144946   -1.5391528713
 H       -5.1841130096    2.4796890005   -1.4916470233
 H       -5.8675364190    1.0492855150   -0.7333175316
 C       -5.1665720311    3.0302080619    1.3825255606
 C       -3.4334485849    2.6711137289    3.0200418477
 H       -1.9009912964    1.2561753745    2.5018906402
 Cl       6.3296631087    1.6075979187    1.0086128045
 C       -4.6012239518    3.3015149137    2.6194057153
 H       -6.0807488074    3.5143216606    1.0764103000
 H       -3.0134935268    2.8856563390    3.9901859072

                          Input orientation:                             
 ------------------------------------------------------------------------
 Center     Atomic      Atomic             Coordinates (Angstroms)       
 Number     Number       Type             X           Y           Z      
 ------------------------------------------------------------------------
   1          6          0             -1.04402      -2.39212      -1.17658
   2          6          0             0.104762      -1.69674      -1.60135
   3          6          0             -1.01288      -3.28793   -0.00531633
   4          6          0              1.31453      -1.71382     -0.758764
   5          6          0             -2.19565      -2.31954      -1.95749
   6          6          0            0.0850945      -1.01808      -2.81716
   7          6          0             -2.01779      -3.26707      0.969645
   8          6          0            0.0124509      -4.22178      0.125857
   9          6          0             -2.21358      -1.60355      -3.13953
  10          6          0             -1.06655     -0.959557      -3.57745
  11          6          0              2.54009      -2.18589      -1.20718
  12          6          0              1.18383      -1.33813      0.587127
  13          6          0             -1.95557      -4.13207       2.05309
  14          6          0            0.0635395      -5.09006       1.19776
  15          6          0            -0.919632      -5.03806       2.17117
  16          6          0              3.59164       -2.3379     -0.319725
  17          6          0              2.21502      -1.57012       1.49067
  18          6          0              3.41974      -2.06627       1.03008
  19          1          0             -3.07218      -2.86347      -1.64097
  20          1          0             0.982555      -0.52557      -3.15629
  21          1          0             0.767962      -4.27653     -0.642954
  22          1          0             -3.11044      -1.56876      -3.73816
  23          1          0             -1.06961     -0.420013      -4.51128
  24          1          0              2.65297      -2.46514       -2.2438
  25          1          0             -2.73139      -4.09083       2.80549
  26          1          0             0.866116      -5.80653       1.27123
  27          1          0            -0.886863       -5.7062       3.01721
  28          1          0              4.54117      -2.70666      -0.67532
  29          1          0               2.0719      -1.33076       2.53261
  30          1          0              4.22887      -2.23662       1.72224
  31          6          0           -0.0437643     -0.627473      0.985682
  32          8          0            -0.761966     -0.856299       1.92396
  33          8          0             -3.04702      -2.37287      0.850178
  34          1          0              -3.6159      -2.44916       1.62704
  35          6          0            -0.310566      0.523109     0.0485394
  36          7          0             0.627357       1.31863     -0.492577
  37          7          0             -1.48202      0.942779      -0.44968
  38          7          0             0.079811       2.18873      -1.34604
  39          6          0              1.99159       1.40033     -0.148031
  40          6          0             -1.19608        1.9545      -1.31799
  41          6          0             -2.83525      0.576162     -0.120761
  42          6          0              2.37037         1.521       1.19551
  43          6          0              2.98735       1.43975      -1.13042
  44          6          0             -2.31412       2.49434      -2.12962
  45          1          0             -2.84377     -0.468259      0.208506
  46          6          0             -3.78683      0.808323      -1.34063
  47          6          0             -3.36344       1.50413      0.950998
  48          6          0              3.70271       1.58923       1.55601
  49         17          0              1.16542       1.62027       2.41985
  50          6          0              4.32518       1.49959     -0.773317
  51         17          0              2.57483       1.42778      -2.78815
  52          1          0             -1.94687       2.91002      -3.06872
  53          1          0             -2.85145       3.27672      -1.57303
  54          8          0             -3.14415       1.40333      -2.44766
  55          6          0             -4.96529       1.65721     -0.808906
  56          1          0             -4.13248     -0.151073      -1.73007
  57          6          0             -4.53807       2.12599      0.546467
  58          6          0             -2.79956        1.7629       2.18548
  59          6          0               4.6816       1.55573      0.567654
  60          1          0              3.97947       1.67967       2.59378
  61          1          0              5.08375       1.51161      -1.53915
  62          1          0             -5.18411       2.47969      -1.49165
  63          1          0             -5.86754       1.04929     -0.733318
  64          6          0             -5.16657       3.03021       1.38253
  65          6          0             -3.43345       2.67111       3.02004
  66          1          0             -1.90099       1.25618       2.50189
  67         17          0              6.32966        1.6076       1.00861
  68          6          0             -4.60122       3.30151       2.61941
  69          1          0             -6.08075       3.51432       1.07641
  70          1          0             -3.01349       2.88566       3.99019
 ------------------------------------------------------------------------
 Stoichiometry    C37H24Cl3N3O3                       Standard orientation:                             
 ------------------------------------------------------------------------
 Center     Atomic      Atomic             Coordinates (Angstroms)       
 Number     Number       Type             X           Y           Z      
 ------------------------------------------------------------------------
   1          6          0             -1.04402      -2.39212      -1.17658
   2          6          0             0.104762      -1.69674      -1.60135
   3          6          0             -1.01288      -3.28793   -0.00531633
   4          6          0              1.31453      -1.71382     -0.758764
   5          6          0             -2.19565      -2.31954      -1.95749
   6          6          0            0.0850945      -1.01808      -2.81716
   7          6          0             -2.01779      -3.26707      0.969645
   8          6          0            0.0124509      -4.22178      0.125857
   9          6          0             -2.21358      -1.60355      -3.13953
  10          6          0             -1.06655     -0.959557      -3.57745
  11          6          0              2.54009      -2.18589      -1.20718
  12          6          0              1.18383      -1.33813      0.587127
  13          6          0             -1.95557      -4.13207       2.05309
  14          6          0            0.0635395      -5.09006       1.19776
  15          6          0            -0.919632      -5.03806       2.17117
  16          6          0              3.59164       -2.3379     -0.319725
  17          6          0              2.21502      -1.57012       1.49067
  18          6          0              3.41974      -2.06627       1.03008
  19          1          0             -3.07218      -2.86347      -1.64097
  20          1          0             0.982555      -0.52557      -3.15629
  21          1          0             0.767962      -4.27653     -0.642954
  22          1          0             -3.11044      -1.56876      -3.73816
  23          1          0             -1.06961     -0.420013      -4.51128
  24          1          0              2.65297      -2.46514       -2.2438
  25          1          0             -2.73139      -4.09083       2.80549
  26          1          0             0.866116      -5.80653       1.27123
  27          1          0            -0.886863       -5.7062       3.01721
  28          1          0              4.54117      -2.70666      -0.67532
  29          1          0               2.0719      -1.33076       2.53261
  30          1          0              4.22887      -2.23662       1.72224
  31          6          0           -0.0437643     -0.627473      0.985682
  32          8          0            -0.761966     -0.856299       1.92396
  33          8          0             -3.04702      -2.37287      0.850178
  34          1          0              -3.6159      -2.44916       1.62704
  35          6          0            -0.310566      0.523109     0.0485394
  36          7          0             0.627357       1.31863     -0.492577
  37          7          0             -1.48202      0.942779      -0.44968
  38          7          0             0.079811       2.18873      -1.34604
  39          6          0              1.99159       1.40033     -0.148031
  40          6          0             -1.19608        1.9545      -1.31799
  41          6          0             -2.83525      0.576162     -0.120761
  42          6          0              2.37037         1.521       1.19551
  43          6          0              2.98735       1.43975      -1.13042
  44          6          0             -2.31412       2.49434      -2.12962
  45          1          0             -2.84377     -0.468259      0.208506
  46          6          0             -3.78683      0.808323      -1.34063
  47          6          0             -3.36344       1.50413      0.950998
  48          6          0              3.70271       1.58923       1.55601
  49         17          0              1.16542       1.62027       2.41985
  50          6          0              4.32518       1.49959     -0.773317
  51         17          0              2.57483       1.42778      -2.78815
  52          1          0             -1.94687       2.91002      -3.06872
  53          1          0             -2.85145       3.27672      -1.57303
  54          8          0             -3.14415       1.40333      -2.44766
  55          6          0             -4.96529       1.65721     -0.808906
  56          1          0             -4.13248     -0.151073      -1.73007
  57          6          0             -4.53807       2.12599      0.546467
  58          6          0             -2.79956        1.7629       2.18548
  59          6          0               4.6816       1.55573      0.567654
  60          1          0              3.97947       1.67967       2.59378
  61          1          0              5.08375       1.51161      -1.53915
  62          1          0             -5.18411       2.47969      -1.49165
  63          1          0             -5.86754       1.04929     -0.733318
  64          6          0             -5.16657       3.03021       1.38253
  65          6          0             -3.43345       2.67111       3.02004
  66          1          0             -1.90099       1.25618       2.50189
  67         17          0              6.32966        1.6076       1.00861
  68          6          0             -4.60122       3.30151       2.61941
  69          1          0             -6.08075       3.51432       1.07641
  70          1          0             -3.01349       2.88566       3.99019
 ------------------------------------------------------------------------
 ! Dummy Rotational constant values and dummy SCF energy value...
 Rotational constants (GHZ):          11.4493930           9.4805599           5.3596246
 Standard basis: def2svp (5D, 7F)
 NAtoms=    70
 SCF Done:  E(RM062X) =  -243.2837640663903  A.U. after   14 cycles
 Mulliken charges:
               1
      1   C     0.886011
      2   C     0.254724
      3   C     0.101393
      4   C     0.141127
      5   C     0.788705
      6   C     0.944907
      7   C     0.212333
      8   C     0.609507
      9   C    0.0589873
     10   C     0.880944
     11   C     0.791667
     12   C     0.367699
     13   C     0.492336
     14   C     0.641495
     15   C     0.552897
     16   C     0.485679
     17   C     0.352629
     18   C     0.906396
     19   H     0.454464
     20   H     0.419973
     21   H     0.730578
     22   H     0.247524
     23   H    0.0776522
     24   H     0.788573
     25   H     0.764524
     26   H     0.689905
     27   H     0.621763
     28   H        0.445
     29   H     0.035107
     30   H     0.104909
     31   C     0.912502
     32   O     0.770503
     33   O     0.716133
     34   H     0.922536
     35   C     0.598265
     36   N     0.248328
     37   N     0.903269
     38   N    0.0941477
     39   C     0.443075
     40   C    0.0823998
     41   C     0.992236
     42   C     0.712536
     43   C     0.266061
     44   C     0.250887
     45   H     0.507463
     46   C     0.305265
     47   C     0.154199
     48   C     0.199966
     49  Cl     0.128188
     50   C     0.681701
     51  Cl     0.952911
     52   H     0.162246
     53   H    0.0217683
     54   O     0.898578
     55   C     0.332692
     56   H     0.896782
     57   C     0.484809
     58   C     0.569017
     59   C      0.38357
     60   H     0.707618
     61   H     0.372132
     62   H      0.21983
     63   H     0.375994
     64   C     0.336722
     65   C     0.615525
     66   H     0.127512
     67  Cl     0.737827
     68   C     0.339211
     69   H     0.782558
     70   H     0.807874
 Elapsed time: xx
 Normal termination of Gaussian 16 (fake executable) at 2026-02-24 17:45:09.697494.