 Entering Gaussian System, FakeGaussianRunner
 Input=/Users/taipanlan/PycharmProjects/chemsmart/crystal_prd_opt.com
 Output=/Users/taipanlan/PycharmProjects/chemsmart/crystal_prd_opt.log
 ******************************************
 Fake Gaussian Executable
 ******************************************
 %chk=crystal_prd_opt.chk
 %nprocshared=12
 %mem=40GB
 ----------------------------------------------------------
 # opt freq m062x def2svp scrf=(smd,solvent=dichloroethane)
 ----------------------------------------------------------
 ----------------------------------------------------------
 Gaussian job with default settings
 ----------------------------------------------------------
 Symbolic Z-matrix:
 Charge =  0 Multiplicity = 1
 C        0.0000000000    0.0000000000    0.0000000000
 H        1.0000000000    0.0000000000    0.0000000000
 H        0.0000000000    1.0000000000    0.0000000000
 H        0.0000000000    0.0000000000    1.0000000000
 H       -1.0000000000    0.0000000000    0.0000000000

                          Input orientation:                             
 ------------------------------------------------------------------------
 Center     Atomic      Atomic             Coordinates (Angstroms)       
 Number     Number       Type             X           Y           Z      
 ------------------------------------------------------------------------
   1          6          0                  0.0           0.0           0.0
   2          1          0                  1.0           0.0           0.0
   3          1          0                  0.0           1.0           0.0
   4          1          0                  0.0           0.0           1.0
   5          1          0                 -1.0           0.0           0.0
 ------------------------------------------------------------------------
 Stoichiometry    CH4                       Standard orientation:                             
 ------------------------------------------------------------------------
 Center     Atomic      Atomic             Coordinates (Angstroms)       
 Number     Number       Type             X           Y           Z      
 ------------------------------------------------------------------------
   1          6          0                  0.0           0.0           0.0
   2          1          0                  1.0           0.0           0.0
   3          1          0                  0.0           1.0           0.0
   4          1          0                  0.0           0.0           1.0
   5          1          0                 -1.0           0.0           0.0
 ------------------------------------------------------------------------
 ! Dummy Rotational constant values and dummy SCF energy value...
 Rotational constants (GHZ):          11.4493930           9.4805599           5.3596246
 Standard basis: def2svp (5D, 7F)
 NAtoms=    5
 SCF Done:  E(RM062X) =  -169.98957259780568  A.U. after   14 cycles
 Mulliken charges:
               1
      1   C    -0.079152
      2   H     0.043471
      3   H     0.018512
      4   H    -0.093283
      5   H     0.110452
 Sum of Mulliken charges =  0.00000
 Elapsed time:      0 days  0 hours  0 minutes  0.0 seconds.
 Normal termination of Gaussian 16 (fake executable) at Tue Jul 21 11:04:15 2026.