55
dppeFeCl2_opt_quintet_link_opt_link_hybrid_visualization.xyz    Empirical formula: C26H24Cl2FeP2    Energy(Hartree): -3869.013518    
P        1.4570880000   -0.3853470000   -0.2785420000
P       -1.7116810000   -0.1359000000   -0.2080000000
C        0.5137480000   -0.3259310000   -1.8828180000
C       -0.9339900000   -0.8089650000   -1.7400870000
C        2.0355420000    1.3107570000    0.0295790000
C        2.9515880000   -1.3396420000   -0.6767810000
C       -3.4685940000   -0.5241920000   -0.4054330000
C       -1.4983170000    1.6571080000   -0.3645250000
C        2.2662470000    2.2532120000   -0.9839220000
C        4.1745320000   -0.7423290000   -1.0108460000
C       -4.4448660000    0.4335470000   -0.7082830000
C       -1.6740520000    2.3325360000   -1.5837220000
C        2.2578560000    1.6709660000    1.3677680000
C        2.8434040000   -2.7392710000   -0.6490820000
C       -3.8394850000   -1.8677890000   -0.2280460000
C       -1.0480590000    2.3632520000    0.7602630000
C        2.7074950000    3.5377140000   -0.6625230000
C        5.2751200000   -1.5396240000   -1.3304440000
C       -5.7794240000    0.0470090000   -0.8499070000
C       -1.4010650000    3.6966620000   -1.6751320000
C        2.7073110000    2.9540230000    1.6841110000
C        3.9454240000   -3.5290540000   -0.9779960000
C       -5.1721240000   -2.2475060000   -0.3822410000
C       -0.7816980000    3.7316500000    0.6666750000
C        2.9287690000    3.8893040000    0.6713770000
C        5.1610440000   -2.9312530000   -1.3191190000
C       -6.1429940000   -1.2915660000   -0.6935120000
C       -0.9545230000    4.3954240000   -0.5481920000
H        1.0559900000   -0.9357020000   -2.6205600000
H        0.5231450000    0.7138860000   -2.2425110000
H       -0.9701410000   -1.9031560000   -1.6042060000
H       -1.5288190000   -0.5544120000   -2.6320830000
H        2.1114470000    1.9911630000   -2.0340210000
H        4.2703570000    0.3463620000   -1.0151880000
H       -4.1657440000    1.4835130000   -0.8260900000
H       -2.0219000000    1.7853720000   -2.4660290000
H        2.0347060000    0.9556690000    2.1650860000
H        1.8966510000   -3.2023850000   -0.3520960000
H       -3.0770190000   -2.6060380000    0.0438400000
H       -0.8732800000    1.8259530000    1.6994100000
H        2.8806480000    4.2656870000   -1.4582220000
H        6.2271420000   -1.0697010000   -1.5870410000
H       -6.5381370000    0.7976770000   -1.0818430000
H       -1.5350290000    4.2174780000   -2.6258230000
H        2.8717230000    3.2245400000    2.7293080000
H        3.8557450000   -4.6171780000   -0.9540900000
H       -5.4550860000   -3.2934240000   -0.2460820000
H       -0.4188130000    4.2724000000    1.5433340000
H        3.2733360000    4.8955890000    0.9204740000
H        6.0248330000   -3.5517340000   -1.5680850000
H       -7.1876570000   -1.5901410000   -0.8055630000
H       -0.7350170000    5.4630030000   -0.6228530000
Fe      -0.1902470000   -1.1992880000    1.3875610000
Cl      -0.5172530000   -3.3307430000    0.7392580000
Cl      -0.0431630000   -0.2122270000    3.3677710000
55
dppeFeCl2_opt_quintet_link_opt_link_hybrid_visualization.xyz    Empirical formula: C26H24Cl2FeP2    Energy(Hartree): -3869.013518    
P        1.4572810000   -0.3851750000   -0.2784530000
P       -1.7117520000   -0.1358140000   -0.2080610000
C        0.5139240000   -0.3255760000   -1.8827260000
C       -0.9338000000   -0.8087070000   -1.7400900000
C        2.0362740000    1.3107510000    0.0296650000
C        2.9515600000   -1.3397890000   -0.6767640000
C       -3.4685610000   -0.5245540000   -0.4055910000
C       -1.4989960000    1.6572780000   -0.3646070000
C        2.2668940000    2.2532630000   -0.9837910000
C        4.1746830000   -0.7427300000   -1.0106160000
C       -4.4450550000    0.4329530000   -0.7085030000
C       -1.6747510000    2.3325150000   -1.5839120000
C        2.2593510000    1.6706800000    1.3678070000
C        2.8429940000   -2.7393940000   -0.6493290000
C       -3.8391380000   -1.8682290000   -0.2282090000
C       -1.0494740000    2.3637600000    0.7602510000
C        2.7087400000    3.5375660000   -0.6624000000
C        5.2750880000   -1.5402580000   -1.3302740000
C       -5.7795050000    0.0460930000   -0.8501910000
C       -1.4024630000    3.6967760000   -1.6753730000
C        2.7094220000    2.9535190000    1.6841410000
C        3.9448310000   -3.5294030000   -0.9783040000
C       -5.1716820000   -2.2482720000   -0.3824630000
C       -0.7838530000    3.7323000000    0.6666200000
C        2.9307440000    3.8888810000    0.6714480000
C        5.1606390000   -2.9318560000   -1.3192200000
C       -6.1427620000   -1.2925730000   -0.6937970000
C       -0.9566510000    4.3958750000   -0.5483580000
H        1.0561970000   -0.9353040000   -2.6204830000
H        0.5233470000    0.7142570000   -2.2423730000
H       -0.9698210000   -1.9029060000   -1.6042270000
H       -1.5285920000   -0.5542420000   -2.6321340000
H        2.1115540000    1.9914310000   -2.0338650000
H        4.2707790000    0.3459370000   -1.0147530000
H       -4.1661780000    1.4829850000   -0.8263220000
H       -2.0221020000    1.7850940000   -2.4662500000
H        2.0363370000    0.9553410000    2.1651240000
H        1.8960960000   -3.2023020000   -0.3524790000
H       -3.0765070000   -2.6062830000    0.0437470000
H       -0.8747920000    1.8266550000    1.6995260000
H        2.8817940000    4.2655830000   -1.4580790000
H        6.2272580000   -1.0705460000   -1.5867080000
H       -6.5383950000    0.7965650000   -1.0821850000
H       -1.5364390000    4.2174320000   -2.6261500000
H        2.8744170000    3.2238140000    2.7293040000
H        3.8548760000   -4.6175090000   -0.9546120000
H       -5.4543980000   -3.2942550000   -0.2462920000
H       -0.4215820000    4.2733350000    1.5433560000
H        3.2757810000    4.8950060000    0.9205420000
H        6.0242810000   -3.5525230000   -1.5682330000
H       -7.1873470000   -1.5913970000   -0.8059020000
H       -0.7377230000    5.4635720000   -0.6230280000
Fe      -0.1902000000   -1.1987950000    1.3877190000
Cl      -0.5171840000   -3.3303170000    0.7396210000
Cl      -0.0432460000   -0.2115320000    3.3678490000
55
dppeFeCl2_opt_quintet_link_opt_link_hybrid_visualization.xyz    Empirical formula: C26H24Cl2FeP2    Energy(Hartree): -3869.013518    
P        1.4571260000   -0.3853590000   -0.2785180000
P       -1.7116530000   -0.1359830000   -0.2080220000
C        0.5138220000   -0.3260380000   -1.8828370000
C       -0.9339420000   -0.8090160000   -1.7401050000
C        2.0355500000    1.3107600000    0.0295860000
C        2.9516990000   -1.3395590000   -0.6767320000
C       -3.4685790000   -0.5242780000   -0.4054350000
C       -1.4983850000    1.6570540000   -0.3645360000
C        2.2657990000    2.2533670000   -0.9838600000
C        4.1746940000   -0.7421530000   -1.0104300000
C       -4.4448460000    0.4334940000   -0.7082560000
C       -1.6741600000    2.3323680000   -1.5837980000
C        2.2583720000    1.6708050000    1.3677410000
C        2.8435030000   -2.7391950000   -0.6493780000
C       -3.8394950000   -1.8678550000   -0.2280560000
C       -1.0482430000    2.3633330000    0.7601980000
C        2.7070370000    3.5378770000   -0.6624530000
C        5.2753460000   -1.5393700000   -1.3300190000
C       -5.7794050000    0.0469880000   -0.8498550000
C       -1.4013060000    3.6965120000   -1.6753300000
C        2.7078370000    2.9538500000    1.6840920000
C        3.9455840000   -3.5288900000   -0.9782840000
C       -5.1721530000   -2.2475470000   -0.3822200000
C       -0.7820080000    3.7317500000    0.6664840000
C        2.9287940000    3.8893060000    0.6714040000
C        5.1612660000   -2.9309980000   -1.3190490000
C       -6.1430020000   -1.2915890000   -0.6934640000
C       -0.9548570000    4.3954070000   -0.5484420000
H        1.0560760000   -0.9359300000   -2.6204730000
H        0.5233080000    0.7137290000   -2.2426740000
H       -0.9700770000   -1.9032070000   -1.6041970000
H       -1.5287710000   -0.5545100000   -2.6321110000
H        2.1106030000    1.9914750000   -2.0339410000
H        4.2704920000    0.3465410000   -1.0145050000
H       -4.1657030000    1.4834550000   -0.8260770000
H       -2.0219580000    1.7850940000   -2.4660470000
H        2.0355830000    0.9553920000    2.1650520000
H        1.8967020000   -3.2023680000   -0.3526300000
H       -3.0770400000   -2.6061130000    0.0438390000
H       -0.8735010000    1.8261390000    1.6994110000
H        2.8797930000    4.2659660000   -1.4581300000
H        6.2274160000   -1.0693930000   -1.5863340000
H       -6.5381180000    0.7976600000   -1.0817820000
H       -1.5353050000    4.2172240000   -2.6260730000
H        2.8726240000    3.2242350000    2.7292640000
H        3.8559240000   -4.6170210000   -0.9546570000
H       -5.4551320000   -3.2934590000   -0.2460470000
H       -0.4192350000    4.2726180000    1.5431150000
H        3.2733450000    4.8955940000    0.9205140000
H        6.0250980000   -3.5514220000   -1.5680080000
H       -7.1876740000   -1.5901350000   -0.8055010000
H       -0.7354650000    5.4630040000   -0.6231680000
Fe      -0.1902230000   -1.1992920000    1.3876120000
Cl      -0.5173310000   -3.3306920000    0.7391570000
Cl      -0.0431870000   -0.2123150000    3.3678760000
55
dppeFeCl2_opt_quintet_link_opt_link_hybrid_visualization.xyz    Empirical formula: C26H24Cl2FeP2    Energy(Hartree): -3869.013518    
P        1.4571260000   -0.3853590000   -0.2785180000
P       -1.7116530000   -0.1359830000   -0.2080220000
C        0.5138220000   -0.3260380000   -1.8828370000
C       -0.9339420000   -0.8090160000   -1.7401050000
C        2.0355500000    1.3107600000    0.0295860000
C        2.9516990000   -1.3395590000   -0.6767320000
C       -3.4685790000   -0.5242780000   -0.4054350000
C       -1.4983850000    1.6570540000   -0.3645360000
C        2.2657990000    2.2533670000   -0.9838600000
C        4.1746940000   -0.7421530000   -1.0104300000
C       -4.4448460000    0.4334940000   -0.7082560000
C       -1.6741600000    2.3323680000   -1.5837980000
C        2.2583720000    1.6708050000    1.3677410000
C        2.8435030000   -2.7391950000   -0.6493780000
C       -3.8394950000   -1.8678550000   -0.2280560000
C       -1.0482430000    2.3633330000    0.7601980000
C        2.7070370000    3.5378770000   -0.6624530000
C        5.2753460000   -1.5393700000   -1.3300190000
C       -5.7794050000    0.0469880000   -0.8498550000
C       -1.4013060000    3.6965120000   -1.6753300000
C        2.7078370000    2.9538500000    1.6840920000
C        3.9455840000   -3.5288900000   -0.9782840000
C       -5.1721530000   -2.2475470000   -0.3822200000
C       -0.7820080000    3.7317500000    0.6664840000
C        2.9287940000    3.8893060000    0.6714040000
C        5.1612660000   -2.9309980000   -1.3190490000
C       -6.1430020000   -1.2915890000   -0.6934640000
C       -0.9548570000    4.3954070000   -0.5484420000
H        1.0560760000   -0.9359300000   -2.6204730000
H        0.5233080000    0.7137290000   -2.2426740000
H       -0.9700770000   -1.9032070000   -1.6041970000
H       -1.5287710000   -0.5545100000   -2.6321110000
H        2.1106030000    1.9914750000   -2.0339410000
H        4.2704920000    0.3465410000   -1.0145050000
H       -4.1657030000    1.4834550000   -0.8260770000
H       -2.0219580000    1.7850940000   -2.4660470000
H        2.0355830000    0.9553920000    2.1650520000
H        1.8967020000   -3.2023680000   -0.3526300000
H       -3.0770400000   -2.6061130000    0.0438390000
H       -0.8735010000    1.8261390000    1.6994110000
H        2.8797930000    4.2659660000   -1.4581300000
H        6.2274160000   -1.0693930000   -1.5863340000
H       -6.5381180000    0.7976600000   -1.0817820000
H       -1.5353050000    4.2172240000   -2.6260730000
H        2.8726240000    3.2242350000    2.7292640000
H        3.8559240000   -4.6170210000   -0.9546570000
H       -5.4551320000   -3.2934590000   -0.2460470000
H       -0.4192350000    4.2726180000    1.5431150000
H        3.2733450000    4.8955940000    0.9205140000
H        6.0250980000   -3.5514220000   -1.5680080000
H       -7.1876740000   -1.5901350000   -0.8055010000
H       -0.7354650000    5.4630040000   -0.6231680000
Fe      -0.1902230000   -1.1992920000    1.3876120000
Cl      -0.5173310000   -3.3306920000    0.7391570000
Cl      -0.0431870000   -0.2123150000    3.3678760000
