 Entering Gaussian System, FakeGaussianRunner
 Input=/Users/hongjiseung/developer/chemsmart/h2o_opt_qmmm_fake.com
 Output=/Users/hongjiseung/developer/chemsmart/h2o_opt_qmmm_fake.log
 ******************************************
 Fake Gaussian Executable
 ******************************************
 %chk=h2o_opt_qmmm_fake.chk
 %nprocshared=1
 %mem=40GB
 -----------
 # opt oniom
 -----------
 -----------
 Gaussian QM/MM job
 -----------
 Symbolic Z-matrix:
 Charge =  0 Multiplicity = 1
 O        0.0000000000    0.0000000000    0.0000000000 H
 H        0.7586020000    0.0000000000    0.5042840000 L
 H       -0.7586020000    0.0000000000    0.5042840000 L

                          Input orientation:                             
 ------------------------------------------------------------------------
 Center     Atomic      Atomic             Coordinates (Angstroms)       
 Number     Number       Type             X           Y           Z      
 ------------------------------------------------------------------------
   1          8          0                  0.0           0.0           0.0
   2          1          0             0.758602           0.0      0.504284
   3          1          0            -0.758602           0.0      0.504284
 ------------------------------------------------------------------------
 Stoichiometry    H2O                       Standard orientation:                             
 ------------------------------------------------------------------------
 Center     Atomic      Atomic             Coordinates (Angstroms)       
 Number     Number       Type             X           Y           Z      
 ------------------------------------------------------------------------
   1          8          0                  0.0           0.0           0.0
   2          1          0             0.758602           0.0      0.504284
   3          1          0            -0.758602           0.0      0.504284
 ------------------------------------------------------------------------
 ! Dummy Rotational constant values and dummy SCF energy value...
 Rotational constants (GHZ):          11.4493930           9.4805599           5.3596246
 Standard basis: None (5D, 7F)
 NAtoms=    3
 SCF Done:  E(Unknow Method) =  -166.25531446030018  A.U. after   14 cycles
 Mulliken charges:
               1
      1   O     0.072802
      2   H    -0.065016
      3   H    -0.007786
 Sum of Mulliken charges =  0.00000
 Elapsed time:      0 days  0 hours  0 minutes  0.0 seconds.
 Normal termination of Gaussian 16 (fake executable) at Mon Jul 13 23:27:00 2026.