 Entering Gaussian System, Link 0=/project/xlzhang/shared/bin/g16/g16
 Input=/lustre/project/xlzhang/jingyi/chemsmart/test_pka/gaussian/pka_scale_frag3_pka_HA_sp.com
 Output=/lustre/project/xlzhang/jingyi/chemsmart/test_pka/gaussian/pka_scale_frag3_pka_HA_sp.log
 Initial command:
 /project/xlzhang/shared/bin/g16/l1.exe "/lustre/project/xlzhang/jingyi/chemsmart/test_pka/gaussian/Gau-780444.inp" -scrdir="/lustre/project/xlzhang/jingyi/chemsmart/test_pka/gaussian/"
 Entering Link 1 = /project/xlzhang/shared/bin/g16/l1.exe PID=    780445.
  
 Copyright (c) 1988-2017, Gaussian, Inc.  All Rights Reserved.
  
 This is part of the Gaussian(R) 16 program.  It is based on
 the Gaussian(R) 09 system (copyright 2009, Gaussian, Inc.),
 the Gaussian(R) 03 system (copyright 2003, Gaussian, Inc.),
 the Gaussian(R) 98 system (copyright 1998, Gaussian, Inc.),
 the Gaussian(R) 94 system (copyright 1995, Gaussian, Inc.),
 the Gaussian 92(TM) system (copyright 1992, Gaussian, Inc.),
 the Gaussian 90(TM) system (copyright 1990, Gaussian, Inc.),
 the Gaussian 88(TM) system (copyright 1988, Gaussian, Inc.),
 the Gaussian 86(TM) system (copyright 1986, Carnegie Mellon
 University), and the Gaussian 82(TM) system (copyright 1983,
 Carnegie Mellon University). Gaussian is a federally registered
 trademark of Gaussian, Inc.
  
 This software contains proprietary and confidential information,
 including trade secrets, belonging to Gaussian, Inc.
  
 This software is provided under written license and may be
 used, copied, transmitted, or stored only in accord with that
 written license.
  
 The following legend is applicable only to US Government
 contracts under FAR:
  
                    RESTRICTED RIGHTS LEGEND
  
 Use, reproduction and disclosure by the US Government is
 subject to restrictions as set forth in subparagraphs (a)
 and (c) of the Commercial Computer Software - Restricted
 Rights clause in FAR 52.227-19.
  
 Gaussian, Inc.
 340 Quinnipiac St., Bldg. 40, Wallingford CT 06492
  
  
 ---------------------------------------------------------------
 Warning -- This program may not be used in any manner that
 competes with the business of Gaussian, Inc. or will provide
 assistance to any competitor of Gaussian, Inc.  The licensee
 of this program is prohibited from giving any competitor of
 Gaussian, Inc. access to this program.  By using this program,
 the user acknowledges that Gaussian, Inc. is engaged in the
 business of creating and licensing software in the field of
 computational chemistry and represents and warrants to the
 licensee that it is not a competitor of Gaussian, Inc. and that
 it will not use this program in any manner prohibited above.
 ---------------------------------------------------------------
  

 Cite this work as:
 Gaussian 16, Revision B.01,
 M. J. Frisch, G. W. Trucks, H. B. Schlegel, G. E. Scuseria, 
 M. A. Robb, J. R. Cheeseman, G. Scalmani, V. Barone, 
 G. A. Petersson, H. Nakatsuji, X. Li, M. Caricato, A. V. Marenich, 
 J. Bloino, B. G. Janesko, R. Gomperts, B. Mennucci, H. P. Hratchian, 
 J. V. Ortiz, A. F. Izmaylov, J. L. Sonnenberg, D. Williams-Young, 
 F. Ding, F. Lipparini, F. Egidi, J. Goings, B. Peng, A. Petrone, 
 T. Henderson, D. Ranasinghe, V. G. Zakrzewski, J. Gao, N. Rega, 
 G. Zheng, W. Liang, M. Hada, M. Ehara, K. Toyota, R. Fukuda, 
 J. Hasegawa, M. Ishida, T. Nakajima, Y. Honda, O. Kitao, H. Nakai, 
 T. Vreven, K. Throssell, J. A. Montgomery, Jr., J. E. Peralta, 
 F. Ogliaro, M. J. Bearpark, J. J. Heyd, E. N. Brothers, K. N. Kudin, 
 V. N. Staroverov, T. A. Keith, R. Kobayashi, J. Normand, 
 K. Raghavachari, A. P. Rendell, J. C. Burant, S. S. Iyengar, 
 J. Tomasi, M. Cossi, J. M. Millam, M. Klene, C. Adamo, R. Cammi, 
 J. W. Ochterski, R. L. Martin, K. Morokuma, O. Farkas, 
 J. B. Foresman, and D. J. Fox, Gaussian, Inc., Wallingford CT, 2016.
 
 ******************************************
 Gaussian 16:  ES64L-G16RevB.01 20-Dec-2017
                10-Jun-2026 
 ******************************************
 %chk=pka_scale_frag3_pka_HA_sp.chk
 %nprocshared=64
 Will use up to   64 processors via shared memory.
 %mem=180GB
 -------------------------------------------------
 # mn15 def2svp scrf=(smd,solvent=TetraHydroFuran)
 -------------------------------------------------
 1/38=1,172=1/1;
 2/12=2,17=6,18=5,40=1/2;
 3/5=43,7=101,11=2,25=1,30=1,70=32201,72=20,74=-73/1,2,3;
 4//1;
 5/5=2,38=5,53=20/2;
 6/7=2,8=2,9=2,10=2,28=1/1;
 99/5=1,9=1/99;
 ----------------------------
 Gaussian pKa calculation job
 ----------------------------
 Symbolic Z-matrix:
 Charge =  0 Multiplicity = 1
 C                    -1.39186  -0.11317   0. 
 C                     0.09106   0.12145  0. 
 O                     0.63676   1.19576   0. 
 O                     0.78076  -1.0328    0. 
 H                    -1.91547   0.84791  -0.00001 
 H                    -1.6725   -0.70192   0.8844 
 H                    -1.6725   -0.70194  -0.88439 
 H                     1.72512  -0.79746   0. 
 
                          Input orientation:                          
 ---------------------------------------------------------------------
 Center     Atomic      Atomic             Coordinates (Angstroms)
 Number     Number       Type             X           Y           Z
 ---------------------------------------------------------------------
      1          6           0       -1.391862   -0.113174    0.000000
      2          6           0        0.091060    0.121452   -0.000001
      3          8           0        0.636762    1.195764    0.000000
      4          8           0        0.780758   -1.032796    0.000000
      5          1           0       -1.915473    0.847910   -0.000007
      6          1           0       -1.672498   -0.701924    0.884395
      7          1           0       -1.672497   -0.701938   -0.884387
      8          1           0        1.725123   -0.797462    0.000001
 ---------------------------------------------------------------------
                    Distance matrix (angstroms):
                    1          2          3          4          5
     1  C    0.000000
     2  C    1.501368   0.000000
     3  O    2.414256   1.204963   0.000000
     4  O    2.359233   1.344608   2.233207   0.000000
     5  H    1.094464   2.133991   2.575831   3.287357   0.000000
     6  H    1.098880   2.137812   3.117059   2.628706   1.800886
     7  H    1.098881   2.137813   3.117064   2.628701   1.800887
     8  H    3.191214   1.874717   2.271008   0.973246   3.995146
                    6          7          8
     6  H    0.000000
     7  H    1.768782   0.000000
     8  H    3.512137   3.512134   0.000000
 Stoichiometry    C2H4O2
 Framework group  C1[X(C2H4O2)]
 Deg. of freedom    18
 Full point group                 C1      NOp   1
 Largest Abelian subgroup         C1      NOp   1
 Largest concise Abelian subgroup C1      NOp   1
                         Standard orientation:                         
 ---------------------------------------------------------------------
 Center     Atomic      Atomic             Coordinates (Angstroms)
 Number     Number       Type             X           Y           Z
 ---------------------------------------------------------------------
      1          6           0       -1.391862   -0.113173    0.000000
      2          6           0        0.091060    0.121452   -0.000001
      3          8           0        0.636763    1.195764    0.000000
      4          8           0        0.780757   -1.032796    0.000000
      5          1           0       -1.915473    0.847911   -0.000007
      6          1           0       -1.672499   -0.701923    0.884395
      7          1           0       -1.672498   -0.701937   -0.884387
      8          1           0        1.725122   -0.797463    0.000001
 ---------------------------------------------------------------------
 Rotational constants (GHZ):          11.4514940           9.4772396           5.3590056
 Standard basis: def2SVP (5D, 7F)
 There are    80 symmetry adapted cartesian basis functions of A   symmetry.
 There are    76 symmetry adapted basis functions of A   symmetry.
    76 basis functions,   128 primitive gaussians,    80 cartesian basis functions
    16 alpha electrons       16 beta electrons
       nuclear repulsion energy       121.3416346231 Hartrees.
 NAtoms=    8 NActive=    8 NUniq=    8 SFac= 1.00D+00 NAtFMM=   60 NAOKFM=F Big=F
 Integral buffers will be    131072 words long.
 Raffenetti 2 integral format.
 Two-electron integral symmetry is turned on.
 ------------------------------------------------------------------------------
 Polarizable Continuum Model (PCM)
 =================================
 Model                : PCM.
 Atomic radii         : SMD-Coulomb.
 Polarization charges : Total charges.
 Charge compensation  : None.
 Solution method      : On-the-fly selection.
 Cavity type          : VdW (van der Waals Surface) (Alpha=1.000).
 Cavity algorithm     : GePol (No added spheres)
                        Default sphere list used, NSphG=    8.
                        Lebedev-Laikov grids with approx.  5.0 points / Ang**2.
                        Smoothing algorithm: York/Karplus (Gamma=1.0000).
                        Polarization charges: spherical gaussians, with
                                              point-specific exponents (IZeta= 3).
                        Self-potential: point-specific (ISelfS= 7).
                        Self-field    : sphere-specific E.n sum rule (ISelfD= 2).
 Solvent              : TetraHydroFuran, Eps=   7.425700 Eps(inf)=   1.974025
 ------------------------------------------------------------------------------
 Spheres list:
 ISph  on   Nord     Re0    Alpha      Xe            Ye            Ze
    1   C      1    1.8500  1.000     -1.391862     -0.113173      0.000000
    2   C      2    1.8500  1.000      0.091060      0.121452     -0.000001
    3   O      3    2.2940  1.000      0.636763      1.195764      0.000000
    4   O      4    2.2940  1.000      0.780757     -1.032796      0.000000
    5   H      5    1.2000  1.000     -1.915473      0.847911     -0.000007
    6   H      6    1.2000  1.000     -1.672499     -0.701923      0.884395
    7   H      7    1.2000  1.000     -1.672498     -0.701937     -0.884387
    8   H      8    1.2000  1.000      1.725122     -0.797463      0.000001
 ------------------------------------------------------------------------------
 ------------------------------------------------------------------------------
 Atomic radii for non-electrostatic terms: SMD-CDS.
 ------------------------------------------------------------------------------
 Nuclear repulsion after PCM non-electrostatic terms =      121.3390721548 Hartrees.
 One-electron integrals computed using PRISM.
   1 Symmetry operations used in ECPInt.
 ECPInt:  NShTT=     666 NPrTT=    2410 LenC2=     666 LenP2D=    2114.
 LDataN:  DoStor=T MaxTD1= 4 Len=   56
 NBasis=    76 RedAO= T EigKep=  3.50D-03  NBF=    76
 NBsUse=    76 1.00D-06 EigRej= -1.00D+00 NBFU=    76
 ExpMin= 1.22D-01 ExpMax= 2.27D+03 ExpMxC= 3.41D+02 IAcc=3 IRadAn=         5 AccDes= 0.00D+00
 Harris functional with IExCor= 1009 and IRadAn=       5 diagonalized for initial guess.
 HarFok:  IExCor= 1009 AccDes= 0.00D+00 IRadAn=         5 IDoV= 1 UseB2=F ITyADJ=14
 ICtDFT=  3500011 ScaDFX=  1.000000  1.000000  1.000000  1.000000
 FoFCou: FMM=F IPFlag=           0 FMFlag=      100000 FMFlg1=           0
         NFxFlg=           0 DoJE=T BraDBF=F KetDBF=T FulRan=T
         wScrn=  0.000000 ICntrl=       500 IOpCl=  0 I1Cent=   200000004 NGrid=           0
         NMat0=    1 NMatS0=      1 NMatT0=    0 NMatD0=    1 NMtDS0=    0 NMtDT0=    0
 Petite list used in FoFCou.
 Keep R1 ints in memory in canonical form, NReq=62306637.
 Requested convergence on RMS density matrix=1.00D-08 within 128 cycles.
 Requested convergence on MAX density matrix=1.00D-06.
 Requested convergence on             energy=1.00D-06.
 No special actions if energy rises.
 Inv3:  Mode=1 IEnd=     2286387.
 Iteration    1 A*A^-1 deviation from unit magnitude is 3.55D-15 for    865.
 Iteration    1 A*A^-1 deviation from orthogonality  is 1.93D-15 for    192     80.
 Iteration    1 A^-1*A deviation from unit magnitude is 3.55D-15 for    865.
 Iteration    1 A^-1*A deviation from orthogonality  is 1.79D-15 for    223    191.
 Error on total polarization charges =  0.00920
 SCF Done:  E(RMN15) =  -228.652575853     A.U. after   11 cycles
            NFock= 11  Conv=0.92D-08     -V/T= 2.0096
 SMD-CDS (non-electrostatic) energy       (kcal/mol) =      -1.61
 (included in total energy above)

 **********************************************************************

            Population analysis using the SCF Density.

 **********************************************************************

 Orbital symmetries:
       Occupied  (A) (A) (A) (A) (A) (A) (A) (A) (A) (A) (A) (A)
                 (A) (A) (A) (A)
       Virtual   (A) (A) (A) (A) (A) (A) (A) (A) (A) (A) (A) (A)
                 (A) (A) (A) (A) (A) (A) (A) (A) (A) (A) (A) (A)
                 (A) (A) (A) (A) (A) (A) (A) (A) (A) (A) (A) (A)
                 (A) (A) (A) (A) (A) (A) (A) (A) (A) (A) (A) (A)
                 (A) (A) (A) (A) (A) (A) (A) (A) (A) (A) (A) (A)
 The electronic state is 1-A.
 Alpha  occ. eigenvalues --  -18.85155 -18.79850 -10.18068 -10.05100  -1.13186
 Alpha  occ. eigenvalues --   -1.03484  -0.78375  -0.64108  -0.52227  -0.51836
 Alpha  occ. eigenvalues --   -0.51216  -0.43880  -0.42814  -0.42109  -0.36061
 Alpha  occ. eigenvalues --   -0.31934
 Alpha virt. eigenvalues --    0.05023   0.11870   0.14596   0.18296   0.19664
 Alpha virt. eigenvalues --    0.26134   0.30450   0.35513   0.48024   0.49455
 Alpha virt. eigenvalues --    0.54085   0.56429   0.56622   0.63190   0.66407
 Alpha virt. eigenvalues --    0.70560   0.70625   0.71320   0.73058   0.85502
 Alpha virt. eigenvalues --    0.92467   0.99127   1.01371   1.06671   1.15465
 Alpha virt. eigenvalues --    1.23992   1.24441   1.32011   1.41509   1.44789
 Alpha virt. eigenvalues --    1.54499   1.57473   1.62360   1.64897   1.69305
 Alpha virt. eigenvalues --    1.74230   1.79112   1.80740   1.93081   1.96566
 Alpha virt. eigenvalues --    2.04734   2.07254   2.18267   2.31148   2.35088
 Alpha virt. eigenvalues --    2.41675   2.49796   2.64331   2.68031   2.72780
 Alpha virt. eigenvalues --    2.82609   2.83586   2.89291   2.94927   3.08609
 Alpha virt. eigenvalues --    3.18051   3.19806   3.47962   3.59161   3.72053
          Condensed to atoms (all electrons):
               1          2          3          4          5          6
     1  C    4.760271   0.352068  -0.091978  -0.119852   0.358750   0.358747
     2  C    0.352068   4.504086   0.722962   0.374691  -0.001212   0.002297
     3  O   -0.091978   0.722962   7.677910  -0.085098   0.006705   0.001687
     4  O   -0.119852   0.374691  -0.085098   7.706590   0.005081   0.004072
     5  H    0.358750  -0.001212   0.006705   0.005081   0.607631  -0.011548
     6  H    0.358747   0.002297   0.001687   0.004072  -0.011548   0.589092
     7  H    0.358746   0.002297   0.001687   0.004072  -0.011548  -0.009835
     8  H    0.013630  -0.006473   0.006780   0.311695  -0.000595  -0.000458
               7          8
     1  C    0.358746   0.013630
     2  C    0.002297  -0.006473
     3  O    0.001687   0.006780
     4  O    0.004072   0.311695
     5  H   -0.011548  -0.000595
     6  H   -0.009835  -0.000458
     7  H    0.589092  -0.000458
     8  H   -0.000458   0.471501
 Mulliken charges:
               1
     1  C    0.009619
     2  C    0.049286
     3  O   -0.240656
     4  O   -0.201252
     5  H    0.046736
     6  H    0.065945
     7  H    0.065945
     8  H    0.204377
 Sum of Mulliken charges =  -0.00000
 Mulliken charges with hydrogens summed into heavy atoms:
               1
     1  C    0.188245
     2  C    0.049286
     3  O   -0.240656
     4  O    0.003125
 Electronic spatial extent (au):  <R**2>=            251.6636
 Charge=             -0.0000 electrons
 Dipole moment (field-independent basis, Debye):
    X=             -0.6644    Y=             -1.7885    Z=              0.0000  Tot=              1.9079
 Quadrupole moment (field-independent basis, Debye-Ang):
   XX=            -18.4380   YY=            -28.0805   ZZ=            -22.6355
   XY=             -2.2345   XZ=             -0.0000   YZ=             -0.0000
 Traceless Quadrupole moment (field-independent basis, Debye-Ang):
   XX=              4.6133   YY=             -5.0292   ZZ=              0.4158
   XY=             -2.2345   XZ=             -0.0000   YZ=             -0.0000
 Octapole moment (field-independent basis, Debye-Ang**2):
  XXX=             12.7012  YYY=             -2.5003  ZZZ=              0.0000  XYY=             -1.3399
  XXY=             -4.9985  XXZ=              0.0000  XZZ=              1.1999  YZZ=             -0.6839
  YYZ=             -0.0000  XYZ=             -0.0000
 Hexadecapole moment (field-independent basis, Debye-Ang**3):
 XXXX=           -142.1293 YYYY=           -119.9244 ZZZZ=            -25.3482 XXXY=            -11.0454
 XXXZ=             -0.0000 YYYX=             -4.0069 YYYZ=              0.0000 ZZZX=             -0.0000
 ZZZY=             -0.0000 XXYY=            -42.2097 XXZZ=            -29.8614 YYZZ=            -22.5442
 XXYZ=             -0.0000 YYXZ=              0.0000 ZZXY=              1.0688
 N-N= 1.213390721548D+02 E-N=-7.788459111734D+02  KE= 2.264846492994D+02
 1\1\GINC-CHPC-CN078\SP\RMN15\def2SVP\C2H4O2\S1155246976\10-Jun-2026\0\
 \# mn15 def2svp scrf=(smd,solvent=TetraHydroFuran)\\Gaussian pKa calcu
 lation job\\0,1\C,0,-1.391862,-0.113174,0.\C,0,0.09106,0.121452,-0.000
 001\O,0,0.636762,1.195764,0.\O,0,0.780758,-1.032796,0.\H,0,-1.915473,0
 .84791,-0.000007\H,0,-1.672498,-0.701924,0.884395\H,0,-1.672497,-0.701
 938,-0.884387\H,0,1.725123,-0.797462,0.000001\\Version=ES64L-G16RevB.0
 1\State=1-A\HF=-228.6525759\RMSD=9.200e-09\Dipole=-0.2613914,-0.703639
 3,0.0000013\Quadrupole=3.4298957,-3.7390619,0.3091662,-1.6613112,-0.00
 00018,-0.0000016\PG=C01 [X(C2H4O2)]\\@


 IF OTHER PEOPLE ARE GOING TO TALK, CONVERSATION IS SIMPLY IMPOSSIBLE.

                                               -- WHISTLER'S PRINCIPLE
 Job cpu time:       0 days  0 hours  2 minutes 12.5 seconds.
 Elapsed time:       0 days  0 hours  0 minutes  2.3 seconds.
 File lengths (MBytes):  RWF=     20 Int=      0 D2E=      0 Chk=      2 Scr=      1
 Normal termination of Gaussian 16 at Wed Jun 10 15:27:18 2026.
