
                                 *****************
                                 * O   R   C   A *
                                 *****************

                                            #,                                       
                                            ###                                      
                                            ####                                     
                                            #####                                    
                                            ######                                   
                                           ########,                                 
                                     ,,################,,,,,                         
                               ,,#################################,,                 
                          ,,##########################################,,             
                       ,#########################################, ''#####,          
                    ,#############################################,,   '####,        
                  ,##################################################,,,,####,       
                ,###########''''           ''''###############################       
              ,#####''   ,,,,##########,,,,          '''####'''          '####       
            ,##' ,,,,###########################,,,                        '##       
           ' ,,###''''                  '''############,,,                           
         ,,##''                                '''############,,,,        ,,,,,,###''
      ,#''                                            '''#######################'''  
     '                                                          ''''####''''         
             ,#######,   #######,   ,#######,      ##                                
            ,#'     '#,  ##    ##  ,#'     '#,    #''#        ,####,    ,#,          
            ##       ##  ##   ,#'  ##            #'  '#       #'       ,# #          
            ##       ##  #######   ##           ,######,      #####,      #          
            '#,     ,#'  ##    ##  '#,     ,#' ,#      #,     #,   #      #          
             '#######'   ##     ##  '#######'  #'      '#     '####' #    #          



                #########################################################
                #                        -***-                          #
                #          Department of theory and spectroscopy        #
                #                                                       #
                #                      Frank Neese                      #
                #                                                       #
                #     Directorship, Architecture, Infrastructure        #
                #                    SHARK, DRIVERS                     #
                #        Core code/Algorithms in most modules           #
                #                                                       #
                #        Max Planck Institute fuer Kohlenforschung      #
                #                Kaiser Wilhelm Platz 1                 #
                #                 D-45470 Muelheim/Ruhr                 #
                #                      Germany                          #
                #                                                       #
                #                  All rights reserved                  #
                #                        -***-                          #
                #########################################################


                         Program Version 6.1.0  -  RELEASE   -
                                (GIT: $679e74b$)
                          ($2025-06-10 18:02:51 +0200$)


 With contributions from (in alphabetic order):
[Max-Planck-Institut fuer Kohlenforschung]                               
  Daniel Aravena         : Magnetic Suceptibility                        
  Michael Atanasov       : Ab Initio Ligand Field Theory (pilot matlab implementation)
  Alexander A. Auer      : GIAO ZORA, VPT2 properties, NMR spectrum      
  Ute Becker             : All parallelization in ORCA, NUMFREQ, NUMCALC 
  Giovanni Bistoni       : ED, misc. LED, open-shell LED, HFLD           
  Dmytro Bykov           : pre 5.0 version of the SCF Hessian            
  Marcos Casanova-Páez   : Triplet and SCS-CIS(D). UHF-(DLPNO)-IP/EA/STEOM-CCSD. UHF-CVS-IP/STEOM-CCSD   
  Vijay G. Chilkuri      : MRCI spin determinant printing, contributions to CSF-ICE 
  Pauline Colinet        : FMM embedding                                 
  Dipayan Datta          : RHF DLPNO-CCSD density                        
  Achintya Kumar Dutta   : EOM-CC, STEOM-CC                              
  Nicolas Foglia         : Exact transition moments, OPA infrastructure, MCD improvements    
  Dmitry Ganyushin       : Spin-Orbit,Spin-Spin,Magnetic field MRCI      
  Miquel Garcia-Rates    : C-PCM and meta-GGA Hessian, CCSD/C-PCM, Gaussian charge scheme 
  Tiago L. C. Gouveia    : GS-ROHF, GS-ROCIS                             
  Yang Guo               : DLPNO-NEVPT2, F12-NEVPT2, CIM, IAO-localization        
  Andreas Hansen         : Spin unrestricted coupled pair/coupled cluster methods 
  Ingolf Harden          : AUTO-CI MPn and infrastructure                
  Benjamin Helmich-Paris : MC-RPA, TRAH-(SCF,CASSCF), AVAS, COSX integrals, SCF dyn. polar., MC-PDFT, srDFT 
  Lee Huntington         : MR-EOM, pCC                                   
  Robert Izsak           : Overlap fitted RIJCOSX, COSX-SCS-MP3, EOM     
  Riya Kayal             : Wick's Theorem for AUTO-CI, AUTO-CI UHF-CCSDT 
  Emily Kempfer          : AUTO-CI RHF CISDT and CCSDT, approximate NEVPT4
  Christian Kollmar      : KDIIS, OOCD, Brueckner-CCSD(T), CCSD density, CASPT2, CASPT2-K, improved NEVPT2 
  Axel Koslowski         : Symmetry handling                             
  Simone Kossmann        : meta-GGA functionals, TD-DFT gradient, OOMP2, (MP2 Hessian; deprecated post 5.0) 
  Lucas Lang             : DCDCAS, Hyperfine gauge corrections, ICE-SOC+SSC
  Marvin Lechner         : AUTO-CI (C++ implementation), FIC-MRCC        
  Spencer Leger          : CASSCF response                               
  Dagmar Lenk            : GEPOL surface, SMD, ORCA-2-JSON               
  Dimitrios Liakos       : Extrapolation schemes; Compound Job, Property file
  Dimitrios Manganas     : Further ROCIS development; embedding schemes. LFT, Crystal Embedding 
  Dimitrios Pantazis     : SARC Basis sets                               
  Anastasios Papadopoulos: AUTO-CI, single reference methods and gradients 
  Taras Petrenko         : pre 6.0 DFT Hessian and TD-DFT gradient,  ECA, NRVS 
  Petra Pikulova         : Analytic Raman intensities                    
  Peter Pinski           : DLPNO-MP2, DLPNO-MP2 Gradient                 
  Shashank Vittal Rao    : ES-AILFT, MagRelax                            
  Christoph Reimann      : Effective Core Potentials                     
  Marius Retegan         : Local ZFS, SOC                                
  Christoph Riplinger    : Optimizer, TS searches, QM/MM, DLPNO-CCSD(T), (RO)-DLPNO pert. Triples 
  Michael Roemelt        : Original ROCIS implementation, recursive CI coupling coefficients
  Masaaki Saitow         : Open-shell DLPNO-CCSD energy and density      
  Barbara Sandhoefer     : DKH picture change effects                    
  Yorick L. A. Schmerwitz: GMF and freeze-and-release deltaSCF, NEB S-IDPP initial path                    
  Kantharuban Sivalingam : CASSCF convergence/infrastructure, NEVPT2, NEVPT3, NEVPT4(SD), FIC-MRCI and CEPA variants
  Bernardo de Souza      : ESD, SOC TD-DFT                               
  Georgi L. Stoychev     : AutoAux, RI-MP2 NMR, DLPNO-MP2 response, X2C  
  Van Anh Tran           : RI-MP2 g-tensors                              
  Willem Van den Heuvel  : Paramagnetic NMR                              
  Zikuan Wang            : NOTCH, Electric field optimization            
  Frank Wennmohs         : Technical directorship and infrastructure     
  Hang Xu                : AUTO-CI-Response properties                   
                                                                         
[FACCTs GmbH]                                                            
  Markus Bursch, Nicolas Foglia, Miquel Garcia-Rates, Ingolf Harden, Hagen Neugebauer, Anastasios Papadopoulos, 
  Christoph Riplinger, Bernardo de Souza, Georgi L. Stoychev                                                    
                                                                 
  APM, various basis sets, CI-OPT, improved COSX, DLPNO-Multilevel,           
  DOCKER, DRACO, updates on ESD, Fragmentator, GOAT, IRC, LR-CPCM, L-BFGS, MBIS, meta-GGA TD-DFT gradient, ML-optimized integration grids, 
  MM, NACMEs, nearIR, NEB, NEB-TS, NL-DFT gradient (VV10), 2- and 3-layer-ONIOM, interface openCOSMO-RS, QMMM,   
  Crystal-QMMM, RESP, rigid body optimization, SF, symmetry and pop. for TD-DFT, various functionals, SOLVATOR                                   
                                                                         
[Other institutions]                                                     
  V. Asgeirsson          : NEB                                           
  Christoph Bannwarth    : sTDA-DFT, sTD-DFT, PBEh-3c, B97-3c, D3        
  Giovanni Bistoni       : ETS/NOCV, ADLD/ADEX, COVALED                  
  Martin Brehm           : Molecular dynamics                            
  Ronald Cardenas        : ETS/NOCV                                      
  Martina Colucci        : COVALED                                       
  Sebastian Ehlert       : rSCAN, r2SCAN, r2SCAN-3c, D4, dhf basis sets  
  Marvin Friede          : D4 for Fr, Ra, Ac-Lr                          
  Lars Goerigk           : TD-DFT with DH, B97 family of functionals     
  Stefan Grimme          : VdW corrections, initial TS optimization, DFT functionals, gCP, sTDA/sTD-DF 
  Waldemar Hujo          : DFT-NL                                        
  H. Jonsson             : NEB                                           
  Holger Kruse           : gCP                                           
  Marcel Mueller         : wB97X-3c, vDZP basis set                      
  Hagen Neugebauer       : wr2SCAN, Native XTB                           
  Gianluca Regni         : ADLD/ADEX                                     
  Tobias Risthaus        : pre 6.0 range-separated hybrid DFT and stability analysis
  Lukas Wittmann         : regularized MP2, r2SCAN double-hybrids, wr2SCAN        
                                                                         
We gratefully acknowledge several colleagues who have allowed us to      
interface, adapt or use parts of their codes:                            
  Ed Valeev, F. Pavosevic, A. Kumar             : LibInt (2-el integral package), F12 methods 
  Garnet Chan, S. Sharma, J. Yang, R. Olivares  : DMRG                   
  Ulf Ekstrom                                   : XCFun DFT Library      
  Mihaly Kallay                                 : mrcc  (arbitrary order and MRCC methods)
  Frank Weinhold                                : gennbo (NPA and NBO analysis)           
  Simon Mueller                                 : openCOSMO-RS                            
  Christopher J. Cramer and Donald G. Truhlar   : smd solvation model                     
  S Lehtola, MJT Oliveira, MAL Marques          : LibXC Library                           
  Liviu Ungur et al                             : ANISO software                          


 Your calculation uses the libint2 library for the computation of 2-el integrals
 For citations please refer to: http://libint.valeyev.net

 Your ORCA version has been built with support for libXC version: 7.0.0
 For citations please refer to: https://libxc.gitlab.io

 This ORCA versions uses:
   CBLAS   interface :  Fast vector & matrix operations
   LAPACKE interface :  Fast linear algebra routines
   SCALAPACK package :  Parallel linear algebra routines
   Shared memory     :  Shared parallel matrices
   BLAS/LAPACK       :  OpenBLAS 0.3.29  USE64BITINT DYNAMIC_ARCH NO_AFFINITY Cooperlake SINGLE_THREADED
        Core in use  :  Cooperlake
   Copyright (c) 2011-2014, The OpenBLAS Project


  ***********************************
  * Starting time: Wed Jun 10 16:04:40 2026
  * Host name:     chpc-cn081.rc.cuhk.edu.hk
  * Process ID:    256713
  * Working dir.:  /lustre/project/xlzhang/jingyi/chemsmart/test_pka/orca
  ***********************************

NOTE: MaxCore=2109 MB was set to SCF,MP2,MDCI,CIPSI,MRCI,RASCI and CIS
      => If you want to overwrite this, your respective input block should be placed after the MaxCore statement
XCFun DFT library Copyright 2009-2010 Ulf Ekstrom and contributors.
See http://admol.org/xcfun for more information.
This is free software; see the source code for copying conditions.
There is ABSOLUTELY NO WARRANTY; not even for MERCHANTABILITY or FITNESS FOR A PARTICULAR PURPOSE.
For details see the documentation.
Scientific users of this library should cite U. Ekstrom, L. Visscher, R. Bast, A. J. Thorvaldsen and K. Ruud;
J.Chem.Theor.Comp. 2010, DOI: 10.1021/ct100117s
XCFun Version 0.99 

Warning: RI is on but no J-basis has been assigned. Assigning Def2/J (nothing to worry about!)
================================================================================

----- Orbital basis set information -----
Your calculation utilizes the basis: def2-SVP
   F. Weigend and R. Ahlrichs, Phys. Chem. Chem. Phys. 7, 3297 (2005).

----- AuxJ basis set information -----
Your calculation utilizes the auxiliary basis: def2/J
   H-Rn: F. Weigend, Phys. Chem. Chem. Phys. 8, 1057 (2006).
   Fr-Lr: K. Eichkorn, F. Weigend, O. Treutler, R. Ahlrichs; Theor. Chem. Acc. 97, 119 (1997).

================================================================================
                                        WARNINGS
                       Please study these warnings very carefully!
================================================================================

WARNING: Functional chosen is sensitive to the integration grid.
         DEFGRID3 seems to be a minimum grid for robust results!

WARNING: Geometry Optimization
  ===> : Switching off AutoStart
         For restart on a previous wavefunction, please use MOREAD

================================================================================
                                       INPUT FILE
================================================================================
NAME = /lustre/project/xlzhang/jingyi/chemsmart/test_pka/orca/pka_scale_frag5_pka_A_opt.inp
|  1> ! Opt Freq M062X def2-SVP defgrid2
|  2> # Number of processors
|  3> %pal nprocs 64 end
|  4> # Memory per core
|  5> %maxcore 2109
|  6> * xyz -1 1
|  7> C        0.6109501300   -0.3649491095    0.1240781533
|  8> C        0.3232402482    0.9820407658    0.3869514549
|  9> C       -0.9920315298    1.4472165889    0.3032859762
| 10> C       -2.0247034670    0.5727612155   -0.0330444774
| 11> C       -1.7492833905   -0.7710364332   -0.2788627554
| 12> C       -0.4371376899   -1.2403672118   -0.1958933541
| 13> C        1.9857614979   -0.9305507654    0.1989676629
| 14> O        2.1651552062   -2.1133947981    0.4567257707
| 15> S        3.3493145558    0.1236185132   -0.1422040028
| 16> H        1.0996375836    1.6828989483    0.6818644982
| 17> H       -1.2137397885    2.4918383324    0.5102745082
| 18> H       -3.0477287059    0.9370116506   -0.0938738067
| 19> H       -2.5558698848   -1.4556330056   -0.5305929306
| 20> H       -0.2344942625   -2.2939086294   -0.3832049645
| 21> *
| 22> 
| 23>                          ****END OF INPUT****
================================================================================

                       *****************************
                       * Geometry Optimization Run *
                       *****************************

Geometry optimization settings:
Update method            Update   .... BFGS
Choice of coordinates    CoordSys .... (2022) Redundant Internals
Initial Hessian          InHess   .... Almloef's Model
Max. no of cycles        MaxIter  .... 50

Convergence Tolerances:
Energy Change            TolE     ....  5.0000e-06 Eh
Max. Gradient            TolMAXG  ....  3.0000e-04 Eh/bohr
RMS Gradient             TolRMSG  ....  1.0000e-04 Eh/bohr
Max. Displacement        TolMAXD  ....  4.0000e-03 bohr
RMS Displacement         TolRMSD  ....  2.0000e-03 bohr
Strict Convergence                .... False

------------------------------------------------------------------------------
                        ORCA OPTIMIZATION COORDINATE SETUP
------------------------------------------------------------------------------

The optimization will be done in redundant internal coordinates (2022)
Making redundant internal coordinates   ...  (2022 redundants) done
Evaluating the initial hessian          ...  (Almloef) done
Evaluating the coordinates              ...  done
Calculating the B-matrix                .... done
Calculating the G-matrix                .... done
The number of degrees of freedom        ....   63

    -----------------------------------------------------------------
                    Redundant Internal Coordinates


    -----------------------------------------------------------------
         Definition                    Initial Value    Approx d2E/dq
    -----------------------------------------------------------------
      1. B(C   1,C   0)                  1.4022         0.597337   
      2. B(C   2,C   1)                  1.3976         0.607560   
      3. B(C   3,C   2)                  1.3943         0.614900   
      4. B(C   4,C   3)                  1.3936         0.616625   
      5. B(C   5,C   4)                  1.3960         0.611123   
      6. B(C   5,C   0)                  1.4026         0.596582   
      7. B(C   6,C   0)                  1.4885         0.435106   
      8. B(O   7,C   6)                  1.2238         1.030389   
      9. B(S   8,C   6)                  1.7570         0.437549   
     10. B(H   9,C   1)                  1.0867         0.364460   
     11. B(H  10,C   2)                  1.0878         0.363068   
     12. B(H  11,C   3)                  1.0876         0.363237   
     13. B(H  12,C   4)                  1.0875         0.363443   
     14. B(H  13,C   5)                  1.0891         0.361317   
     15. A(C   5,C   0,C   6)          117.6777         0.404724   
     16. A(C   1,C   0,C   5)          119.2752         0.428201   
     17. A(C   1,C   0,C   6)          123.0307         0.404814   
     18. A(C   0,C   1,H   9)          121.5879         0.351408   
     19. A(C   2,C   1,H   9)          118.2901         0.352418   
     20. A(C   0,C   1,C   2)          120.1053         0.429604   
     21. A(C   1,C   2,H  10)          120.0036         0.352190   
     22. A(C   1,C   2,C   3)          120.1777         0.431845   
     23. A(C   3,C   2,H  10)          119.8160         0.352906   
     24. A(C   2,C   3,C   4)          120.0606         0.432996   
     25. A(C   4,C   3,H  11)          119.9315         0.353101   
     26. A(C   2,C   3,H  11)          120.0050         0.352934   
     27. A(C   3,C   4,C   5)          119.9641         0.432517   
     28. A(C   5,C   4,H  12)          119.9506         0.352600   
     29. A(C   3,C   4,H  12)          120.0847         0.353135   
     30. A(C   0,C   5,C   4)          120.4034         0.429957   
     31. A(C   0,C   5,H  13)          120.2634         0.350819   
     32. A(C   4,C   5,H  13)          119.3331         0.352250   
     33. A(O   7,C   6,S   8)          120.4668         0.468711   
     34. A(C   0,C   6,S   8)          118.6235         0.403992   
     35. A(C   0,C   6,O   7)          120.8802         0.443353   
     36. D(H   9,C   1,C   0,C   5)    177.2191         0.024586   
     37. D(C   2,C   1,C   0,C   5)     -1.2699         0.024586   
     38. D(C   2,C   1,C   0,C   6)   -179.7624         0.024586   
     39. D(H   9,C   1,C   0,C   6)     -1.2734         0.024586   
     40. D(C   3,C   2,C   1,C   0)      0.4261         0.025482   
     41. D(C   3,C   2,C   1,H   9)   -178.1121         0.025482   
     42. D(H  10,C   2,C   1,H   9)      1.2901         0.025482   
     43. D(H  10,C   2,C   1,C   0)    179.8284         0.025482   
     44. D(H  11,C   3,C   2,H  10)      0.3779         0.026138   
     45. D(H  11,C   3,C   2,C   1)    179.7813         0.026138   
     46. D(C   4,C   3,C   2,H  10)   -179.0003         0.026138   
     47. D(C   4,C   3,C   2,C   1)      0.4031         0.026138   
     48. D(H  12,C   4,C   3,C   2)    179.3335         0.026293   
     49. D(C   5,C   4,C   3,H  11)   -179.7518         0.026293   
     50. D(C   5,C   4,C   3,C   2)     -0.3732         0.026293   
     51. D(H  12,C   4,C   3,H  11)     -0.0452         0.026293   
     52. D(H  13,C   5,C   4,H  12)     -0.1315         0.025799   
     53. D(C   0,C   5,C   4,H  12)    179.8065         0.025799   
     54. D(C   0,C   5,C   4,C   3)     -0.4865         0.025799   
     55. D(H  13,C   5,C   0,C   6)     -0.1869         0.024521   
     56. D(H  13,C   5,C   0,C   1)   -178.7597         0.024521   
     57. D(H  13,C   5,C   4,C   3)    179.5755         0.025799   
     58. D(C   4,C   5,C   0,C   6)    179.8757         0.024521   
     59. D(C   4,C   5,C   0,C   1)      1.3029         0.024521   
     60. D(S   8,C   6,C   0,C   5)    152.1961         0.012926   
     61. D(S   8,C   6,C   0,C   1)    -29.2888         0.012926   
     62. D(O   7,C   6,C   0,C   5)    -25.8363         0.012926   
     63. D(O   7,C   6,C   0,C   1)    152.6788         0.012926   
    -----------------------------------------------------------------

Number of atoms                         .... 14
Number of degrees of freedom            .... 63


         *************************************************************
         *                GEOMETRY OPTIMIZATION CYCLE   1            *
         *************************************************************
---------------------------------
CARTESIAN COORDINATES (ANGSTROEM)
---------------------------------
  C      0.610950   -0.364949    0.124078
  C      0.323240    0.982041    0.386951
  C     -0.992032    1.447217    0.303286
  C     -2.024703    0.572761   -0.033044
  C     -1.749283   -0.771036   -0.278863
  C     -0.437138   -1.240367   -0.195893
  C      1.985761   -0.930551    0.198968
  O      2.165155   -2.113395    0.456726
  S      3.349315    0.123619   -0.142204
  H      1.099638    1.682899    0.681864
  H     -1.213740    2.491838    0.510275
  H     -3.047729    0.937012   -0.093874
  H     -2.555870   -1.455633   -0.530593
  H     -0.234494   -2.293909   -0.383205

----------------------------
CARTESIAN COORDINATES (A.U.)
----------------------------
  NO LB      ZA    FRAG     MASS         X           Y           Z
   0 C     6.0000    0    12.011    1.154528   -0.689654    0.234474
   1 C     6.0000    0    12.011    0.610836    1.855788    0.731232
   2 C     6.0000    0    12.011   -1.874668    2.734843    0.573127
   3 C     6.0000    0    12.011   -3.826135    1.082362   -0.062445
   4 C     6.0000    0    12.011   -3.305667   -1.457048   -0.526974
   5 C     6.0000    0    12.011   -0.826071   -2.343954   -0.370185
   6 C     6.0000    0    12.011    3.752545   -1.758486    0.375994
   7 O     8.0000    0    15.999    4.091550   -3.993737    0.863087
   8 S    16.0000    0    32.060    6.329287    0.233605   -0.268727
   9 H     1.0000    0     1.008    2.078014    3.180218    1.288537
  10 H     1.0000    0     1.008   -2.293636    4.708892    0.964279
  11 H     1.0000    0     1.008   -5.759373    1.770695   -0.177396
  12 H     1.0000    0     1.008   -4.829894   -2.750748   -1.002675
  13 H     1.0000    0     1.008   -0.443130   -4.334859   -0.724152

--------------------------------
INTERNAL COORDINATES (ANGSTROEM)
--------------------------------
 C      0   0   0     0.000000000000     0.00000000     0.00000000
 C      1   0   0     1.402234314564     0.00000000     0.00000000
 C      2   1   0     1.397615221986   120.10532793     0.00000000
 C      3   2   1     1.394346335731   120.17765331     0.42612534
 C      4   3   2     1.393583497674   120.06061131     0.40310214
 C      5   4   3     1.396023510152   119.96408873   359.62679958
 C      1   2   3     1.488495874738   123.03072643   180.23764859
 O      7   1   2     1.223822434182   120.88019443   152.67880598
 S      7   1   2     1.756971233438   118.62350743   330.71119861
 H      2   1   3     1.086723846017   121.58786106   178.48897244
 H      3   2   1     1.087765319979   120.00360840   179.82837745
 H      4   3   2     1.087639290482   120.00499657   179.78128974
 H      5   4   3     1.087484400272   120.08467797   179.33345382
 H      6   5   4     1.089081960487   119.33313811   179.57552255

---------------------------
INTERNAL COORDINATES (A.U.)
---------------------------
 C      0   0   0     0.000000000000     0.00000000     0.00000000
 C      1   0   0     2.649838830112     0.00000000     0.00000000
 C      2   1   0     2.641110010153   120.10532793     0.00000000
 C      3   2   1     2.634932710369   120.17765331     0.42612534
 C      4   3   2     2.633491155356   120.06061131     0.40310214
 C      5   4   3     2.638102110702   119.96408873   359.62679958
 C      1   2   3     2.812849554726   123.03072643   180.23764859
 O      7   1   2     2.312689237154   120.88019443   152.67880598
 S      7   1   2     3.320194456376   118.62350743   330.71119861
 H      2   1   3     2.053610452174   121.58786106   178.48897244
 H      3   2   1     2.055578552737   120.00360840   179.82837745
 H      4   3   2     2.055340391503   120.00499657   179.78128974
 H      5   4   3     2.055047691426   120.08467797   179.33345382
 H      6   5   4     2.058066642714   119.33313811   179.57552255

---------------------
BASIS SET INFORMATION
---------------------
There are 4 groups of distinct atoms

 Group   1 Type C   : 7s4p1d contracted to 3s2p1d pattern {511/31/1}
 Group   2 Type O   : 7s4p1d contracted to 3s2p1d pattern {511/31/1}
 Group   3 Type S   : 10s7p1d contracted to 4s3p1d pattern {5311/511/1}
 Group   4 Type H   : 4s1p contracted to 2s1p pattern {31/1}

Atom   0C    basis set group =>   1
Atom   1C    basis set group =>   1
Atom   2C    basis set group =>   1
Atom   3C    basis set group =>   1
Atom   4C    basis set group =>   1
Atom   5C    basis set group =>   1
Atom   6C    basis set group =>   1
Atom   7O    basis set group =>   2
Atom   8S    basis set group =>   3
Atom   9H    basis set group =>   4
Atom  10H    basis set group =>   4
Atom  11H    basis set group =>   4
Atom  12H    basis set group =>   4
Atom  13H    basis set group =>   4
---------------------------------
AUXILIARY/J BASIS SET INFORMATION
---------------------------------
There are 4 groups of distinct atoms

 Group   1 Type C   : 12s5p4d2f1g contracted to 6s4p3d1f1g pattern {711111/2111/211/2/1}
 Group   2 Type O   : 12s5p4d2f1g contracted to 6s4p3d1f1g pattern {711111/2111/211/2/1}
 Group   3 Type S   : 14s5p5d2f1g contracted to 8s4p3d1f1g pattern {71111111/2111/311/2/1}
 Group   4 Type H   : 5s2p1d contracted to 3s1p1d pattern {311/2/1}

Atom   0C    basis set group =>   1
Atom   1C    basis set group =>   1
Atom   2C    basis set group =>   1
Atom   3C    basis set group =>   1
Atom   4C    basis set group =>   1
Atom   5C    basis set group =>   1
Atom   6C    basis set group =>   1
Atom   7O    basis set group =>   2
Atom   8S    basis set group =>   3
Atom   9H    basis set group =>   4
Atom  10H    basis set group =>   4
Atom  11H    basis set group =>   4
Atom  12H    basis set group =>   4
Atom  13H    basis set group =>   4


           ************************************************************
           *        Program running with 64 parallel MPI-processes    *
           *              working on a common directory               *
           ************************************************************
------------------------------------------------------------------------------
                             ORCA STARTUP CALCULATIONS
                           -- RI-GTO INTEGRALS CHOSEN --
------------------------------------------------------------------------------
------------------------------------------------------------------------------
                   ___                                                        
                  /   \      - P O W E R E D   B Y -                         
                 /     \                                                     
                 |  |  |   _    _      __       _____    __    __             
                 |  |  |  | |  | |    /  \     |  _  \  |  |  /  |          
                  \  \/   | |  | |   /    \    | | | |  |  | /  /          
                 / \  \   | |__| |  /  /\  \   | |_| |  |  |/  /          
                |  |  |   |  __  | /  /__\  \  |    /   |      \           
                |  |  |   | |  | | |   __   |  |    \   |  |\   \          
                \     /   | |  | | |  |  |  |  | |\  \  |  | \   \       
                 \___/    |_|  |_| |__|  |__|  |_| \__\ |__|  \__/        
                                                                              
                      - O R C A' S   B I G   F R I E N D -                    
                                      &                                       
                       - I N T E G R A L  F E E D E R -                       
                                                                              
 v1 FN, 2020, v2 2021, v3 2022-2024                                           
------------------------------------------------------------------------------


----------------------
SHARK INTEGRAL PACKAGE
----------------------

Number of atoms                             ...     14
Number of basis functions                   ...    155
Number of shells                            ...     71
Maximum angular momentum                    ...      2
Integral batch strategy                     ... SHARK/LIBINT Hybrid
RI-J (if used) integral strategy            ... SPLIT-RIJ (Revised 2003 algorithm where possible)
Printlevel                                  ...      1
Contraction scheme used                     ... SEGMENTED contraction
Prescreening option                         ... SCHWARTZ
   Thresh                                   ... 2.500e-11
   Tcut                                     ... 2.500e-12
   Tpresel                                  ... 2.500e-12 
Coulomb Range Separation                    ... NOT USED
Exchange Range Separation                   ... NOT USED
Multipole approximations                    ... NOT USED
Finite Nucleus Model                        ... NOT USED
CABS basis                                  ... NOT available
Auxiliary Coulomb fitting basis             ... AVAILABLE
   # of basis functions in Aux-J            ...    498
   # of shells in Aux-J                     ...    162
   Maximum angular momentum in Aux-J        ...      4
Auxiliary J/K fitting basis                 ... NOT available
Auxiliary Correlation fitting basis         ... NOT available
Auxiliary 'external' fitting basis          ... NOT available

Checking pre-screening integrals            ... done (  0.0 sec) Dimension = 71
   => SHARK Basis and OBASIS are compatible. Storing Pre-screening
Shell pair information
Shell pair cut-off parameter TPreSel        ...   2.5e-12
Total number of shell pairs                 ...      2556
Shell pairs after pre-screening             ...      2362
Total number of primitive shell pairs       ...      9872
Primitive shell pairs kept                  ...      6529
          la=0 lb=0:    676 shell pairs
          la=1 lb=0:    850 shell pairs
          la=1 lb=1:    283 shell pairs
          la=2 lb=0:    310 shell pairs
          la=2 lb=1:    201 shell pairs
          la=2 lb=2:     42 shell pairs

Checking whether 4 symmetric matrices of dimension 155 fit in memory
:Max Core in MB      =   2109.00
 MB in use           =      6.42
 MB left             =   2102.58
 MB needed           =      0.37
 Data fit in memory  = YES
Calculating RI/J V-Matrix + Cholesky decomp.... done (  0.2 sec)
Calculating Nuclear repulsion               ... done (  0.0 sec) ENN=    450.851557376668 Eh

Diagonalization of the overlap matrix:
Smallest eigenvalue                        ... 3.009e-04
Time for diagonalization                   ...    0.004 sec
Threshold for overlap eigenvalues          ... 1.000e-07
Number of eigenvalues below threshold      ... 0
Time for construction of square roots      ...    0.010 sec
Total time needed                          ...    0.278 sec

-------------------
DFT GRID GENERATION
-------------------

General Integration Accuracy     IntAcc      ... 4.388
Radial Grid Type                 RadialGrid  ... OptM3 with GC (2021)
Angular Grid (max. ang.)         AngularGrid ... 4 (Lebedev-302)
Angular grid pruning method      GridPruning ... 4 (adaptive)
Weight generation scheme         WeightScheme... mBecke (2022)
Basis function cutoff            BFCut       ... 1.0000e-11
Integration weight cutoff        WCut        ... 1.0000e-14
Partially contracted basis set               ... off
Rotationally invariant grid construction     ... off
Angular grids for H and He will be reduced by one unit

Total number of grid points                  ...    71637
Total number of batches                      ...     1126
Average number of points per batch           ...       63
Average number of grid points per atom       ...     5117

--------------------
COSX GRID GENERATION
--------------------

GRIDX 1
-------
General Integration Accuracy     IntAcc      ... 3.816
Radial Grid Type                 RadialGrid  ... OptM3 with GC (2021)
Angular Grid (max. ang.)         AngularGrid ... 1 (Lebedev-50)
Angular grid pruning method      GridPruning ... 4 (adaptive)
Weight generation scheme         WeightScheme... mBecke (2022)
Basis function cutoff            BFCut       ... 1.0000e-11
Integration weight cutoff        WCut        ... 1.0000e-14
Partially contracted basis set               ... on
Rotationally invariant grid construction     ... off
Angular grids for H and He will be reduced by one unit

Total number of grid points                  ...    10158
Total number of batches                      ...       86
Average number of points per batch           ...      118
Average number of grid points per atom       ...      726
UseSFitting                                  ... on

GRIDX 2
-------
General Integration Accuracy     IntAcc      ... 4.020
Radial Grid Type                 RadialGrid  ... OptM3 with GC (2021)
Angular Grid (max. ang.)         AngularGrid ... 2 (Lebedev-110)
Angular grid pruning method      GridPruning ... 4 (adaptive)
Weight generation scheme         WeightScheme... mBecke (2022)
Basis function cutoff            BFCut       ... 1.0000e-11
Integration weight cutoff        WCut        ... 1.0000e-14
Partially contracted basis set               ... on
Rotationally invariant grid construction     ... off
Angular grids for H and He will be reduced by one unit

Total number of grid points                  ...    20196
Total number of batches                      ...      164
Average number of points per batch           ...      123
Average number of grid points per atom       ...     1443
UseSFitting                                  ... on

GRIDX 3
-------
General Integration Accuracy     IntAcc      ... 4.338
Radial Grid Type                 RadialGrid  ... OptM3 with GC (2021)
Angular Grid (max. ang.)         AngularGrid ... 3 (Lebedev-194)
Angular grid pruning method      GridPruning ... 4 (adaptive)
Weight generation scheme         WeightScheme... mBecke (2022)
Basis function cutoff            BFCut       ... 1.0000e-11
Integration weight cutoff        WCut        ... 1.0000e-14
Partially contracted basis set               ... on
Rotationally invariant grid construction     ... off
Angular grids for H and He will be reduced by one unit

Total number of grid points                  ...    45138
Total number of batches                      ...      361
Average number of points per batch           ...      125
Average number of grid points per atom       ...     3224
UseSFitting                                  ... on
Grids setup in   2.2 sec
Initializing property integral containers    ... done (  0.3 sec)

SHARK setup successfully completed in   3.3 seconds

Maximum memory used throughout the entire STARTUP-calculation: 19.1 MB


           ************************************************************
           *        Program running with 64 parallel MPI-processes    *
           *              working on a common directory               *
           ************************************************************
-------------------------------------------------------------------------------
                                 ORCA GUESS
                   Start orbitals & Density for SCF / CASSCF
-------------------------------------------------------------------------------

------------
SCF SETTINGS
------------
Hamiltonian:
 Density Functional     Method          .... DFT(GTOs)
 Exchange Functional    Exchange        .... M062X
 Correlation Functional Correlation     .... M062X
 Gradients option       PostSCFGGA      .... off
 Hybrid DFT is turned on
   Fraction HF Exchange ScalHFX         ....  0.540000
   Scaling of DF-GGA-X  ScalDFX         ....  0.460000
   Scaling of DF-GGA-C  ScalDFC         ....  1.000000
   Scaling of DF-LDA-C  ScalLDAC        ....  1.000000
   Perturbative correction              ....  0.000000
 RI-approximation to the Coulomb term is turned on
   Number of AuxJ basis functions       .... 498
   RIJ-COSX (HFX calculated with COS-X)).... on


General Settings:
 Integral files         IntName         .... /lustre/project/xlzhang/jingyi/chemsmart/test_pka/orca/pka_scale_frag5_pka_A_opt
 Hartree-Fock type      HFTyp           .... RHF
 Total Charge           Charge          ....   -1
 Multiplicity           Mult            ....    1
 Number of Electrons    NEL             ....   72
 Basis Dimension        Dim             ....  155
 Nuclear Repulsion      ENuc            ....    450.8515573767 Eh

Convergence Acceleration:
 AO-DIIS                CNVDIIS         .... on
   Start iteration      DIISMaxIt       ....    12
   Startup error        DIISStart       ....  0.200000
   # of expansion vecs  DIISMaxEq       ....     5
   Bias factor          DIISBfac        ....   1.050
   Max. coefficient     DIISMaxC        ....  10.000
 MO-DIIS                CNVKDIIS        .... off
 Trust-Rad. Augm. Hess. CNVTRAH         .... auto
   Auto Start mean grad. ratio tolernc. ....  1.125000
   Auto Start start iteration           ....    50
   Auto Start num. interpolation iter.  ....    10
   Max. Number of Micro iterations      ....    24
   Max. Number of Macro iterations      .... Maxiter - #DIIS iter
   Number of Davidson start vectors     ....     2
   Converg. threshold    (grad. norm)   ....   1.000e-05
   Grad. Scal. Fac. for Micro threshold ....   0.100
   Minimum threshold for Micro iter.    ....   1.000e-02
   NR start threshold (gradient norm)   ....   1.000e-04
   Initial trust radius                 ....   0.400
   Minimum AH scaling param. (alpha)    ....   1.000
   Maximum AH scaling param. (alpha)    .... 1000.000
   Quad. conv. algorithm                .... NR
   White noise on init. David. guess    .... on
   Maximum white noise                  ....   0.010
   Pseudo random numbers                .... off
   Inactive MOs                         .... canonical
   Orbital update algorithm             .... Taylor
   Preconditioner                       .... Diag
   Full preconditioner red. dimension   ....   250
 SOSCF                 CNVSOSCF           .... on
   Start iteration     SOSCFMaxIt         ....   150
   Startup grad/error  SOSCFStart         ....  0.003300
   Hessian update      SOSCFHessUp        .... L-BFGS
   Autom. constraints  SOSCFAutoConstrain .... off
 Level Shifting         CNVShift        .... on
   Level shift para.    LevelShift      ....    0.2500
   Turn off err/grad.   ShiftErr        ....    0.0010
 Zerner damping         CNVZerner       .... off
 Static damping         CNVDamp         .... on
   Fraction old density DampFac         ....    0.7000
   Max. Damping (<1)    DampMax         ....    0.9800
   Min. Damping (>=0)   DampMin         ....    0.0000
   Turn off err/grad.   DampErr         ....    0.1000

SCF Procedure:
 Maximum # iterations   MaxIter         ....   125
 SCF integral mode      SCFMode         .... Direct
   Integral package                     .... SHARK and LIBINT hybrid scheme
 Reset frequency        DirectResetFreq ....    20
 Integral Threshold     Thresh          ....  2.500e-11 Eh
 Primitive CutOff       TCut            ....  2.500e-12 Eh

Convergence Tolerance:
 Convergence Check Mode ConvCheckMode   .... Total+1el-Energy
 Convergence forced     ConvForced      .... 0
 Energy Change          TolE            ....  1.000e-08 Eh
 1-El. energy change                    ....  1.000e-05 Eh
 Orbital Gradient       TolG            ....  1.000e-05
 Orbital Rotation angle TolX            ....  1.000e-05
 DIIS Error             TolErr          ....  5.000e-07

------------------------------
INITIAL GUESS: MODEL POTENTIAL
------------------------------
Loading Hartree-Fock densities                     ... done
Calculating cut-offs                               ... done
Initializing the effective Hamiltonian             ... done
Setting up the integral package (SHARK)            ... done
Starting the Coulomb interaction                   ... done (   0.1 sec)
Making the grid                                    ... done (   0.6 sec)
Mapping shells                                     ... done
Starting the XC term evaluation                    ... done (   0.0 sec)
  promolecular density results
     # of electrons  =     70.997877555
     EX              =    -70.250827923
     EC              =     -2.442765641
     EX+EC           =    -72.693593564
Transforming the Hamiltonian                       ... done (   0.1 sec)
Diagonalizing the Hamiltonian                      ... done (   0.1 sec)
Back transforming the eigenvectors                 ... done (   0.0 sec)
Now organizing SCF variables                       ... done
                      ------------------
                      INITIAL GUESS DONE (   1.4 sec)
                      ------------------
             **** ENERGY FILE WAS UPDATED (/lustre/project/xlzhang/jingyi/chemsmart/test_pka/orca/pka_scale_frag5_pka_A_opt.en.tmp) ****
Finished Guess after   4.3 sec
Maximum memory used throughout the entire GUESS-calculation: 8.8 MB


           ************************************************************
           *        Program running with 64 parallel MPI-processes    *
           *              working on a common directory               *
           ************************************************************

-------------------------------------------------------------------------------------------
                                      ORCA LEAN-SCF
                              memory conserving SCF solver
-------------------------------------------------------------------------------------------

----------------------------------------D-I-I-S--------------------------------------------
Iteration    Energy (Eh)           Delta-E    RMSDP     MaxDP     DIISErr   Damp  Time(sec)
-------------------------------------------------------------------------------------------
               ***  Starting incremental Fock matrix formation  ***
    1    -742.4508530971403388     0.00e+00  3.27e-02  8.78e-02  2.73e-01  0.700   2.2
    2    -742.5476262025719052    -9.68e-02  2.49e-02  7.15e-02  1.30e-01  0.700   1.2
                               ***Turning on AO-DIIS***
    3    -742.5943151654838630    -4.67e-02  1.23e-02  4.73e-02  4.72e-02  0.700   0.9
    4    -742.6226406819399699    -2.83e-02  2.46e-02  8.82e-02  3.49e-02  0.000   0.9
    5    -742.6839404831670208    -6.13e-02  3.01e-03  1.48e-02  7.20e-03  0.000   0.8
                              *** Initializing SOSCF ***
---------------------------------------S-O-S-C-F--------------------------------------
Iteration    Energy (Eh)           Delta-E    RMSDP     MaxDP     MaxGrad    Time(sec)
--------------------------------------------------------------------------------------
    6    -742.6841775153192202    -2.37e-04  1.07e-03  2.27e-03  2.67e-03     0.7
               *** Restarting incremental Fock matrix formation ***
    7    -742.6842761644362554    -9.86e-05  8.90e-04  2.18e-03  5.01e-04     1.3
    8    -742.6842865416143695    -1.04e-05  9.93e-04  2.16e-03  3.88e-04     2.2
    9    -742.6842885994793733    -2.06e-06  4.21e-04  8.67e-04  2.65e-04     0.9
   10    -742.6842902093375187    -1.61e-06  7.18e-05  1.33e-04  2.54e-05     0.8
   11    -742.6842902239862951    -1.46e-08  2.78e-05  4.83e-05  3.29e-05     1.5
   12    -742.6842902489660219    -2.50e-08  1.42e-05  7.51e-05  5.96e-06     0.9
   13    -742.6842902467175236     2.25e-09  6.71e-06  3.02e-05  5.67e-06     1.6
                 **** Energy Check signals convergence ****

               *****************************************************
               *                     SUCCESS                       *
               *           SCF CONVERGED AFTER  13 CYCLES          *
               *****************************************************

Recomputing exchange energy using gridx3       ... done (    0.220 sec)
Old exchange energy                            :    -38.596646681 Eh
New exchange energy                            :    -38.596615419 Eh
Exchange energy change after final integration :      0.000031262 Eh
Total energy after final integration           :   -742.684258988 Eh
             **** ENERGY FILE WAS UPDATED (/lustre/project/xlzhang/jingyi/chemsmart/test_pka/orca/pka_scale_frag5_pka_A_opt.en.tmp) ****

----------------
TOTAL SCF ENERGY
----------------

Total Energy       :       -742.68425898774797 Eh          -20209.46612 eV

Components:
Nuclear Repulsion  :        450.85155737666821 Eh           12268.29458 eV
Electronic Energy  :      -1193.53584762658988 Eh          -32477.76155 eV
One Electron Energy:      -1924.08195121833660 Eh          -52356.93167 eV
Two Electron Energy:        730.54610359174671 Eh           19879.17012 eV

Virial components:
Potential Energy   :      -1481.39988681528462 Eh          -40310.94029 eV
Kinetic Energy     :        738.71562782753665 Eh           20101.47417 eV
Virial Ratio       :          2.00537233951836

DFT components:
N(Alpha)           :       35.999959114940 electrons
N(Beta)            :       35.999959114940 electrons
N(Total)           :       71.999918229880 electrons
E(XC)              :      -35.565814004926 Eh       

---------------
SCF CONVERGENCE
---------------

  Last Energy change         ...   -2.2485e-09  Tolerance :   1.0000e-08
  Last MAX-Density change    ...    3.0221e-05  Tolerance :   1.0000e-07
  Last RMS-Density change    ...    6.7087e-06  Tolerance :   5.0000e-09
  Last DIIS Error            ...    2.6717e-03  Tolerance :   5.0000e-07
  Last Orbital Gradient      ...    5.6747e-06  Tolerance :   1.0000e-05
  Last Orbital Rotation      ...    7.8163e-06  Tolerance :   1.0000e-05


----------------
ORBITAL ENERGIES
----------------

  NO   OCC          E(Eh)            E(eV) 
   0   2.0000     -89.621064     -2438.7131 
   1   2.0000     -19.410717      -528.1925 
   2   2.0000     -10.450704      -284.3781 
   3   2.0000     -10.436758      -283.9986 
   4   2.0000     -10.434794      -283.9452 
   5   2.0000     -10.433382      -283.9068 
   6   2.0000     -10.424714      -283.6709 
   7   2.0000     -10.423039      -283.6253 
   8   2.0000     -10.417713      -283.4804 
   9   2.0000      -7.985675      -217.3013 
  10   2.0000      -5.909468      -160.8048 
  11   2.0000      -5.906062      -160.7121 
  12   2.0000      -5.903572      -160.6443 
  13   2.0000      -0.941052       -25.6073 
  14   2.0000      -0.820647       -22.3309 
  15   2.0000      -0.710800       -19.3418 
  16   2.0000      -0.704387       -19.1673 
  17   2.0000      -0.593125       -16.1398 
  18   2.0000      -0.554603       -15.0915 
  19   2.0000      -0.535713       -14.5775 
  20   2.0000      -0.476877       -12.9765 
  21   2.0000      -0.421113       -11.4591 
  22   2.0000      -0.389239       -10.5917 
  23   2.0000      -0.375672       -10.2226 
  24   2.0000      -0.360201        -9.8016 
  25   2.0000      -0.335575        -9.1315 
  26   2.0000      -0.319281        -8.6881 
  27   2.0000      -0.283568        -7.7163 
  28   2.0000      -0.280151        -7.6233 
  29   2.0000      -0.268803        -7.3145 
  30   2.0000      -0.249028        -6.7764 
  31   2.0000      -0.181535        -4.9398 
  32   2.0000      -0.170165        -4.6304 
  33   2.0000      -0.115327        -3.1382 
  34   2.0000      -0.064749        -1.7619 
  35   2.0000      -0.051311        -1.3962 
  36   0.0000       0.139591         3.7985 
  37   0.0000       0.154255         4.1975 
  38   0.0000       0.214342         5.8325 
  39   0.0000       0.247822         6.7436 
  40   0.0000       0.257884         7.0174 
  41   0.0000       0.273911         7.4535 
  42   0.0000       0.308624         8.3981 
  43   0.0000       0.321688         8.7536 
  44   0.0000       0.342750         9.3267 
  45   0.0000       0.380978        10.3669 
  46   0.0000       0.438247        11.9253 
*Only the first 10 virtual orbitals were printed.

                    ********************************
                    * MULLIKEN POPULATION ANALYSIS *
                    ********************************

-----------------------
MULLIKEN ATOMIC CHARGES
-----------------------
   0 C :    0.029035
   1 C :    0.007073
   2 C :   -0.034275
   3 C :   -0.028436
   4 C :   -0.029169
   5 C :   -0.030282
   6 C :    0.046274
   7 O :   -0.341923
   8 S :   -0.552011
   9 H :   -0.007240
  10 H :   -0.018109
  11 H :   -0.022957
  12 H :   -0.019868
  13 H :    0.001887
Sum of atomic charges:   -1.0000000

--------------------------------
MULLIKEN REDUCED ORBITAL CHARGES
--------------------------------
  0 C s       :     3.065443  s :     3.065443
      pz      :     0.950548  p :     2.867992
      px      :     0.987106
      py      :     0.930337
      dz2     :     0.003293  d :     0.037530
      dxz     :     0.005100
      dyz     :     0.005549
      dx2y2   :     0.011549
      dxy     :     0.012040

  1 C s       :     3.223779  s :     3.223779
      pz      :     0.942646  p :     2.737140
      px      :     0.834442
      py      :     0.960053
      dz2     :     0.002398  d :     0.032008
      dxz     :     0.004675
      dyz     :     0.004505
      dx2y2   :     0.009832
      dxy     :     0.010597

  2 C s       :     3.148677  s :     3.148677
      pz      :     1.016279  p :     2.852504
      px      :     0.979561
      py      :     0.856664
      dz2     :     0.002730  d :     0.033093
      dxz     :     0.006588
      dyz     :     0.002681
      dx2y2   :     0.011081
      dxy     :     0.010013

  3 C s       :     3.142492  s :     3.142492
      pz      :     1.024847  p :     2.852738
      px      :     0.862585
      py      :     0.965307
      dz2     :     0.003103  d :     0.033206
      dxz     :     0.002904
      dyz     :     0.006226
      dx2y2   :     0.010810
      dxy     :     0.010163

  4 C s       :     3.148322  s :     3.148322
      pz      :     1.012950  p :     2.847558
      px      :     0.916109
      py      :     0.918500
      dz2     :     0.002470  d :     0.033289
      dxz     :     0.004599
      dyz     :     0.004970
      dx2y2   :     0.009563
      dxy     :     0.011686

  5 C s       :     3.222690  s :     3.222690
      pz      :     0.974786  p :     2.775480
      px      :     0.934498
      py      :     0.866195
      dz2     :     0.002582  d :     0.032112
      dxz     :     0.005983
      dyz     :     0.002780
      dx2y2   :     0.011221
      dxy     :     0.009545

  6 C s       :     3.172402  s :     3.172402
      pz      :     0.862090  p :     2.682539
      px      :     0.890980
      py      :     0.929470
      dz2     :     0.007042  d :     0.098785
      dxz     :     0.006118
      dyz     :     0.021726
      dx2y2   :     0.025644
      dxy     :     0.038255

  7 O s       :     3.748745  s :     3.748745
      pz      :     1.423150  p :     4.575580
      px      :     1.793391
      py      :     1.359039
      dz2     :     0.002160  d :     0.017598
      dxz     :     0.000410
      dyz     :     0.005410
      dx2y2   :     0.005814
      dxy     :     0.003803

  8 S s       :     5.924759  s :     5.924759
      pz      :     3.640392  p :    10.588713
      px      :     3.343986
      py      :     3.604335
      dz2     :     0.005538  d :     0.038539
      dxz     :     0.006478
      dyz     :     0.003195
      dx2y2   :     0.005406
      dxy     :     0.017921

  9 H s       :     0.984541  s :     0.984541
      pz      :     0.004087  p :     0.022699
      px      :     0.011168
      py      :     0.007445

 10 H s       :     0.996590  s :     0.996590
      pz      :     0.004456  p :     0.021519
      px      :     0.003239
      py      :     0.013824

 11 H s       :     1.001330  s :     1.001330
      pz      :     0.004255  p :     0.021627
      px      :     0.013163
      py      :     0.004209

 12 H s       :     0.998292  s :     0.998292
      pz      :     0.004733  p :     0.021576
      px      :     0.009222
      py      :     0.007621

 13 H s       :     0.976105  s :     0.976105
      pz      :     0.003803  p :     0.022008
      px      :     0.003437
      py      :     0.014768



                     *******************************
                     * LOEWDIN POPULATION ANALYSIS *
                     *******************************

----------------------
LOEWDIN ATOMIC CHARGES
----------------------
   0 C :   -0.054716
   1 C :   -0.009418
   2 C :   -0.058507
   3 C :   -0.063889
   4 C :   -0.058349
   5 C :   -0.020035
   6 C :   -0.126540
   7 O :   -0.287530
   8 S :   -0.414053
   9 H :    0.022036
  10 H :    0.016048
  11 H :    0.012949
  12 H :    0.014997
  13 H :    0.027007

-------------------------------
LOEWDIN REDUCED ORBITAL CHARGES
-------------------------------
  0 C s       :     2.874865  s :     2.874865
      pz      :     0.936265  p :     3.076248
      px      :     1.076621
      py      :     1.063362
      dz2     :     0.008733  d :     0.103603
      dxz     :     0.010762
      dyz     :     0.012688
      dx2y2   :     0.035089
      dxy     :     0.036331

  1 C s       :     2.864042  s :     2.864042
      pz      :     0.951523  p :     3.057449
      px      :     1.052935
      py      :     1.052990
      dz2     :     0.005893  d :     0.087927
      dxz     :     0.010041
      dyz     :     0.010053
      dx2y2   :     0.028894
      dxy     :     0.033045

  2 C s       :     2.858746  s :     2.858746
      pz      :     1.000466  p :     3.109619
      px      :     1.076565
      py      :     1.032589
      dz2     :     0.006516  d :     0.090141
      dxz     :     0.015004
      dyz     :     0.005671
      dx2y2   :     0.032920
      dxy     :     0.030030

  3 C s       :     2.857591  s :     2.857591
      pz      :     1.008974  p :     3.115695
      px      :     1.037190
      py      :     1.069531
      dz2     :     0.007267  d :     0.090603
      dxz     :     0.006233
      dyz     :     0.014449
      dx2y2   :     0.032212
      dxy     :     0.030442

  4 C s       :     2.857921  s :     2.857921
      pz      :     0.999475  p :     3.109689
      px      :     1.056188
      py      :     1.054025
      dz2     :     0.005946  d :     0.090739
      dxz     :     0.010053
      dyz     :     0.011162
      dx2y2   :     0.028881
      dxy     :     0.034698

  5 C s       :     2.860416  s :     2.860416
      pz      :     0.968574  p :     3.071419
      px      :     1.055519
      py      :     1.047327
      dz2     :     0.006228  d :     0.088200
      dxz     :     0.013545
      dyz     :     0.005553
      dx2y2   :     0.034286
      dxy     :     0.028588

  6 C s       :     2.934037  s :     2.934037
      pz      :     0.874142  p :     2.966738
      px      :     1.049043
      py      :     1.043553
      dz2     :     0.015659  d :     0.225765
      dxz     :     0.012987
      dyz     :     0.042181
      dx2y2   :     0.065067
      dxy     :     0.089871

  7 O s       :     3.555818  s :     3.555818
      pz      :     1.428917  p :     4.702123
      px      :     1.791247
      py      :     1.481959
      dz2     :     0.003900  d :     0.029589
      dxz     :     0.000534
      dyz     :     0.007493
      dx2y2   :     0.011038
      dxy     :     0.006624

  8 S s       :     5.711823  s :     5.711823
      pz      :     3.629706  p :    10.649407
      px      :     3.405138
      py      :     3.614563
      dz2     :     0.007961  d :     0.052823
      dxz     :     0.007647
      dyz     :     0.004022
      dx2y2   :     0.006958
      dxy     :     0.026234

  9 H s       :     0.906210  s :     0.906210
      pz      :     0.014734  p :     0.071754
      px      :     0.033304
      py      :     0.023717

 10 H s       :     0.917598  s :     0.917598
      pz      :     0.015515  p :     0.066354
      px      :     0.012788
      py      :     0.038051

 11 H s       :     0.920476  s :     0.920476
      pz      :     0.015024  p :     0.066574
      px      :     0.036564
      py      :     0.014986

 12 H s       :     0.918608  s :     0.918608
      pz      :     0.016076  p :     0.066396
      px      :     0.027246
      py      :     0.023074

 13 H s       :     0.903781  s :     0.903781
      pz      :     0.013968  p :     0.069212
      px      :     0.013537
      py      :     0.041707



                      *****************************
                      * MAYER POPULATION ANALYSIS *
                      *****************************

  NA   - Mulliken gross atomic population
  ZA   - Total nuclear charge
  QA   - Mulliken gross atomic charge
  VA   - Mayer's total valence
  BVA  - Mayer's bonded valence
  FA   - Mayer's free valence

  ATOM       NA         ZA         QA         VA         BVA        FA
  0 C      5.9710     6.0000     0.0290     3.6584     3.6584    -0.0000
  1 C      5.9929     6.0000     0.0071     3.8640     3.8640    -0.0000
  2 C      6.0343     6.0000    -0.0343     3.8275     3.8275    -0.0000
  3 C      6.0284     6.0000    -0.0284     3.8237     3.8237     0.0000
  4 C      6.0292     6.0000    -0.0292     3.8224     3.8224     0.0000
  5 C      6.0303     6.0000    -0.0303     3.8883     3.8883     0.0000
  6 C      5.9537     6.0000     0.0463     4.1143     4.1143     0.0000
  7 O      8.3419     8.0000    -0.3419     2.1344     2.1344     0.0000
  8 S     16.5520    16.0000    -0.5520     1.6350     1.6350     0.0000
  9 H      1.0072     1.0000    -0.0072     1.0540     1.0540    -0.0000
 10 H      1.0181     1.0000    -0.0181     0.9732     0.9732    -0.0000
 11 H      1.0230     1.0000    -0.0230     0.9726     0.9726     0.0000
 12 H      1.0199     1.0000    -0.0199     0.9730     0.9730     0.0000
 13 H      0.9981     1.0000     0.0019     1.0096     1.0096    -0.0000

  Mayer bond orders larger than 0.100000
B(  0-C ,  1-C ) :   1.3924 B(  0-C ,  5-C ) :   1.3887 B(  0-C ,  6-C ) :   0.8593 
B(  1-C ,  2-C ) :   1.3882 B(  1-C ,  9-H ) :   0.9757 B(  2-C ,  3-C ) :   1.3766 
B(  2-C , 10-H ) :   0.9851 B(  3-C ,  4-C ) :   1.3883 B(  3-C , 11-H ) :   0.9848 
B(  4-C ,  5-C ) :   1.3749 B(  4-C , 12-H ) :   0.9864 B(  5-C , 13-H ) :   0.9861 
B(  6-C ,  7-O ) :   1.9236 B(  6-C ,  8-S ) :   1.3475 B(  7-O ,  8-S ) :   0.1616 


-------
TIMINGS
-------

Total SCF time: 0 days 0 hours 0 min 21 sec 

Total time                  ....      21.215 sec
Sum of individual times     ....      19.627 sec  ( 92.5%)

SCF preparation             ....       2.848 sec  ( 13.4%)
Fock matrix formation       ....      14.898 sec  ( 70.2%)
  Startup                   ....       0.314 sec  (  2.1% of F)
  Split-RI-J                ....       1.414 sec  (  9.5% of F)
  Chain of spheres X        ....       1.836 sec  ( 12.3% of F)
  XC integration            ....       5.332 sec  ( 35.8% of F)
    XC Preparation          ....       0.000 sec  (  0.0% of XC)
    Basis function eval.    ....       0.035 sec  (  0.7% of XC)
    Density eval.           ....       0.054 sec  (  1.0% of XC)
    XC-Functional eval.     ....       0.014 sec  (  0.3% of XC)
    XC-Potential eval.      ....       0.063 sec  (  1.2% of XC)
Diagonalization             ....       0.000 sec  (  0.0%)
Density matrix formation    ....       0.203 sec  (  1.0%)
Total Energy calculation    ....       0.201 sec  (  0.9%)
Population analysis         ....       0.342 sec  (  1.6%)
Orbital Transformation      ....       0.278 sec  (  1.3%)
Orbital Orthonormalization  ....       0.000 sec  (  0.0%)
DIIS solution               ....       0.414 sec  (  2.0%)
SOSCF solution              ....       0.444 sec  (  2.1%)
Finished LeanSCF after  21.8 sec

Maximum memory used throughout the entire LEANSCF-calculation: 12.4 MB


           ************************************************************
           *        Program running with 64 parallel MPI-processes    *
           *              working on a common directory               *
           ************************************************************

------------------------------------------------------------------------------
                         ORCA PROPERTY INTEGRAL CALCULATIONS
------------------------------------------------------------------------------

GBWName                                   ... /lustre/project/xlzhang/jingyi/chemsmart/test_pka/orca/pka_scale_frag5_pka_A_opt.gbw
Number of atoms                           ...     14
Number of basis functions                 ...    155
Max core memory                           ...   2109 MB

Dipole integrals                          ... YES
Quadrupole integrals                      ...  NO
Linear momentum integrals                 ...  NO
Angular momentum integrals                ...  NO
Higher moments length integrals           ...  NO
Higher moments velocity integrals         ...  NO
Kinetic energy integrals                  ...  NO
GIAO right hand sides                     ...  NO
GIAO dipole derivative integrals          ...  NO
SOC integrals                             ...  NO
EPR diamagnetic integrals (GIAO)          ...  NO
EPR gauge integrals                       ...  NO
Field gradient integrals                  ...  NO (   0 nuclei)
Spin-dipole/Fermi contact integrals       ...  NO (   0 nuclei)
Contact density integrals                 ...  NO (   0 nuclei)
Nucleus-orbit integrals                   ...  NO (   0 nuclei)
Geometric perturbations                   ...  NO (  14 nuclei)

Choice of electric origin   ... Center of mass
Position of electric origin ... (  1.4960, -0.4427,  0.1241) 
Choice of magnetic origin   ... GIAO
Position of magnetic origin ... (  0.0000,  0.0000,  0.0000) 

Calculating integrals                     ... Electric Dipole (Length)     done (  0.0 sec)

Property integrals calculated in   0.0 sec

Maximum memory used throughout the entire PROPINT-calculation: 9.1 MB

-------------------------   --------------------
FINAL SINGLE POINT ENERGY      -742.684258987748
-------------------------   --------------------



           ************************************************************
           *        Program running with 64 parallel MPI-processes    *
           *              working on a common directory               *
           ************************************************************
------------------------------------------------------------------------------
                         ORCA SCF GRADIENT CALCULATION
------------------------------------------------------------------------------

Nuc. rep. gradient        (SHARK) ... done (  0.0 sec)
HCore & Overlap gradient  (SHARK) ... done (  0.2 sec)
Split-RIJ-J gradient      (SHARK) ... done (  0.1 sec)
done (  0.6 sec)
XC gradient                       ... done (  0.3 sec)

------------------
CARTESIAN GRADIENT
------------------

   1   C   :    0.011481808   -0.000965020   -0.000259985
   2   C   :    0.011719430   -0.002331115   -0.000235761
   3   C   :   -0.003426431    0.007089177    0.000146741
   4   C   :    0.001828032    0.000312080    0.000379095
   5   C   :   -0.005286142   -0.002304452   -0.000614012
   6   C   :    0.007226910   -0.005528588   -0.000560178
   7   C   :   -0.055826535   -0.005081613    0.002074346
   8   O   :    0.021752265    0.010127944   -0.001292727
   9   S   :    0.017460531   -0.003436321   -0.001736182
  10   H   :   -0.008175657    0.004199837    0.002900881
  11   H   :    0.000292151   -0.003325083   -0.000925897
  12   H   :    0.003653481   -0.001350021    0.000421893
  13   H   :    0.003043140    0.002135417    0.001212670
  14   H   :   -0.005742986    0.000457757   -0.001510886

Difference to translation invariance:
           :    0.0000000000   -0.0000000003    0.0000000000

Difference to rotation invariance:
           :   -0.0004030467    0.0002291271   -0.0015498881

Norm of the Cartesian gradient     ...    0.0683581787
RMS gradient                       ...    0.0105478960
MAX gradient                       ...    0.0558265349

-------
TIMINGS
-------

Total SCF gradient time     ....        1.312 sec

Densities                   ....       0.002 sec  (  0.2%)
One electron gradient       ....       0.243 sec  ( 18.5%)
RI-J Coulomb gradient       ....       0.123 sec  (  9.4%)
COSX gradient               ....       0.601 sec  ( 45.9%)
XC gradient                 ....       0.339 sec  ( 25.9%)

Maximum memory used throughout the entire SCFGRAD-calculation: 15.9 MB
------------------------------------------------------------------------------
                         ORCA GEOMETRY RELAXATION STEP
------------------------------------------------------------------------------

Reading the OPT-File                    .... done
Getting information on internals        .... done
Copying old internal coords+grads       .... done
Making the new internal coordinates     .... (2022 redundants) done
Validating the new internal coordinates .... (2022 redundants) done
Calculating the B-matrix                .... done
Calculating the G,G- and P matrices     .... done
Transforming gradient to internals      .... done
Projecting the internal gradient        .... done
Number of atoms                         ....  14
Number of internal coordinates          ....  63
Current Energy                          ....  -742.684258988 Eh
Current gradient norm                   ....     0.068358179 Eh/bohr
Maximum allowed component of the step   ....  0.300
Current trust radius                    ....  0.300
Evaluating the initial hessian          ....  (Almloef) done
Projecting the Hessian                  .... done
Forming the augmented Hessian           .... done
Diagonalizing the augmented Hessian     .... done
Last element of RFO vector              ....  0.968245545
Lowest eigenvalues of augmented Hessian:
 -0.006592819  0.013051984  0.013769419  0.021029803  0.024722247
Length of the computed step             ....  0.258200135
The final length of the internal step   ....  0.258200135
Converting the step to Cartesian space:
 Initial RMS(Int)=    0.0325301594
Transforming coordinates:
 Iter   0:  RMS(Cart)=    0.0584847730 RMS(Int)=    1.5788154028
 Iter   5:  RMS(Cart)=    0.0000002421 RMS(Int)=    0.0000001649
done
Storing new coordinates                 .... done

                                .--------------------.
          ----------------------|Geometry convergence|-------------------------
          Item                value                   Tolerance       Converged
          ---------------------------------------------------------------------
          RMS gradient        0.0062532837            0.0001000000      NO
          MAX gradient        0.0324148004            0.0003000000      NO
          RMS step            0.0325301594            0.0020000000      NO
          MAX step            0.1172228452            0.0040000000      NO
          -------------------------------------------------------------------------
          ........................................................
          Max(Bonds)      0.0192      Max(Angles)    4.01
          Max(Dihed)        6.72      Max(Improp)    0.00
          ---------------------------------------------------------------------

The optimization has not yet converged - more geometry cycles are needed


    ---------------------------------------------------------------------------
                         Redundant Internal Coordinates
                            (Angstroem and degrees)

        Definition                    Value    dE/dq     Step     New-Value
    ----------------------------------------------------------------------------
     1. B(C   1,C   0)                1.4022  0.004728 -0.0043    1.3979   
     2. B(C   2,C   1)                1.3976  0.001055 -0.0009    1.3967   
     3. B(C   3,C   2)                1.3943 -0.002269  0.0021    1.3964   
     4. B(C   4,C   3)                1.3936 -0.001029  0.0010    1.3946   
     5. B(C   5,C   4)                1.3960 -0.000342  0.0003    1.3964   
     6. B(C   5,C   0)                1.4026  0.002847 -0.0026    1.3999   
     7. B(C   6,C   0)                1.4885 -0.016011  0.0192    1.5077   
     8. B(O   7,C   6)                1.2238 -0.006894  0.0035    1.2273   
     9. B(S   8,C   6)                1.7570  0.011848 -0.0141    1.7429   
    10. B(H   9,C   1)                1.0867 -0.002349  0.0034    1.0901   
    11. B(H  10,C   2)                1.0878 -0.003434  0.0049    1.0927   
    12. B(H  11,C   3)                1.0876 -0.003912  0.0056    1.0932   
    13. B(H  12,C   4)                1.0875 -0.003877  0.0055    1.0930   
    14. B(H  13,C   5)                1.0891 -0.001247  0.0018    1.0909   
    15. A(C   5,C   0,C   6)          117.68 -0.003179    0.47    118.15   
    16. A(C   1,C   0,C   5)          119.28  0.001844   -0.30    118.98   
    17. A(C   1,C   0,C   6)          123.03  0.001330   -0.16    122.87   
    18. A(C   0,C   1,H   9)          121.59  0.010101   -1.56    120.03   
    19. A(C   2,C   1,H   9)          118.29 -0.008061    1.34    119.64   
    20. A(C   0,C   1,C   2)          120.11 -0.002066    0.26    120.37   
    21. A(C   1,C   2,H  10)          120.00  0.000999   -0.15    119.85   
    22. A(C   1,C   2,C   3)          120.18 -0.001017    0.16    120.33   
    23. A(C   3,C   2,H  10)          119.82  0.000013    0.01    119.82   
    24. A(C   2,C   3,C   4)          120.06  0.003569   -0.45    119.61   
    25. A(C   4,C   3,H  11)          119.93 -0.001813    0.23    120.16   
    26. A(C   2,C   3,H  11)          120.00 -0.001758    0.22    120.23   
    27. A(C   3,C   4,C   5)          119.96  0.000161    0.01    119.97   
    28. A(C   5,C   4,H  12)          119.95 -0.000437    0.05    120.00   
    29. A(C   3,C   4,H  12)          120.08  0.000277   -0.06    120.02   
    30. A(C   0,C   5,C   4)          120.40 -0.002493    0.33    120.73   
    31. A(C   0,C   5,H  13)          120.26  0.007158   -1.11    119.15   
    32. A(C   4,C   5,H  13)          119.33 -0.004665    0.78    120.12   
    33. A(O   7,C   6,S   8)          120.47 -0.032415    4.01    124.48   
    34. A(C   0,C   6,S   8)          118.62  0.011681   -1.51    117.11   
    35. A(C   0,C   6,O   7)          120.88  0.020762   -2.53    118.35   
    36. D(H   9,C   1,C   0,C   5)    177.22 -0.001679    2.83    180.05   
    37. D(C   2,C   1,C   0,C   5)     -1.27 -0.000346    0.65     -0.62   
    38. D(C   2,C   1,C   0,C   6)   -179.76 -0.000096    0.26   -179.51   
    39. D(H   9,C   1,C   0,C   6)     -1.27 -0.001429    2.44      1.16   
    40. D(C   3,C   2,C   1,C   0)      0.43  0.000474   -0.84     -0.41   
    41. D(C   3,C   2,C   1,H   9)   -178.11  0.001494   -2.90   -181.01   
    42. D(H  10,C   2,C   1,H   9)      1.29  0.000923   -1.85     -0.56   
    43. D(H  10,C   2,C   1,C   0)    179.83 -0.000098    0.21    180.04   
    44. D(H  11,C   3,C   2,H  10)      0.38  0.000149   -0.31      0.06   
    45. D(H  11,C   3,C   2,C   1)    179.78 -0.000415    0.73    180.51   
    46. D(C   4,C   3,C   2,H  10)   -179.00  0.000369   -0.75   -179.75   
    47. D(C   4,C   3,C   2,C   1)      0.40 -0.000195    0.29      0.70   
    48. D(H  12,C   4,C   3,C   2)    179.33 -0.000100    0.21    179.54   
    49. D(C   5,C   4,C   3,H  11)   -179.75 -0.000016   -0.00   -179.75   
    50. D(C   5,C   4,C   3,C   2)     -0.37 -0.000235    0.44      0.06   
    51. D(H  12,C   4,C   3,H  11)     -0.05  0.000120   -0.23     -0.28   
    52. D(H  13,C   5,C   4,H  12)     -0.13  0.000364   -0.67     -0.80   
    53. D(C   0,C   5,C   4,H  12)    179.81  0.000241   -0.39    179.41   
    54. D(C   0,C   5,C   4,C   3)     -0.49  0.000378   -0.63     -1.11   
    55. D(H  13,C   5,C   0,C   6)     -0.19 -0.000392    0.72      0.54   
    56. D(H  13,C   5,C   0,C   1)   -178.76 -0.000219    0.36   -178.40   
    57. D(H  13,C   5,C   4,C   3)    179.58  0.000501   -0.90    178.68   
    58. D(C   4,C   5,C   0,C   6)    179.88 -0.000260    0.44    180.32   
    59. D(C   4,C   5,C   0,C   1)      1.30 -0.000087    0.08      1.39   
    60. D(S   8,C   6,C   0,C   5)    152.20 -0.001824    5.39    157.58   
    61. D(S   8,C   6,C   0,C   1)    -29.29 -0.002000    5.76    -23.53   
    62. D(O   7,C   6,C   0,C   5)    -25.84 -0.002123    6.34    -19.49   
    63. D(O   7,C   6,C   0,C   1)    152.68 -0.002299    6.72    159.40   
    ----------------------------------------------------------------------------

Geometry step timings:
Preparation and reading OPT file:      0.000 s ( 0.814 %)
Internal coordinates            :      0.000 s ( 0.437 %)
B/P matrices and projection     :      0.000 s ( 5.464 %)
Hessian update/contruction      :      0.005 s (66.768 %)
Making the step                 :      0.000 s ( 5.209 %)
Converting the step to Cartesian:      0.000 s ( 1.020 %)
Storing new data                :      0.000 s ( 1.323 %)
Checking convergence            :      0.000 s ( 0.522 %)
Final printing                  :      0.002 s (18.358 %)
Total time                      :      0.008 s

Time for energy+gradient        :     39.429 s
Time for complete geometry iter :     47.155 s

         *************************************************************
         *                GEOMETRY OPTIMIZATION CYCLE   2            *
         *************************************************************
---------------------------------
CARTESIAN COORDINATES (ANGSTROEM)
---------------------------------
  C      0.611389   -0.368206    0.125556
  C      0.324851    0.977355    0.373654
  C     -0.989639    1.443994    0.302316
  C     -2.030428    0.572806   -0.025971
  C     -1.752658   -0.772112   -0.268869
  C     -0.439949   -1.240046   -0.181716
  C      2.006835   -0.934441    0.197657
  O      2.137177   -2.145416    0.349034
  S      3.328611    0.180491   -0.020015
  H      1.130555    1.671068    0.614207
  H     -1.204002    2.497597    0.497049
  H     -3.057579    0.941713   -0.089492
  H     -2.563183   -1.461465   -0.518979
  H     -0.222908   -2.295791   -0.349959

----------------------------
CARTESIAN COORDINATES (A.U.)
----------------------------
  NO LB      ZA    FRAG     MASS         X           Y           Z
   0 C     6.0000    0    12.011    1.155357   -0.695809    0.237266
   1 C     6.0000    0    12.011    0.613880    1.846933    0.706103
   2 C     6.0000    0    12.011   -1.870147    2.728753    0.571295
   3 C     6.0000    0    12.011   -3.836953    1.082446   -0.049079
   4 C     6.0000    0    12.011   -3.312044   -1.459080   -0.508088
   5 C     6.0000    0    12.011   -0.831384   -2.343348   -0.343393
   6 C     6.0000    0    12.011    3.792369   -1.765838    0.373518
   7 O     8.0000    0    15.999    4.038679   -4.054249    0.659578
   8 S    16.0000    0    32.060    6.290162    0.341078   -0.037824
   9 H     1.0000    0     1.008    2.136439    3.157861    1.160683
  10 H     1.0000    0     1.008   -2.275235    4.719774    0.939287
  11 H     1.0000    0     1.008   -5.777988    1.779580   -0.169115
  12 H     1.0000    0     1.008   -4.843713   -2.761768   -0.980728
  13 H     1.0000    0     1.008   -0.421236   -4.338415   -0.661327

--------------------------------
INTERNAL COORDINATES (ANGSTROEM)
--------------------------------
 C      0   0   0     0.000000000000     0.00000000     0.00000000
 C      1   0   0     1.397923953428     0.00000000     0.00000000
 C      2   1   0     1.396683863890   120.36034788     0.00000000
 C      3   2   1     1.396417827410   120.33361876   359.59267217
 C      4   3   2     1.394617651768   119.61286673     0.68988513
 C      5   4   3     1.396339197592   119.96995261     0.06283386
 C      1   2   3     1.507677597552   122.86952604   180.50013266
 O      7   1   2     1.227340508552   118.34314559   159.39371356
 S      7   1   2     1.742855146371   117.11078142   336.47060909
 H      2   1   3     1.090074353529   120.01431968   180.63858819
 H      3   2   1     1.092680819915   119.84727954   180.04859195
 H      4   3   2     1.093237249973   120.22583427   180.51200002
 H      5   4   3     1.093029096591   120.02414779   179.54018908
 H      6   5   4     1.090875168590   120.11526464   178.67129458

---------------------------
INTERNAL COORDINATES (A.U.)
---------------------------
 C      0   0   0     0.000000000000     0.00000000     0.00000000
 C      1   0   0     2.641693428028     0.00000000     0.00000000
 C      2   1   0     2.639349998420   120.36034788     0.00000000
 C      3   2   1     2.638847262330   120.33361876   359.59267217
 C      4   3   2     2.635445423374   119.61286673     0.68988513
 C      5   4   3     2.638698673507   119.96995261     0.06283386
 C      1   2   3     2.849097757622   122.86952604   180.50013266
 O      7   1   2     2.319337434231   118.34314559   159.39371356
 S      7   1   2     3.293518917737   117.11078142   336.47060909
 H      2   1   3     2.059941993782   120.01431968   180.63858819
 H      3   2   1     2.064867501428   119.84727954   180.04859195
 H      4   3   2     2.065919001851   120.22583427   180.51200002
 H      5   4   3     2.065525648964   120.02414779   179.54018908
 H      6   5   4     2.061455314930   120.11526464   178.67129458



           ************************************************************
           *        Program running with 64 parallel MPI-processes    *
           *              working on a common directory               *
           ************************************************************
------------------------------------------------------------------------------
                   ___                                                        
[...]
     35       0.050625   0.086426   0.121216   0.014622   0.081750   0.023912
     36      -0.307316   0.116201  -0.192956   0.351051   0.185555   0.205422
     37       0.300339  -0.124917   0.389139  -0.289945   0.077359  -0.299640
     38       0.021160  -0.012619   0.047073  -0.014638   0.031218  -0.030752
     39      -0.473252  -0.230122   0.101112   0.444149   0.248406  -0.226706
     40      -0.128539  -0.063098   0.155718   0.035850  -0.035190  -0.195893
     41      -0.065486  -0.029382   0.035205   0.048553   0.018575  -0.054308
                 36         37         38         39         40         41    
      0       0.100881  -0.000434  -0.000216  -0.000391  -0.000532  -0.001771
      1       0.196208   0.000313  -0.000261   0.000349   0.002496  -0.001491
      2       0.042093   0.000009  -0.000061   0.000019   0.000363  -0.000429
      3      -0.039667  -0.005245  -0.006896  -0.013017  -0.065192  -0.001579
      4      -0.079487  -0.005423  -0.008407  -0.012924  -0.051850  -0.001264
      5      -0.016963  -0.001430  -0.002082  -0.003439  -0.015043  -0.000371
      6       0.105958  -0.008628  -0.011883  -0.003807   0.008451   0.000773
      7       0.064948   0.038399   0.059883   0.040272  -0.022726  -0.003344
      8       0.021271   0.005546   0.008804   0.006341  -0.002956  -0.000478
      9      -0.062495   0.049639   0.006714  -0.064903   0.009162   0.003866
     10      -0.133679  -0.016983  -0.007073   0.022590  -0.001908  -0.002539
     11      -0.028302   0.002017  -0.000522  -0.002594   0.000583  -0.000045
     12       0.027188  -0.038358   0.043834  -0.024151   0.003243   0.015326
     13       0.084252  -0.031588   0.038325  -0.025621   0.003347   0.008210
     14       0.016515  -0.008973   0.010611  -0.006595   0.000869   0.002849
     15      -0.127256  -0.000240  -0.000568  -0.000436   0.000658  -0.020091
     16      -0.093945   0.006772  -0.007705   0.009305  -0.003342   0.082833
     17      -0.027900   0.001099  -0.001328   0.001503  -0.000484   0.011766
     18      -0.004067   0.000135   0.000061   0.000061  -0.000731  -0.000329
     19      -0.711100  -0.000018  -0.000056   0.000028  -0.000355   0.001577
     20      -0.113101   0.000014  -0.000002   0.000008  -0.000137   0.000226
     21      -0.023137  -0.000123   0.000084  -0.000153   0.000204  -0.000637
     22       0.472728   0.000001   0.000033  -0.000030  -0.000197  -0.000601
     23       0.072485  -0.000005   0.000020  -0.000021  -0.000010  -0.000170
     24       0.006643  -0.000060  -0.000047  -0.000104  -0.000200   0.000054
     25       0.013114   0.000001   0.000019   0.000029   0.000132   0.000002
     26       0.002738  -0.000005  -0.000004  -0.000008   0.000001   0.000007
     27      -0.103255   0.076657   0.107027   0.168672   0.726403   0.015390
     28      -0.026566   0.063875   0.089915   0.141085   0.597020   0.012998
     29      -0.014541   0.018166   0.025502   0.040087   0.170916   0.003689
     30      -0.127899   0.091679   0.135621   0.081096  -0.052241  -0.006742
     31       0.031113  -0.459682  -0.686668  -0.435434   0.247894   0.034855
     32      -0.007622  -0.067500  -0.100986  -0.064530   0.036106   0.005156
     33       0.032081  -0.591968  -0.091269   0.716968  -0.089347  -0.040671
     34       0.147712   0.206905   0.037874  -0.250695   0.030560   0.015095
     35       0.028248  -0.023388  -0.002563   0.028338  -0.003660  -0.001463
     36       0.122933   0.444536  -0.499931   0.285598  -0.036811  -0.131659
     37      -0.011001   0.382818  -0.432663   0.252590  -0.032677  -0.109206
     38       0.010285   0.106732  -0.120428   0.069724  -0.009014  -0.030946
     39       0.225625   0.020298  -0.021228   0.024149  -0.009399   0.217432
     40      -0.044618  -0.092344   0.100276  -0.113107   0.041936  -0.944944
     41       0.013718  -0.013306   0.014543  -0.016353   0.006015  -0.135042


-----------
IR SPECTRUM
-----------

 Mode   freq       eps      Int      T**2         TX        TY        TZ
       cm**-1   L/(mol*cm) km/mol    a.u.
----------------------------------------------------------------------------
  6:     42.23   0.000000    0.00  0.000002  (-0.001221 -0.000178  0.000460)
  7:    153.86   0.000304    1.54  0.000617  ( 0.001817  0.003915 -0.024459)
  8:    211.97   0.000105    0.53  0.000155  ( 0.011208 -0.005400 -0.000136)
  9:    340.29   0.002494   12.60  0.002287  (-0.046564 -0.009013 -0.006139)
 10:    424.83   0.000000    0.00  0.000000  (-0.000133  0.000053  0.000415)
 11:    445.73   0.000069    0.35  0.000048  (-0.001365 -0.006567 -0.001754)
 12:    449.19   0.000912    4.61  0.000634  ( 0.004775  0.024333  0.004359)
 13:    555.79   0.001495    7.55  0.000839  ( 0.027767 -0.008147  0.001341)
 14:    629.19   0.000057    0.29  0.000028  ( 0.004316 -0.003086  0.000453)
 15:    661.47   0.003855   19.48  0.001819  ( 0.004189  0.007529 -0.041769)
 16:    713.83   0.000819    4.14  0.000358  ( 0.016920  0.007831  0.003252)
 17:    721.73   0.006557   33.14  0.002835  ( 0.005679  0.009158 -0.052145)
 18:    796.66   0.002499   12.63  0.000979  ( 0.003515  0.005487 -0.030599)
 19:    883.41   0.000026    0.13  0.000009  (-0.000827 -0.000417  0.002861)
 20:    965.24   0.000489    2.47  0.000158  ( 0.003331  0.003038 -0.011735)
 21:    974.26   0.025933  131.06  0.008307  (-0.088275 -0.019112 -0.012200)
 22:   1021.54   0.004421   22.34  0.001351  (-0.036185 -0.004595 -0.004492)
 23:   1029.25   0.000063    0.32  0.000019  (-0.001632 -0.000139  0.004039)
 24:   1036.34   0.000032    0.16  0.000010  (-0.002249  0.000609 -0.002045)
 25:   1055.52   0.003468   17.52  0.001025  ( 0.029688 -0.011977  0.000578)
 26:   1082.17   0.002307   11.66  0.000665  (-0.001668  0.025434  0.003957)
 27:   1147.44   0.000002    0.01  0.000001  ( 0.000419 -0.000666  0.000171)
 28:   1153.38   0.011708   59.17  0.003168  (-0.055635  0.007567 -0.003902)
 29:   1199.91   0.013744   69.45  0.003574  ( 0.059516 -0.001435  0.005489)
 30:   1302.34   0.000583    2.95  0.000140  (-0.004239 -0.010826 -0.002126)
 31:   1365.40   0.000804    4.06  0.000184  ( 0.010133 -0.008985 -0.000504)
 32:   1481.26   0.000812    4.10  0.000171  ( 0.006904  0.010762  0.002749)
 33:   1517.44   0.001711    8.65  0.000352  ( 0.018599 -0.001994  0.001420)
 34:   1665.44   0.010901   55.09  0.002043  ( 0.006847  0.044012  0.007665)
 35:   1685.01   0.000677    3.42  0.000125  (-0.011121 -0.000651 -0.001107)
 36:   1718.78   0.058695  296.62  0.010657  (-0.019030 -0.099931 -0.017561)
 37:   3180.40   0.000112    0.57  0.000011  (-0.001243 -0.003024 -0.000592)
 38:   3192.06   0.007940   40.13  0.000776  ( 0.011414  0.024855  0.005310)
 39:   3207.65   0.007915   40.00  0.000770  (-0.025887  0.009957 -0.000857)
 40:   3220.04   0.003008   15.20  0.000292  ( 0.014717 -0.008659 -0.000006)
 41:   3233.10   0.001625    8.21  0.000157  ( 0.011810  0.003709  0.001909)

* The epsilon (eps) is given for a Dirac delta lineshape.
** The dipole moment derivative (T) already includes vibrational overlap.

The first frequency considered to be a vibration is 6
The total number of vibrations considered is 36


--------------------------
THERMOCHEMISTRY AT 298.15K
--------------------------

Temperature         ...   298.15 K
Pressure            ...     1.00 atm
Total Mass          ...   137.18 AMU
Quasi RRHO          ...     True
Cut-Off Frequency   ...     1.00 cm^-1

Throughout the following assumptions are being made:
  (1) The electronic state is orbitally nondegenerate
  (2) There are no thermally accessible electronically excited states
  (3) Hindered rotations indicated by low frequency modes are not
      treated as such but are treated as vibrations and this may
      cause some error
  (4) All equations used are the standard statistical mechanics
      equations for an ideal gas
  (5) All vibrations are strictly harmonic

freq.      42.23  E(vib)   ...       0.53 
freq.     153.86  E(vib)   ...       0.40 
freq.     211.97  E(vib)   ...       0.34 
freq.     340.29  E(vib)   ...       0.23 
freq.     424.83  E(vib)   ...       0.18 
freq.     445.73  E(vib)   ...       0.17 
freq.     449.19  E(vib)   ...       0.17 
freq.     555.79  E(vib)   ...       0.12 
freq.     629.19  E(vib)   ...       0.09 
freq.     661.47  E(vib)   ...       0.08 
freq.     713.83  E(vib)   ...       0.07 
freq.     721.73  E(vib)   ...       0.07 
freq.     796.66  E(vib)   ...       0.05 
freq.     883.41  E(vib)   ...       0.04 
freq.     965.24  E(vib)   ...       0.03 
freq.     974.26  E(vib)   ...       0.03 
freq.    1021.54  E(vib)   ...       0.02 
freq.    1029.25  E(vib)   ...       0.02 
freq.    1036.34  E(vib)   ...       0.02 
freq.    1055.52  E(vib)   ...       0.02 
freq.    1082.17  E(vib)   ...       0.02 
freq.    1147.44  E(vib)   ...       0.01 
freq.    1153.38  E(vib)   ...       0.01 
freq.    1199.91  E(vib)   ...       0.01 
freq.    1302.34  E(vib)   ...       0.01 
freq.    1365.40  E(vib)   ...       0.01 
freq.    1481.26  E(vib)   ...       0.00 
freq.    1517.44  E(vib)   ...       0.00 
freq.    1665.44  E(vib)   ...       0.00 
freq.    1685.01  E(vib)   ...       0.00 
freq.    1718.78  E(vib)   ...       0.00 
freq.    3180.40  E(vib)   ...       0.00 
freq.    3192.06  E(vib)   ...       0.00 
freq.    3207.65  E(vib)   ...       0.00 
freq.    3220.04  E(vib)   ...       0.00 
freq.    3233.10  E(vib)   ...       0.00 

------------
INNER ENERGY
------------

The inner energy is: U= E(el) + E(ZPE) + E(vib) + E(rot) + E(trans)
    E(el)   - is the total energy from the electronic structure calculation
              = E(kin-el) + E(nuc-el) + E(el-el) + E(nuc-nuc)
    E(ZPE)  - the the zero temperature vibrational energy from the frequency calculation
    E(vib)  - the the finite temperature correction to E(ZPE) due to population
              of excited vibrational states
    E(rot)  - is the rotational thermal energy
    E(trans)- is the translational thermal energy

Summary of contributions to the inner energy U:
Electronic energy                ...   -742.69178338 Eh
Zero point energy                ...      0.10129678 Eh      63.56 kcal/mol
Thermal vibrational correction   ...      0.00436033 Eh       2.74 kcal/mol
Thermal rotational correction    ...      0.00141627 Eh       0.89 kcal/mol
Thermal translational correction ...      0.00141627 Eh       0.89 kcal/mol
-----------------------------------------------------------------------
Total thermal energy                   -742.58329372 Eh


Summary of corrections to the electronic energy:
(perhaps to be used in another calculation)
Total thermal correction                  0.00719287 Eh       4.51 kcal/mol
Non-thermal (ZPE) correction              0.10129678 Eh      63.56 kcal/mol
-----------------------------------------------------------------------
Total correction                          0.10848966 Eh      68.08 kcal/mol


--------
ENTHALPY
--------

The enthalpy is H = U + kB*T
                kB is Boltzmann's constant
Total thermal energy              ...   -742.58329372 Eh 
Thermal Enthalpy correction       ...      0.00094421 Eh       0.59 kcal/mol
-----------------------------------------------------------------------
Total Enthalpy                    ...   -742.58234952 Eh


Note: Only C1 symmetry has been detected, increase convergence thresholds 
      if your molecule has a higher symmetry. Symmetry factor of 1.0 is   
      used for the rotational entropy correction. 
 

Note: Rotational entropy computed according to Herzberg 
Infrared and Raman Spectra, Chapter V,1, Van Nostrand Reinhold, 1945 
Point Group:  C1, Symmetry Number:   1  
Rotational constants in cm-1:     0.106082     0.031683     0.024397 

Vibrational entropy computed according to the QRRHO of S. Grimme
Chem.Eur.J. 2012 18 9955 using a reference frequency of 100.0 cm-1


-------
ENTROPY
-------

The entropy contributions are T*S = T*(S(el)+S(vib)+S(rot)+S(trans))
     S(el)   - electronic entropy
     S(vib)  - vibrational entropy
     S(rot)  - rotational entropy
     S(trans)- translational entropy
The entropies will be listed as multiplied by the temperature to get
units of energy

Electronic entropy                ...      0.00000000 Eh      0.00 kcal/mol
Vibrational entropy               ...      0.00719202 Eh      4.51 kcal/mol
Rotational entropy                ...      0.01395263 Eh      8.76 kcal/mol
Translational entropy             ...      0.01931892 Eh     12.12 kcal/mol
-----------------------------------------------------------------------
Final entropy term                ...      0.04046356 Eh     25.39 kcal/mol

In case the symmetry of your molecule has not been determined correctly
or in case you have a reason to use a different symmetry number we print 
out the resulting rotational entropy values for sn=1,12:

 non-linear molecules -----------------------------------
|  sn= 1 | S(rot)=       0.01395263 Eh      8.76 kcal/mol|
|  sn= 2 | S(rot)=       0.01329817 Eh      8.34 kcal/mol|
|  sn= 3 | S(rot)=       0.01291534 Eh      8.10 kcal/mol|
|  sn= 4 | S(rot)=       0.01264371 Eh      7.93 kcal/mol|
|  sn= 5 | S(rot)=       0.01243303 Eh      7.80 kcal/mol|
|  sn= 6 | S(rot)=       0.01226088 Eh      7.69 kcal/mol|
|  sn= 7 | S(rot)=       0.01211534 Eh      7.60 kcal/mol|
|  sn= 8 | S(rot)=       0.01198926 Eh      7.52 kcal/mol|
|  sn= 9 | S(rot)=       0.01187805 Eh      7.45 kcal/mol|
|  sn=10 | S(rot)=       0.01177857 Eh      7.39 kcal/mol|
|  sn=11 | S(rot)=       0.01168858 Eh      7.33 kcal/mol|
|  sn=12 | S(rot)=       0.01160643 Eh      7.28 kcal/mol|
 linear molecules ---------------------------------------
|  Dinfh | S(rot)=       0.00883184 Eh      5.54 kcal/mol|
|  Cinfv | S(rot)=       0.00948629 Eh      5.95 kcal/mol|
 --------------------------------------------------------


-------------------
GIBBS FREE ENERGY
-------------------

The Gibbs free energy is G = H - T*S

Total enthalpy                    ...   -742.58234952 Eh 
Total entropy correction          ...     -0.04046356 Eh    -25.39 kcal/mol
-----------------------------------------------------------------------
Final Gibbs free energy         ...   -742.62281308 Eh

For completeness - the Gibbs free energy minus the electronic energy
G-E(el)                           ...      0.06897031 Eh     43.28 kcal/mol


Maximum memory used throughout the entire PROP-calculation: 40.9 MB

--------------------------------
SUGGESTED CITATIONS FOR THIS RUN
--------------------------------

Below you find a list of papers that are relevant to this ORCA run
We neither can nor want to force you to cite these papers, but we appreciate if you do
You receive ORCA, which is the product of decades of hard work by many enthusiastic individuals, for free
The only thing we kindly ask in return is that you cite our papers,
We deeply appreciate it, if you show your appreciation for ORCA by not just citing the generic ORCA reference.

Please note that relegating all ORCA citations to the supporting information does *not* help us.
SI sections are not indexed - citations you put there will not count into any citation statistics
But we need these citations in order to attract the funding resources that allow us to do what we are doing

Therefore, if you are a happy ORCA user, please consider citing a few of the papers listed below in the main body of your paper

In addition to the list printed below, the program has created the file /lustre/project/xlzhang/jingyi/chemsmart/test_pka/orca/pka_scale_frag5_pka_A_opt.bibtex that contains the list in bibtex format
You can import this file easily into all common literature databanks and citation aid programs


List of essential papers. We consider these as the minimum necessary citations

  1. Neese, F.
     Software update: the ORCA program system, version 6.0
     WIRES Comput. Molec. Sci. 2025 15(1), e70019
     doi.org/10.1002/wcms.7019

List of papers to cite with high priority. The work reported in these papers was absolutely
necessary for this run to complete.
Our perspective: the developers of density functionals and basis sets usually get cited in chemistry papers
Good! But without the algorithms to do something with them, the functionals or basis sets would not do anything.
Hence, in our opinion, the algorithm design and method developments papers are equally worthy of getting cited

  1. Neese, F.
     An improvement of the resolution of the identity approximation for the formation of the Coulomb matrix
     J. Comp. Chem. 2003 24(14), 1740-1747
     doi.org/10.1002/jcc.10318
  2. Neese, F.; Wennmohs, F.; Hansen, A.; Becker, U.
     Efficient, approximate and parallel Hartree-Fock and hybrid DFT calculations. A 'chain-of-spheres' algorithm for the Hartree-Fock exchange
     Chem. Phys. 2009 356(1-3), 98-109
     doi.org/10.1016/j.chemphys.2008.10.036
  3. Bykov, D.; Petrenko, T.; Izsak, R.; Kossmann, S.; Becker, U.; Valeev, E.; Neese, F.
     Efficient implementation of the analytic second derivatives of Hartree-Fock and hybrid DFT energies: a detailed analysis of different approximations
     Molec. Phys. 2015 113 , 1961-1977
     doi.org/10.1080/00268976.2015.1025114
  4. Helmich-Paris, B.; de Souza, B.; Neese, F.; Izsák, R.
     An improved chain of spheres for exchange algorithm
     J. Chem. Phys. 2021 155(10), 104109
     doi.org/10.1063/5.0058766
  5. Neese, F.
     The SHARK Integral Generation and Digestion System
     J. Comp. Chem. 2022 44(3), 381
     doi.org/10.1002/jcc.26942

List of suggested additional citations. These are papers that are important in the 'surrounding' of 
of this run, or papers that preceded the highly important papers. If you like your results we are grateful for a citation.

  1. Izsak, R.; Neese, F.
     An overlap fitted chain of spheres exchange method
     J. Chem. Phys. 2011 135 , 144105
     doi.org/10.1063/1.3646921
  2. Izsak, R.; Hansen, A.; Neese, F.
     The resolution of identity and chain of spheres approximations for the LPNO-CCSD singles Fock term
     Molec. Phys. 2012 110 , 2413-2417
     doi.org/10.1080/00268976.2012.687466
  3. Neese, F.
     The ORCA program system
     WIRES Comput. Molec. Sci. 2012 2(1), 73-78
     doi.org/10.1002/wcms.81
  4. Izsak, R.; Neese, F.; Klopper, W.
     Robust fitting techniques in the chain of spheres approximation to the Fock exchange: The role of the complementary space
     J. Chem. Phys. 2013 139 , 
     doi.org/10.1063/1.4819264
  5. Neese, F.
     Software update: the ORCA program system, version 4.0
     WIRES Comput. Molec. Sci. 2018 8(1), 1-6
     doi.org/10.1002/wcms.1327
  6. Neese, F.; Wennmohs, F.; Becker, U.; Riplinger, C.
     The ORCA quantum chemistry program package
     J. Chem. Phys. 2020 152(22), 224108
     doi.org/10.1063/5.0004608
  7. Neese, F.
     Software update: The ORCA program system—Version 5.0
     WIRES Comput. Molec. Sci. 2022 12(1), e1606
     doi.org/10.1002/wcms.1606

List of optional additional citations

  1. Neese, F.
     Approximate second-order SCF convergence for spin unrestricted wavefunctions
     Chem. Phys. Lett. 2000 325(1-3), 93-98
     doi.org/10.1016/s0009-2614(00)00662-x

Timings for individual modules:

Sum of individual times          ...      343.732 sec (=   5.729 min)
Startup calculation              ...       54.237 sec (=   0.904 min)  15.8 %
SCF iterations                   ...      200.313 sec (=   3.339 min)  58.3 %
Property integrals               ...       30.798 sec (=   0.513 min)   9.0 %
SCF Response                     ...       20.921 sec (=   0.349 min)   6.1 %
Property calculations            ...        9.252 sec (=   0.154 min)   2.7 %
SCF Gradient evaluation          ...       28.149 sec (=   0.469 min)   8.2 %
Geometry relaxation              ...        0.062 sec (=   0.001 min)   0.0 %
                             ****ORCA TERMINATED NORMALLY****
TOTAL RUN TIME: 0 days 0 hours 6 minutes 51 seconds 410 msec
