
                                 *****************
                                 * O   R   C   A *
                                 *****************

                                            #,                                       
                                            ###                                      
                                            ####                                     
                                            #####                                    
                                            ######                                   
                                           ########,                                 
                                     ,,################,,,,,                         
                               ,,#################################,,                 
                          ,,##########################################,,             
                       ,#########################################, ''#####,          
                    ,#############################################,,   '####,        
                  ,##################################################,,,,####,       
                ,###########''''           ''''###############################       
              ,#####''   ,,,,##########,,,,          '''####'''          '####       
            ,##' ,,,,###########################,,,                        '##       
           ' ,,###''''                  '''############,,,                           
         ,,##''                                '''############,,,,        ,,,,,,###''
      ,#''                                            '''#######################'''  
     '                                                          ''''####''''         
             ,#######,   #######,   ,#######,      ##                                
            ,#'     '#,  ##    ##  ,#'     '#,    #''#        ,####,    ,#,          
            ##       ##  ##   ,#'  ##            #'  '#       #'       ,# #          
            ##       ##  #######   ##           ,######,      #####,      #          
            '#,     ,#'  ##    ##  '#,     ,#' ,#      #,     #,   #      #          
             '#######'   ##     ##  '#######'  #'      '#     '####' #    #          



                #########################################################
                #                        -***-                          #
                #          Department of theory and spectroscopy        #
                #                                                       #
                #                      Frank Neese                      #
                #                                                       #
                #     Directorship, Architecture, Infrastructure        #
                #                    SHARK, DRIVERS                     #
                #        Core code/Algorithms in most modules           #
                #                                                       #
                #        Max Planck Institute fuer Kohlenforschung      #
                #                Kaiser Wilhelm Platz 1                 #
                #                 D-45470 Muelheim/Ruhr                 #
                #                      Germany                          #
                #                                                       #
                #                  All rights reserved                  #
                #                        -***-                          #
                #########################################################


                         Program Version 6.1.0  -  RELEASE   -
                                (GIT: $679e74b$)
                          ($2025-06-10 18:02:51 +0200$)


 With contributions from (in alphabetic order):
[Max-Planck-Institut fuer Kohlenforschung]                               
  Daniel Aravena         : Magnetic Suceptibility                        
  Michael Atanasov       : Ab Initio Ligand Field Theory (pilot matlab implementation)
  Alexander A. Auer      : GIAO ZORA, VPT2 properties, NMR spectrum      
  Ute Becker             : All parallelization in ORCA, NUMFREQ, NUMCALC 
  Giovanni Bistoni       : ED, misc. LED, open-shell LED, HFLD           
  Dmytro Bykov           : pre 5.0 version of the SCF Hessian            
  Marcos Casanova-Páez   : Triplet and SCS-CIS(D). UHF-(DLPNO)-IP/EA/STEOM-CCSD. UHF-CVS-IP/STEOM-CCSD   
  Vijay G. Chilkuri      : MRCI spin determinant printing, contributions to CSF-ICE 
  Pauline Colinet        : FMM embedding                                 
  Dipayan Datta          : RHF DLPNO-CCSD density                        
  Achintya Kumar Dutta   : EOM-CC, STEOM-CC                              
  Nicolas Foglia         : Exact transition moments, OPA infrastructure, MCD improvements    
  Dmitry Ganyushin       : Spin-Orbit,Spin-Spin,Magnetic field MRCI      
  Miquel Garcia-Rates    : C-PCM and meta-GGA Hessian, CCSD/C-PCM, Gaussian charge scheme 
  Tiago L. C. Gouveia    : GS-ROHF, GS-ROCIS                             
  Yang Guo               : DLPNO-NEVPT2, F12-NEVPT2, CIM, IAO-localization        
  Andreas Hansen         : Spin unrestricted coupled pair/coupled cluster methods 
  Ingolf Harden          : AUTO-CI MPn and infrastructure                
  Benjamin Helmich-Paris : MC-RPA, TRAH-(SCF,CASSCF), AVAS, COSX integrals, SCF dyn. polar., MC-PDFT, srDFT 
  Lee Huntington         : MR-EOM, pCC                                   
  Robert Izsak           : Overlap fitted RIJCOSX, COSX-SCS-MP3, EOM     
  Riya Kayal             : Wick's Theorem for AUTO-CI, AUTO-CI UHF-CCSDT 
  Emily Kempfer          : AUTO-CI RHF CISDT and CCSDT, approximate NEVPT4
  Christian Kollmar      : KDIIS, OOCD, Brueckner-CCSD(T), CCSD density, CASPT2, CASPT2-K, improved NEVPT2 
  Axel Koslowski         : Symmetry handling                             
  Simone Kossmann        : meta-GGA functionals, TD-DFT gradient, OOMP2, (MP2 Hessian; deprecated post 5.0) 
  Lucas Lang             : DCDCAS, Hyperfine gauge corrections, ICE-SOC+SSC
  Marvin Lechner         : AUTO-CI (C++ implementation), FIC-MRCC        
  Spencer Leger          : CASSCF response                               
  Dagmar Lenk            : GEPOL surface, SMD, ORCA-2-JSON               
  Dimitrios Liakos       : Extrapolation schemes; Compound Job, Property file
  Dimitrios Manganas     : Further ROCIS development; embedding schemes. LFT, Crystal Embedding 
  Dimitrios Pantazis     : SARC Basis sets                               
  Anastasios Papadopoulos: AUTO-CI, single reference methods and gradients 
  Taras Petrenko         : pre 6.0 DFT Hessian and TD-DFT gradient,  ECA, NRVS 
  Petra Pikulova         : Analytic Raman intensities                    
  Peter Pinski           : DLPNO-MP2, DLPNO-MP2 Gradient                 
  Shashank Vittal Rao    : ES-AILFT, MagRelax                            
  Christoph Reimann      : Effective Core Potentials                     
  Marius Retegan         : Local ZFS, SOC                                
  Christoph Riplinger    : Optimizer, TS searches, QM/MM, DLPNO-CCSD(T), (RO)-DLPNO pert. Triples 
  Michael Roemelt        : Original ROCIS implementation, recursive CI coupling coefficients
  Masaaki Saitow         : Open-shell DLPNO-CCSD energy and density      
  Barbara Sandhoefer     : DKH picture change effects                    
  Yorick L. A. Schmerwitz: GMF and freeze-and-release deltaSCF, NEB S-IDPP initial path                    
  Kantharuban Sivalingam : CASSCF convergence/infrastructure, NEVPT2, NEVPT3, NEVPT4(SD), FIC-MRCI and CEPA variants
  Bernardo de Souza      : ESD, SOC TD-DFT                               
  Georgi L. Stoychev     : AutoAux, RI-MP2 NMR, DLPNO-MP2 response, X2C  
  Van Anh Tran           : RI-MP2 g-tensors                              
  Willem Van den Heuvel  : Paramagnetic NMR                              
  Zikuan Wang            : NOTCH, Electric field optimization            
  Frank Wennmohs         : Technical directorship and infrastructure     
  Hang Xu                : AUTO-CI-Response properties                   
                                                                         
[FACCTs GmbH]                                                            
  Markus Bursch, Nicolas Foglia, Miquel Garcia-Rates, Ingolf Harden, Hagen Neugebauer, Anastasios Papadopoulos, 
  Christoph Riplinger, Bernardo de Souza, Georgi L. Stoychev                                                    
                                                                 
  APM, various basis sets, CI-OPT, improved COSX, DLPNO-Multilevel,           
  DOCKER, DRACO, updates on ESD, Fragmentator, GOAT, IRC, LR-CPCM, L-BFGS, MBIS, meta-GGA TD-DFT gradient, ML-optimized integration grids, 
  MM, NACMEs, nearIR, NEB, NEB-TS, NL-DFT gradient (VV10), 2- and 3-layer-ONIOM, interface openCOSMO-RS, QMMM,   
  Crystal-QMMM, RESP, rigid body optimization, SF, symmetry and pop. for TD-DFT, various functionals, SOLVATOR                                   
                                                                         
[Other institutions]                                                     
  V. Asgeirsson          : NEB                                           
  Christoph Bannwarth    : sTDA-DFT, sTD-DFT, PBEh-3c, B97-3c, D3        
  Giovanni Bistoni       : ETS/NOCV, ADLD/ADEX, COVALED                  
  Martin Brehm           : Molecular dynamics                            
  Ronald Cardenas        : ETS/NOCV                                      
  Martina Colucci        : COVALED                                       
  Sebastian Ehlert       : rSCAN, r2SCAN, r2SCAN-3c, D4, dhf basis sets  
  Marvin Friede          : D4 for Fr, Ra, Ac-Lr                          
  Lars Goerigk           : TD-DFT with DH, B97 family of functionals     
  Stefan Grimme          : VdW corrections, initial TS optimization, DFT functionals, gCP, sTDA/sTD-DF 
  Waldemar Hujo          : DFT-NL                                        
  H. Jonsson             : NEB                                           
  Holger Kruse           : gCP                                           
  Marcel Mueller         : wB97X-3c, vDZP basis set                      
  Hagen Neugebauer       : wr2SCAN, Native XTB                           
  Gianluca Regni         : ADLD/ADEX                                     
  Tobias Risthaus        : pre 6.0 range-separated hybrid DFT and stability analysis
  Lukas Wittmann         : regularized MP2, r2SCAN double-hybrids, wr2SCAN        
                                                                         
We gratefully acknowledge several colleagues who have allowed us to      
interface, adapt or use parts of their codes:                            
  Ed Valeev, F. Pavosevic, A. Kumar             : LibInt (2-el integral package), F12 methods 
  Garnet Chan, S. Sharma, J. Yang, R. Olivares  : DMRG                   
  Ulf Ekstrom                                   : XCFun DFT Library      
  Mihaly Kallay                                 : mrcc  (arbitrary order and MRCC methods)
  Frank Weinhold                                : gennbo (NPA and NBO analysis)           
  Simon Mueller                                 : openCOSMO-RS                            
  Christopher J. Cramer and Donald G. Truhlar   : smd solvation model                     
  S Lehtola, MJT Oliveira, MAL Marques          : LibXC Library                           
  Liviu Ungur et al                             : ANISO software                          


 Your calculation uses the libint2 library for the computation of 2-el integrals
 For citations please refer to: http://libint.valeyev.net

 Your ORCA version has been built with support for libXC version: 7.0.0
 For citations please refer to: https://libxc.gitlab.io

 This ORCA versions uses:
   CBLAS   interface :  Fast vector & matrix operations
   LAPACKE interface :  Fast linear algebra routines
   SCALAPACK package :  Parallel linear algebra routines
   Shared memory     :  Shared parallel matrices
   BLAS/LAPACK       :  OpenBLAS 0.3.29  USE64BITINT DYNAMIC_ARCH NO_AFFINITY Cooperlake SINGLE_THREADED
        Core in use  :  Cooperlake
   Copyright (c) 2011-2014, The OpenBLAS Project


  ***********************************
  * Starting time: Wed Jun 10 15:37:10 2026
  * Host name:     chpc-cn082.rc.cuhk.edu.hk
  * Process ID:    2371674
  * Working dir.:  /lustre/project/xlzhang/jingyi/chemsmart/test_pka/orca
  ***********************************

NOTE: MaxCore=2109 MB was set to SCF,MP2,MDCI,CIPSI,MRCI,RASCI and CIS
      => If you want to overwrite this, your respective input block should be placed after the MaxCore statement
XCFun DFT library Copyright 2009-2010 Ulf Ekstrom and contributors.
See http://admol.org/xcfun for more information.
This is free software; see the source code for copying conditions.
There is ABSOLUTELY NO WARRANTY; not even for MERCHANTABILITY or FITNESS FOR A PARTICULAR PURPOSE.
For details see the documentation.
Scientific users of this library should cite U. Ekstrom, L. Visscher, R. Bast, A. J. Thorvaldsen and K. Ruud;
J.Chem.Theor.Comp. 2010, DOI: 10.1021/ct100117s
XCFun Version 0.99 

Warning: RI is on but no J-basis has been assigned. Assigning Def2/J (nothing to worry about!)
================================================================================

----- Orbital basis set information -----
Your calculation utilizes the basis: def2-SVP
   F. Weigend and R. Ahlrichs, Phys. Chem. Chem. Phys. 7, 3297 (2005).

----- AuxJ basis set information -----
Your calculation utilizes the auxiliary basis: def2/J
   H-Rn: F. Weigend, Phys. Chem. Chem. Phys. 8, 1057 (2006).
   Fr-Lr: K. Eichkorn, F. Weigend, O. Treutler, R. Ahlrichs; Theor. Chem. Acc. 97, 119 (1997).

================================================================================
                                        WARNINGS
                       Please study these warnings very carefully!
================================================================================

WARNING: Functional chosen is sensitive to the integration grid.
         DEFGRID3 seems to be a minimum grid for robust results!

WARNING: Geometry Optimization
  ===> : Switching off AutoStart
         For restart on a previous wavefunction, please use MOREAD

================================================================================
                                       INPUT FILE
================================================================================
NAME = /lustre/project/xlzhang/jingyi/chemsmart/test_pka/orca/pka_scale_frag1_pka_A_opt.inp
|  1> ! Opt Freq M062X def2-SVP defgrid2
|  2> # Number of processors
|  3> %pal nprocs 64 end
|  4> # Memory per core
|  5> %maxcore 2109
|  6> * xyz -1 1
|  7> C        1.2763808208    0.3143914648    0.2614460626
|  8> C        0.8256237481   -0.9230664187   -0.2140553926
|  9> C       -0.5533415114   -1.0787128018   -0.4315613510
| 10> C       -1.4464115520   -0.0172580148   -0.1803285806
| 11> C       -0.9525182880    1.2097063982    0.2910129808
| 12> C        0.4151357677    1.3884266799    0.5163858624
| 13> N       -1.8822862916    2.3183796670    0.5521915455
| 14> O       -3.0801164801    2.1280600888    0.3087452382
| 15> O       -1.4058327654    3.3689036766    0.9993658759
| 16> N        2.6876057548    0.5176386042    0.5081830665
| 17> O        3.1367200321    0.0815862144    1.5749356392
| 18> O        3.3087090670    1.1705410319   -0.3395383238
| 19> N       -1.1007627153   -2.3479773431   -0.9277228811
| 20> O       -0.2990316020   -3.2727747534   -1.1268883171
| 21> O       -2.3207982272   -2.4184910543   -1.1160060385
| 22> O        1.7555090625   -1.8975499092   -0.4482076960
| 23> H       -2.5164206566   -0.1445557475   -0.3513931890
| 24> H        0.8140240148    2.3343631707    0.8816719653
| 25> *
| 26> 
| 27>                          ****END OF INPUT****
================================================================================

                       *****************************
                       * Geometry Optimization Run *
                       *****************************

Geometry optimization settings:
Update method            Update   .... BFGS
Choice of coordinates    CoordSys .... (2022) Redundant Internals
Initial Hessian          InHess   .... Almloef's Model
Max. no of cycles        MaxIter  .... 54

Convergence Tolerances:
Energy Change            TolE     ....  5.0000e-06 Eh
Max. Gradient            TolMAXG  ....  3.0000e-04 Eh/bohr
RMS Gradient             TolRMSG  ....  1.0000e-04 Eh/bohr
Max. Displacement        TolMAXD  ....  4.0000e-03 bohr
RMS Displacement         TolRMSD  ....  2.0000e-03 bohr
Strict Convergence                .... False

------------------------------------------------------------------------------
                        ORCA OPTIMIZATION COORDINATE SETUP
------------------------------------------------------------------------------

The optimization will be done in redundant internal coordinates (2022)
Making redundant internal coordinates   ...  (2022 redundants) done
Evaluating the initial hessian          ...  (Almloef) done
Evaluating the coordinates              ...  done
Calculating the B-matrix                .... done
Calculating the G-matrix                .... done
The number of degrees of freedom        ....   81

    -----------------------------------------------------------------
                    Redundant Internal Coordinates


    -----------------------------------------------------------------
         Definition                    Initial Value    Approx d2E/dq
    -----------------------------------------------------------------
      1. B(C   1,C   0)                  1.4002         0.601798   
      2. B(C   2,C   1)                  1.4047         0.592030   
      3. B(C   3,C   2)                  1.4097         0.581083   
      4. B(C   4,C   3)                  1.4041         0.593227   
      5. B(C   5,C   4)                  1.3976         0.607653   
      6. B(C   5,C   0)                  1.4001         0.602032   
      7. B(N   6,C   4)                  1.4703         0.416611   
      8. B(O   7,N   6)                  1.2370         0.879102   
      9. B(O   8,N   6)                  1.2372         0.878726   
     10. B(N   9,C   0)                  1.4470         0.453912   
     11. B(O  10,N   9)                  1.2369         0.879727   
     12. B(O  11,N   9)                  1.2372         0.878583   
     13. B(N  12,C   2)                  1.4686         0.419202   
     14. B(O  13,N  12)                  1.2400         0.869501   
     15. B(O  14,N  12)                  1.2365         0.880900   
     16. B(O  15,C   1)                  1.3672         0.608572   
     17. B(H  16,C   3)                  1.0910         0.358715   
     18. B(H  17,C   5)                  1.0897         0.360561   
     19. A(C   5,C   0,N   9)          117.4601         0.405791   
     20. A(C   1,C   0,N   9)          119.7364         0.405763   
     21. A(C   1,C   0,C   5)          122.8035         0.429473   
     22. A(C   0,C   1,O  15)          117.9781         0.427498   
     23. A(C   2,C   1,O  15)          124.2090         0.426246   
     24. A(C   0,C   1,C   2)          117.8102         0.428184   
     25. A(C   3,C   2,N  12)          118.3466         0.397654   
     26. A(C   1,C   2,C   3)          120.7226         0.425506   
     27. A(C   1,C   2,N  12)          120.9307         0.398960   
     28. A(C   2,C   3,C   4)          119.6657         0.425660   
     29. A(C   2,C   3,H  16)          120.3639         0.348838   
     30. A(C   4,C   3,H  16)          119.9703         0.350058   
     31. A(C   3,C   4,N   6)          119.7425         0.398667   
     32. A(C   3,C   4,C   5)          120.6702         0.429084   
     33. A(C   5,C   4,N   6)          119.5873         0.400356   
     34. A(C   0,C   5,H  17)          120.1190         0.351234   
     35. A(C   0,C   5,C   4)          118.3268         0.430220   
     36. A(C   4,C   5,H  17)          121.5542         0.351786   
     37. A(O   7,N   6,O   8)          125.0773         0.479850   
     38. A(C   4,N   6,O   8)          117.4488         0.421864   
     39. A(C   4,N   6,O   7)          117.4739         0.421896   
     40. A(C   0,N   9,O  11)          116.5452         0.428375   
     41. A(C   0,N   9,O  10)          116.8519         0.428475   
     42. A(O  10,N   9,O  11)          126.4925         0.479898   
     43. A(O  13,N  12,O  14)          124.8163         0.479097   
     44. A(C   2,N  12,O  14)          117.9377         0.422518   
     45. A(C   2,N  12,O  13)          117.2460         0.421536   
     46. D(C   2,C   1,C   0,N   9)    179.6071         0.024975   
     47. D(O  15,C   1,C   0,C   5)    179.0383         0.024975   
     48. D(C   2,C   1,C   0,C   5)     -0.3843         0.024975   
     49. D(O  15,C   1,C   0,N   9)     -0.9703         0.024975   
     50. D(C   3,C   2,C   1,C   0)      0.1786         0.024129   
     51. D(N  12,C   2,C   1,O  15)      0.6897         0.024129   
     52. D(C   3,C   2,C   1,O  15)   -179.2049         0.024129   
     53. D(N  12,C   2,C   1,C   0)   -179.9269         0.024129   
     54. D(H  16,C   3,C   2,N  12)      0.0977         0.023202   
     55. D(H  16,C   3,C   2,C   1)    179.9949         0.023202   
     56. D(C   4,C   3,C   2,N  12)   -179.8228         0.023202   
     57. D(C   4,C   3,C   2,C   1)      0.0744         0.023202   
     58. D(N   6,C   4,C   3,C   2)    179.9328         0.024231   
     59. D(C   5,C   4,C   3,H  16)    179.9396         0.024231   
     60. D(C   5,C   4,C   3,C   2)     -0.1396         0.024231   
     61. D(N   6,C   4,C   3,H  16)      0.0120         0.024231   
     62. D(H  17,C   5,C   4,N   6)     -0.0891         0.025490   
     63. D(C   0,C   5,C   4,N   6)    179.8754         0.025490   
     64. D(C   0,C   5,C   4,C   3)     -0.0523         0.025490   
     65. D(H  17,C   5,C   0,N   9)      0.2966         0.024995   
     66. D(H  17,C   5,C   0,C   1)   -179.7119         0.024995   
     67. D(H  17,C   5,C   4,C   3)    179.9832         0.025490   
     68. D(C   4,C   5,C   0,N   9)   -179.6685         0.024995   
     69. D(C   4,C   5,C   0,C   1)      0.3231         0.024995   
     70. D(O   8,N   6,C   4,C   5)     -1.7572         0.013683   
     71. D(O   8,N   6,C   4,C   3)    178.1712         0.013683   
     72. D(O   7,N   6,C   4,C   5)    178.2954         0.013683   
     73. D(O   7,N   6,C   4,C   3)     -1.7762         0.013683   
     74. D(O  11,N   9,C   0,C   1)    102.9169         0.016228   
     75. D(O  10,N   9,C   0,C   5)     99.3395         0.016228   
     76. D(O  10,N   9,C   0,C   1)    -80.6523         0.016228   
     77. D(O  11,N   9,C   0,C   5)    -77.0913         0.016228   
     78. D(O  14,N  12,C   2,C   3)      0.8175         0.013850   
     79. D(O  14,N  12,C   2,C   1)   -179.0795         0.013850   
     80. D(O  13,N  12,C   2,C   3)   -179.1756         0.013850   
     81. D(O  13,N  12,C   2,C   1)      0.9275         0.013850   
    -----------------------------------------------------------------

Number of atoms                         .... 18
Number of degrees of freedom            .... 81


         *************************************************************
         *                GEOMETRY OPTIMIZATION CYCLE   1            *
         *************************************************************
---------------------------------
CARTESIAN COORDINATES (ANGSTROEM)
---------------------------------
  C      1.276381    0.314391    0.261446
  C      0.825624   -0.923066   -0.214055
  C     -0.553342   -1.078713   -0.431561
  C     -1.446412   -0.017258   -0.180329
  C     -0.952518    1.209706    0.291013
  C      0.415136    1.388427    0.516386
  N     -1.882286    2.318380    0.552192
  O     -3.080116    2.128060    0.308745
  O     -1.405833    3.368904    0.999366
  N      2.687606    0.517639    0.508183
  O      3.136720    0.081586    1.574936
  O      3.308709    1.170541   -0.339538
  N     -1.100763   -2.347977   -0.927723
  O     -0.299032   -3.272775   -1.126888
  O     -2.320798   -2.418491   -1.116006
  O      1.755509   -1.897550   -0.448208
  H     -2.516421   -0.144556   -0.351393
  H      0.814024    2.334363    0.881672

----------------------------
CARTESIAN COORDINATES (A.U.)
----------------------------
  NO LB      ZA    FRAG     MASS         X           Y           Z
   0 C     6.0000    0    12.011    2.412010    0.594114    0.494061
   1 C     6.0000    0    12.011    1.560203   -1.744343   -0.404506
   2 C     6.0000    0    12.011   -1.045664   -2.038472   -0.815533
   3 C     6.0000    0    12.011   -2.733322   -0.032613   -0.340772
   4 C     6.0000    0    12.011   -1.799999    2.286014    0.549935
   5 C     6.0000    0    12.011    0.784493    2.623746    0.975828
   6 N     7.0000    0    14.007   -3.557006    4.381103    1.043491
   7 O     8.0000    0    15.999   -5.820577    4.021451    0.583444
   8 O     8.0000    0    15.999   -2.656639    6.366305    1.888528
   9 N     7.0000    0    14.007    5.078839    0.978195    0.960327
  10 O     8.0000    0    15.999    5.927542    0.154176    2.976197
  11 O     8.0000    0    15.999    6.252554    2.212002   -0.641634
  12 N     7.0000    0    14.007   -2.080140   -4.437034   -1.753142
  13 O     8.0000    0    15.999   -0.565088   -6.184648   -2.129510
  14 O     8.0000    0    15.999   -4.385673   -4.570286   -2.108946
  15 O     8.0000    0    15.999    3.317431   -3.585850   -0.846990
  16 H     1.0000    0     1.008   -4.755346   -0.273171   -0.664037
  17 H     1.0000    0     1.008    1.538282    4.411307    1.666119

--------------------------------
INTERNAL COORDINATES (ANGSTROEM)
--------------------------------
 C      0   0   0     0.000000000000     0.00000000     0.00000000
 C      1   0   0     1.400209122211     0.00000000     0.00000000
 C      2   1   0     1.404663598667   117.81016717     0.00000000
 C      3   2   1     1.409744043146   120.72258221     0.17856437
 C      4   3   2     1.404113633043   119.66572646     0.07435034
 C      5   4   3     1.397573429529   120.67016674   359.86043832
 N      5   4   3     1.470319421122   119.74245770   179.93281219
 O      7   5   4     1.237046808680   117.47392570   358.22380319
 O      7   5   4     1.237163505420   117.44875196   178.17121228
 N      1   2   3     1.446977665035   119.73642379   179.60708258
 O     10   1   2     1.236853415764   116.85191096   279.34772825
 O     10   1   2     1.237207525072   116.54522226   102.91691405
 N      3   2   1     1.468631578794   120.93068948   180.07308688
 O     13   3   2     1.240036249078   117.24597173     0.92746643
 O     13   3   2     1.236490752543   117.93770238   180.92051669
 O      2   1   3     1.367162050520   117.97811243   179.42261558
 H      4   3   2     1.091048714277   120.36394431   179.99485219
 H      6   5   4     1.089652061565   121.55420246   179.98319044

---------------------------
INTERNAL COORDINATES (A.U.)
---------------------------
 C      0   0   0     0.000000000000     0.00000000     0.00000000
 C      1   0   0     2.646011771197     0.00000000     0.00000000
 C      2   1   0     2.654429511768   117.81016717     0.00000000
 C      3   2   1     2.664030160473   120.72258221     0.17856437
 C      4   3   2     2.653390227356   119.66572646     0.07435034
 C      5   4   3     2.641031033854   120.67016674   359.86043832
 N      5   4   3     2.778501035306   119.74245770   179.93281219
 O      7   5   4     2.337679683247   117.47392570   358.22380319
 O      7   5   4     2.337900208126   117.44875196   178.17121228
 N      1   2   3     2.734391508818   119.73642379   179.60708258
 O     10   1   2     2.337314223599   116.85191096   279.34772825
 O     10   1   2     2.337983393212   116.54522226   102.91691405
 N      3   2   1     2.775311475550   120.93068948   180.07308688
 O     13   3   2     2.343328906893   117.24597173     0.92746643
 O     13   3   2     2.336628889433   117.93770238   180.92051669
 O      2   1   3     2.583561856173   117.97811243   179.42261558
 H      4   3   2     2.061783268750   120.36394431   179.99485219
 H      6   5   4     2.059143977621   121.55420246   179.98319044

---------------------
BASIS SET INFORMATION
---------------------
There are 4 groups of distinct atoms

 Group   1 Type C   : 7s4p1d contracted to 3s2p1d pattern {511/31/1}
 Group   2 Type N   : 7s4p1d contracted to 3s2p1d pattern {511/31/1}
 Group   3 Type O   : 7s4p1d contracted to 3s2p1d pattern {511/31/1}
 Group   4 Type H   : 4s1p contracted to 2s1p pattern {31/1}

Atom   0C    basis set group =>   1
Atom   1C    basis set group =>   1
Atom   2C    basis set group =>   1
Atom   3C    basis set group =>   1
Atom   4C    basis set group =>   1
Atom   5C    basis set group =>   1
Atom   6N    basis set group =>   2
Atom   7O    basis set group =>   3
Atom   8O    basis set group =>   3
Atom   9N    basis set group =>   2
Atom  10O    basis set group =>   3
Atom  11O    basis set group =>   3
Atom  12N    basis set group =>   2
Atom  13O    basis set group =>   3
Atom  14O    basis set group =>   3
Atom  15O    basis set group =>   3
Atom  16H    basis set group =>   4
Atom  17H    basis set group =>   4
---------------------------------
AUXILIARY/J BASIS SET INFORMATION
---------------------------------
There are 4 groups of distinct atoms

 Group   1 Type C   : 12s5p4d2f1g contracted to 6s4p3d1f1g pattern {711111/2111/211/2/1}
 Group   2 Type N   : 12s5p4d2f1g contracted to 6s4p3d1f1g pattern {711111/2111/211/2/1}
 Group   3 Type O   : 12s5p4d2f1g contracted to 6s4p3d1f1g pattern {711111/2111/211/2/1}
 Group   4 Type H   : 5s2p1d contracted to 3s1p1d pattern {311/2/1}

Atom   0C    basis set group =>   1
Atom   1C    basis set group =>   1
Atom   2C    basis set group =>   1
Atom   3C    basis set group =>   1
Atom   4C    basis set group =>   1
Atom   5C    basis set group =>   1
Atom   6N    basis set group =>   2
Atom   7O    basis set group =>   3
Atom   8O    basis set group =>   3
Atom   9N    basis set group =>   2
Atom  10O    basis set group =>   3
Atom  11O    basis set group =>   3
Atom  12N    basis set group =>   2
Atom  13O    basis set group =>   3
Atom  14O    basis set group =>   3
Atom  15O    basis set group =>   3
Atom  16H    basis set group =>   4
Atom  17H    basis set group =>   4


           ************************************************************
           *        Program running with 64 parallel MPI-processes    *
           *              working on a common directory               *
           ************************************************************
------------------------------------------------------------------------------
                             ORCA STARTUP CALCULATIONS
                           -- RI-GTO INTEGRALS CHOSEN --
------------------------------------------------------------------------------
------------------------------------------------------------------------------
                   ___                                                        
                  /   \      - P O W E R E D   B Y -                         
                 /     \                                                     
                 |  |  |   _    _      __       _____    __    __             
                 |  |  |  | |  | |    /  \     |  _  \  |  |  /  |          
                  \  \/   | |  | |   /    \    | | | |  |  | /  /          
                 / \  \   | |__| |  /  /\  \   | |_| |  |  |/  /          
                |  |  |   |  __  | /  /__\  \  |    /   |      \           
                |  |  |   | |  | | |   __   |  |    \   |  |\   \          
                \     /   | |  | | |  |  |  |  | |\  \  |  | \   \       
                 \___/    |_|  |_| |__|  |__|  |_| \__\ |__|  \__/        
                                                                              
                      - O R C A' S   B I G   F R I E N D -                    
                                      &                                       
                       - I N T E G R A L  F E E D E R -                       
                                                                              
 v1 FN, 2020, v2 2021, v3 2022-2024                                           
------------------------------------------------------------------------------


----------------------
SHARK INTEGRAL PACKAGE
----------------------

Number of atoms                             ...     18
Number of basis functions                   ...    234
Number of shells                            ...    102
Maximum angular momentum                    ...      2
Integral batch strategy                     ... SHARK/LIBINT Hybrid
RI-J (if used) integral strategy            ... SPLIT-RIJ (Revised 2003 algorithm where possible)
Printlevel                                  ...      1
Contraction scheme used                     ... SEGMENTED contraction
Prescreening option                         ... SCHWARTZ
   Thresh                                   ... 2.500e-11
   Tcut                                     ... 2.500e-12
   Tpresel                                  ... 2.500e-12 
Coulomb Range Separation                    ... NOT USED
Exchange Range Separation                   ... NOT USED
Multipole approximations                    ... NOT USED
Finite Nucleus Model                        ... NOT USED
CABS basis                                  ... NOT available
Auxiliary Coulomb fitting basis             ... AVAILABLE
   # of basis functions in Aux-J            ...    806
   # of shells in Aux-J                     ...    250
   Maximum angular momentum in Aux-J        ...      4
Auxiliary J/K fitting basis                 ... NOT available
Auxiliary Correlation fitting basis         ... NOT available
Auxiliary 'external' fitting basis          ... NOT available

Checking pre-screening integrals            ... done (  0.0 sec) Dimension = 102
   => SHARK Basis and OBASIS are compatible. Storing Pre-screening
Shell pair information
Shell pair cut-off parameter TPreSel        ...   2.5e-12
Total number of shell pairs                 ...      5253
Shell pairs after pre-screening             ...      4218
Total number of primitive shell pairs       ...     20717
Primitive shell pairs kept                  ...     11000
          la=0 lb=0:   1076 shell pairs
          la=1 lb=0:   1480 shell pairs
          la=1 lb=1:    532 shell pairs
          la=2 lb=0:    599 shell pairs
          la=2 lb=1:    438 shell pairs
          la=2 lb=2:     93 shell pairs

Checking whether 4 symmetric matrices of dimension 234 fit in memory
:Max Core in MB      =   2109.00
 MB in use           =      8.89
 MB left             =   2100.11
 MB needed           =      0.84
 Data fit in memory  = YES
Calculating RI/J V-Matrix + Cholesky decomp.... done (  0.2 sec)
Calculating Nuclear repulsion               ... done (  0.0 sec) ENN=   1079.090028691488 Eh

Diagonalization of the overlap matrix:
Smallest eigenvalue                        ... 1.829e-04
Time for diagonalization                   ...    0.006 sec
Threshold for overlap eigenvalues          ... 1.000e-07
Number of eigenvalues below threshold      ... 0
Time for construction of square roots      ...    0.008 sec
Total time needed                          ...    0.027 sec

-------------------
DFT GRID GENERATION
-------------------

General Integration Accuracy     IntAcc      ... 4.388
Radial Grid Type                 RadialGrid  ... OptM3 with GC (2021)
Angular Grid (max. ang.)         AngularGrid ... 4 (Lebedev-302)
Angular grid pruning method      GridPruning ... 4 (adaptive)
Weight generation scheme         WeightScheme... mBecke (2022)
Basis function cutoff            BFCut       ... 1.0000e-11
Integration weight cutoff        WCut        ... 1.0000e-14
Partially contracted basis set               ... off
Rotationally invariant grid construction     ... off
Angular grids for H and He will be reduced by one unit

Total number of grid points                  ...   103093
Total number of batches                      ...     1622
Average number of points per batch           ...       63
Average number of grid points per atom       ...     5727

--------------------
COSX GRID GENERATION
--------------------

GRIDX 1
-------
General Integration Accuracy     IntAcc      ... 3.816
Radial Grid Type                 RadialGrid  ... OptM3 with GC (2021)
Angular Grid (max. ang.)         AngularGrid ... 1 (Lebedev-50)
Angular grid pruning method      GridPruning ... 4 (adaptive)
Weight generation scheme         WeightScheme... mBecke (2022)
Basis function cutoff            BFCut       ... 1.0000e-11
Integration weight cutoff        WCut        ... 1.0000e-14
Partially contracted basis set               ... on
Rotationally invariant grid construction     ... off
Angular grids for H and He will be reduced by one unit

Total number of grid points                  ...    13006
Total number of batches                      ...      112
Average number of points per batch           ...      116
Average number of grid points per atom       ...      723
UseSFitting                                  ... on

GRIDX 2
-------
General Integration Accuracy     IntAcc      ... 4.020
Radial Grid Type                 RadialGrid  ... OptM3 with GC (2021)
Angular Grid (max. ang.)         AngularGrid ... 2 (Lebedev-110)
Angular grid pruning method      GridPruning ... 4 (adaptive)
Weight generation scheme         WeightScheme... mBecke (2022)
Basis function cutoff            BFCut       ... 1.0000e-11
Integration weight cutoff        WCut        ... 1.0000e-14
Partially contracted basis set               ... on
Rotationally invariant grid construction     ... off
Angular grids for H and He will be reduced by one unit

Total number of grid points                  ...    30369
Total number of batches                      ...      245
Average number of points per batch           ...      123
Average number of grid points per atom       ...     1687
UseSFitting                                  ... on

GRIDX 3
-------
General Integration Accuracy     IntAcc      ... 4.338
Radial Grid Type                 RadialGrid  ... OptM3 with GC (2021)
Angular Grid (max. ang.)         AngularGrid ... 3 (Lebedev-194)
Angular grid pruning method      GridPruning ... 4 (adaptive)
Weight generation scheme         WeightScheme... mBecke (2022)
Basis function cutoff            BFCut       ... 1.0000e-11
Integration weight cutoff        WCut        ... 1.0000e-14
Partially contracted basis set               ... on
Rotationally invariant grid construction     ... off
Angular grids for H and He will be reduced by one unit

Total number of grid points                  ...    67304
Total number of batches                      ...      535
Average number of points per batch           ...      125
Average number of grid points per atom       ...     3739
UseSFitting                                  ... on
Grids setup in   1.2 sec
Initializing property integral containers    ... done (  0.1 sec)

SHARK setup successfully completed in   1.8 seconds

Maximum memory used throughout the entire STARTUP-calculation: 25.2 MB


           ************************************************************
           *        Program running with 64 parallel MPI-processes    *
           *              working on a common directory               *
           ************************************************************
-------------------------------------------------------------------------------
                                 ORCA GUESS
                   Start orbitals & Density for SCF / CASSCF
-------------------------------------------------------------------------------

------------
SCF SETTINGS
------------
Hamiltonian:
 Density Functional     Method          .... DFT(GTOs)
 Exchange Functional    Exchange        .... M062X
 Correlation Functional Correlation     .... M062X
 Gradients option       PostSCFGGA      .... off
 Hybrid DFT is turned on
   Fraction HF Exchange ScalHFX         ....  0.540000
   Scaling of DF-GGA-X  ScalDFX         ....  0.460000
   Scaling of DF-GGA-C  ScalDFC         ....  1.000000
   Scaling of DF-LDA-C  ScalLDAC        ....  1.000000
   Perturbative correction              ....  0.000000
 RI-approximation to the Coulomb term is turned on
   Number of AuxJ basis functions       .... 806
   RIJ-COSX (HFX calculated with COS-X)).... on


General Settings:
 Integral files         IntName         .... /lustre/project/xlzhang/jingyi/chemsmart/test_pka/orca/pka_scale_frag1_pka_A_opt
 Hartree-Fock type      HFTyp           .... RHF
 Total Charge           Charge          ....   -1
 Multiplicity           Mult            ....    1
 Number of Electrons    NEL             ....  116
 Basis Dimension        Dim             ....  234
 Nuclear Repulsion      ENuc            ....   1079.0900286915 Eh

Convergence Acceleration:
 AO-DIIS                CNVDIIS         .... on
   Start iteration      DIISMaxIt       ....    12
   Startup error        DIISStart       ....  0.200000
   # of expansion vecs  DIISMaxEq       ....     5
   Bias factor          DIISBfac        ....   1.050
   Max. coefficient     DIISMaxC        ....  10.000
 MO-DIIS                CNVKDIIS        .... off
 Trust-Rad. Augm. Hess. CNVTRAH         .... auto
   Auto Start mean grad. ratio tolernc. ....  1.125000
   Auto Start start iteration           ....    50
   Auto Start num. interpolation iter.  ....    10
   Max. Number of Micro iterations      ....    24
   Max. Number of Macro iterations      .... Maxiter - #DIIS iter
   Number of Davidson start vectors     ....     2
   Converg. threshold    (grad. norm)   ....   1.000e-05
   Grad. Scal. Fac. for Micro threshold ....   0.100
   Minimum threshold for Micro iter.    ....   1.000e-02
   NR start threshold (gradient norm)   ....   1.000e-04
   Initial trust radius                 ....   0.400
   Minimum AH scaling param. (alpha)    ....   1.000
   Maximum AH scaling param. (alpha)    .... 1000.000
   Quad. conv. algorithm                .... NR
   White noise on init. David. guess    .... on
   Maximum white noise                  ....   0.010
   Pseudo random numbers                .... off
   Inactive MOs                         .... canonical
   Orbital update algorithm             .... Taylor
   Preconditioner                       .... Diag
   Full preconditioner red. dimension   ....   250
 SOSCF                 CNVSOSCF           .... on
   Start iteration     SOSCFMaxIt         ....   150
   Startup grad/error  SOSCFStart         ....  0.003300
   Hessian update      SOSCFHessUp        .... L-BFGS
   Autom. constraints  SOSCFAutoConstrain .... off
 Level Shifting         CNVShift        .... on
   Level shift para.    LevelShift      ....    0.2500
   Turn off err/grad.   ShiftErr        ....    0.0010
 Zerner damping         CNVZerner       .... off
 Static damping         CNVDamp         .... on
   Fraction old density DampFac         ....    0.7000
   Max. Damping (<1)    DampMax         ....    0.9800
   Min. Damping (>=0)   DampMin         ....    0.0000
   Turn off err/grad.   DampErr         ....    0.1000

SCF Procedure:
 Maximum # iterations   MaxIter         ....   125
 SCF integral mode      SCFMode         .... Direct
   Integral package                     .... SHARK and LIBINT hybrid scheme
 Reset frequency        DirectResetFreq ....    20
 Integral Threshold     Thresh          ....  2.500e-11 Eh
 Primitive CutOff       TCut            ....  2.500e-12 Eh

Convergence Tolerance:
 Convergence Check Mode ConvCheckMode   .... Total+1el-Energy
 Convergence forced     ConvForced      .... 0
 Energy Change          TolE            ....  1.000e-08 Eh
 1-El. energy change                    ....  1.000e-05 Eh
 Orbital Gradient       TolG            ....  1.000e-05
 Orbital Rotation angle TolX            ....  1.000e-05
 DIIS Error             TolErr          ....  5.000e-07

------------------------------
INITIAL GUESS: MODEL POTENTIAL
------------------------------
Loading Hartree-Fock densities                     ... done
Calculating cut-offs                               ... done
Initializing the effective Hamiltonian             ... done
Setting up the integral package (SHARK)            ... done
Starting the Coulomb interaction                   ... done (   0.1 sec)
Making the grid                                    ... done (   0.2 sec)
Mapping shells                                     ... done
Starting the XC term evaluation                    ... done (   0.0 sec)
  promolecular density results
     # of electrons  =    115.000195225
     EX              =   -107.850399597
     EC              =     -3.950846991
     EX+EC           =   -111.801246588
Transforming the Hamiltonian                       ... done (   0.0 sec)
Diagonalizing the Hamiltonian                      ... done (   0.0 sec)
Back transforming the eigenvectors                 ... done (   0.0 sec)
Now organizing SCF variables                       ... done
                      ------------------
                      INITIAL GUESS DONE (   0.5 sec)
                      ------------------
             **** ENERGY FILE WAS UPDATED (/lustre/project/xlzhang/jingyi/chemsmart/test_pka/orca/pka_scale_frag1_pka_A_opt.en.tmp) ****
Finished Guess after   2.3 sec
Maximum memory used throughout the entire GUESS-calculation: 11.7 MB


           ************************************************************
           *        Program running with 64 parallel MPI-processes    *
           *              working on a common directory               *
           ************************************************************

-------------------------------------------------------------------------------------------
                                      ORCA LEAN-SCF
                              memory conserving SCF solver
-------------------------------------------------------------------------------------------

----------------------------------------D-I-I-S--------------------------------------------
Iteration    Energy (Eh)           Delta-E    RMSDP     MaxDP     DIISErr   Damp  Time(sec)
-------------------------------------------------------------------------------------------
               ***  Starting incremental Fock matrix formation  ***
    1    -918.8265011277546819     0.00e+00  4.67e-02  1.96e-01  3.08e-01  0.700   0.7
    2    -919.0817477936807336    -2.55e-01  2.80e-02  1.15e-01  1.27e-01  0.700   0.5
                               ***Turning on AO-DIIS***
    3    -919.1725959921279809    -9.08e-02  8.95e-03  1.89e-02  4.09e-02  0.700   0.5
    4    -919.2317026183127382    -5.91e-02  1.83e-02  4.39e-02  2.19e-02  0.000   0.5
    5    -919.3668093210360439    -1.35e-01  3.56e-03  1.38e-02  5.94e-03  0.000   0.5
                              *** Initializing SOSCF ***
---------------------------------------S-O-S-C-F--------------------------------------
Iteration    Energy (Eh)           Delta-E    RMSDP     MaxDP     MaxGrad    Time(sec)
--------------------------------------------------------------------------------------
    6    -919.3673101401850545    -5.01e-04  1.76e-03  8.12e-03  1.38e-03     0.5
               *** Restarting incremental Fock matrix formation ***
    7    -919.3673217817422483    -1.16e-05  8.60e-04  2.03e-03  1.40e-03     0.8
    8    -919.3673438499968142    -2.21e-05  9.54e-04  3.98e-03  5.23e-04     0.5
    9    -919.3673543159754900    -1.05e-05  3.32e-04  1.06e-03  2.43e-04     0.6
   10    -919.3673570942735296    -2.78e-06  1.42e-04  4.12e-04  8.05e-05     0.5
   11    -919.3673570562370969     3.80e-08  1.02e-04  3.92e-04  7.73e-05     0.5
   12    -919.3673574483150333    -3.92e-07  3.29e-05  1.10e-04  2.38e-05     0.5
   13    -919.3673574363308489     1.20e-08  1.93e-05  5.51e-05  2.06e-05     0.5
   14    -919.3673574695246771    -3.32e-08  8.09e-06  2.45e-05  3.77e-06     0.5
   15    -919.3673574702845599    -7.60e-10  4.92e-06  1.64e-05  4.96e-06     0.5
                 **** Energy Check signals convergence ****

               *****************************************************
               *                     SUCCESS                       *
               *           SCF CONVERGED AFTER  15 CYCLES          *
               *****************************************************

Recomputing exchange energy using gridx3       ... done (    0.282 sec)
Old exchange energy                            :    -58.773144723 Eh
New exchange energy                            :    -58.773320893 Eh
Exchange energy change after final integration :     -0.000176170 Eh
Total energy after final integration           :   -919.367533639 Eh
             **** ENERGY FILE WAS UPDATED (/lustre/project/xlzhang/jingyi/chemsmart/test_pka/orca/pka_scale_frag1_pka_A_opt.en.tmp) ****

----------------
TOTAL SCF ENERGY
----------------

Total Energy       :       -919.36753363883145 Eh          -25017.26244 eV

Components:
Nuclear Repulsion  :       1079.09002869148799 Eh           29363.53249 eV
Electronic Energy  :      -1998.45738616020776 Eh          -54380.79014 eV
One Electron Energy:      -3416.77054419110118 Eh          -92975.05327 eV
Two Electron Energy:       1418.31315803089342 Eh           38594.26312 eV

Virial components:
Potential Energy   :      -1831.58580026024174 Eh          -49839.98344 eV
Kinetic Energy     :        912.21826662141018 Eh           24822.72100 eV
Virial Ratio       :          2.00783723290688

DFT components:
N(Alpha)           :       58.000001229482 electrons
N(Beta)            :       58.000001229482 electrons
N(Total)           :      116.000002458964 electrons
E(XC)              :      -54.839659413905 Eh       

---------------
SCF CONVERGENCE
---------------

  Last Energy change         ...    7.5988e-10  Tolerance :   1.0000e-08
  Last MAX-Density change    ...    1.6377e-05  Tolerance :   1.0000e-07
  Last RMS-Density change    ...    4.9164e-06  Tolerance :   5.0000e-09
  Last DIIS Error            ...    1.3757e-03  Tolerance :   5.0000e-07
  Last Orbital Gradient      ...    4.9605e-06  Tolerance :   1.0000e-05
  Last Orbital Rotation      ...    6.5275e-06  Tolerance :   1.0000e-05


----------------
ORBITAL ENERGIES
----------------

  NO   OCC          E(Eh)            E(eV) 
   0   2.0000     -19.560249      -532.2614 
   1   2.0000     -19.559803      -532.2493 
   2   2.0000     -19.559279      -532.2350 
   3   2.0000     -19.558514      -532.2142 
   4   2.0000     -19.537219      -531.6347 
   5   2.0000     -19.536386      -531.6121 
   6   2.0000     -19.449939      -529.2597 
   7   2.0000     -14.900634      -405.4669 
   8   2.0000     -14.894803      -405.3082 
   9   2.0000     -14.880906      -404.9300 
  10   2.0000     -10.513320      -286.0820 
  11   2.0000     -10.506410      -285.8939 
  12   2.0000     -10.500465      -285.7322 
  13   2.0000     -10.497469      -285.6507 
  14   2.0000     -10.494478      -285.5693 
  15   2.0000     -10.493125      -285.5324 
  16   2.0000      -1.231879       -33.5211 
  17   2.0000      -1.228388       -33.4261 
  18   2.0000      -1.210115       -32.9289 
  19   2.0000      -1.050248       -28.5787 
  20   2.0000      -1.047750       -28.5107 
  21   2.0000      -1.027176       -27.9509 
  22   2.0000      -0.933962       -25.4144 
  23   2.0000      -0.872019       -23.7288 
  24   2.0000      -0.810800       -22.0630 
  25   2.0000      -0.793791       -21.6001 
  26   2.0000      -0.701750       -19.0956 
  27   2.0000      -0.680728       -18.5235 
  28   2.0000      -0.652356       -17.7515 
  29   2.0000      -0.558916       -15.2089 
  30   2.0000      -0.557854       -15.1800 
  31   2.0000      -0.537808       -14.6345 
  32   2.0000      -0.517084       -14.0706 
  33   2.0000      -0.513887       -13.9836 
  34   2.0000      -0.497597       -13.5403 
  35   2.0000      -0.494035       -13.4434 
  36   2.0000      -0.493411       -13.4264 
  37   2.0000      -0.487074       -13.2540 
  38   2.0000      -0.478001       -13.0071 
  39   2.0000      -0.466774       -12.7016 
  40   2.0000      -0.429653       -11.6915 
  41   2.0000      -0.427306       -11.6276 
  42   2.0000      -0.369446       -10.0531 
  43   2.0000      -0.366895        -9.9837 
  44   2.0000      -0.318710        -8.6725 
  45   2.0000      -0.289390        -7.8747 
  46   2.0000      -0.286031        -7.7833 
  47   2.0000      -0.277957        -7.5636 
  48   2.0000      -0.275090        -7.4856 
  49   2.0000      -0.273302        -7.4369 
  50   2.0000      -0.271892        -7.3985 
  51   2.0000      -0.265307        -7.2194 
  52   2.0000      -0.262121        -7.1327 
  53   2.0000      -0.252254        -6.8642 
  54   2.0000      -0.245972        -6.6933 
  55   2.0000      -0.226488        -6.1630 
  56   2.0000      -0.171904        -4.6778 
  57   2.0000      -0.144769        -3.9394 
  58   0.0000       0.057018         1.5515 
  59   0.0000       0.066998         1.8231 
  60   0.0000       0.084632         2.3029 
  61   0.0000       0.143641         3.9087 
  62   0.0000       0.176899         4.8137 
  63   0.0000       0.219951         5.9852 
  64   0.0000       0.261297         7.1102 
  65   0.0000       0.281883         7.6704 
  66   0.0000       0.317124         8.6294 
  67   0.0000       0.318235         8.6596 
  68   0.0000       0.348656         9.4874 
*Only the first 10 virtual orbitals were printed.

                    ********************************
                    * MULLIKEN POPULATION ANALYSIS *
                    ********************************

-----------------------
MULLIKEN ATOMIC CHARGES
-----------------------
   0 C :   -0.039055
   1 C :    0.210358
   2 C :    0.036534
   3 C :   -0.011189
   4 C :    0.088397
   5 C :    0.046051
   6 N :    0.232634
   7 O :   -0.297010
   8 O :   -0.301032
   9 N :    0.261971
  10 O :   -0.265323
  11 O :   -0.279785
  12 N :    0.220686
  13 O :   -0.231516
  14 O :   -0.318073
  15 O :   -0.411492
  16 H :    0.036031
  17 H :    0.021812
Sum of atomic charges:   -1.0000000

--------------------------------
MULLIKEN REDUCED ORBITAL CHARGES
--------------------------------
  0 C s       :     3.040679  s :     3.040679
      pz      :     1.112311  p :     2.955965
      px      :     0.833224
      py      :     1.010430
      dz2     :     0.005140  d :     0.042411
      dxz     :     0.005241
      dyz     :     0.006004
      dx2y2   :     0.015839
      dxy     :     0.010187

  1 C s       :     3.052716  s :     3.052716
      pz      :     0.896440  p :     2.659447
      px      :     0.903111
      py      :     0.859896
      dz2     :     0.006282  d :     0.077480
      dxz     :     0.012696
      dyz     :     0.012909
      dx2y2   :     0.030682
      dxy     :     0.014911

  2 C s       :     3.047131  s :     3.047131
      pz      :     1.134689  p :     2.875767
      px      :     0.900650
      py      :     0.840427
      dz2     :     0.004120  d :     0.040569
      dxz     :     0.005941
      dyz     :     0.006142
      dx2y2   :     0.012330
      dxy     :     0.012035

  3 C s       :     3.365958  s :     3.365958
      pz      :     0.891514  p :     2.613100
      px      :     0.763532
      py      :     0.958054
      dz2     :     0.004031  d :     0.032131
      dxz     :     0.003540
      dyz     :     0.007737
      dx2y2   :     0.008484
      dxy     :     0.008339

  4 C s       :     2.994713  s :     2.994713
      pz      :     1.149364  p :     2.874030
      px      :     0.847710
      py      :     0.876955
      dz2     :     0.004982  d :     0.042860
      dxz     :     0.006878
      dyz     :     0.005092
      dx2y2   :     0.009719
      dxy     :     0.016190

  5 C s       :     3.301011  s :     3.301011
      pz      :     0.918988  p :     2.620159
      px      :     0.920865
      py      :     0.780305
      dz2     :     0.002746  d :     0.032779
      dxz     :     0.008543
      dyz     :     0.004008
      dx2y2   :     0.009096
      dxy     :     0.008386

  6 N s       :     3.322374  s :     3.322374
      pz      :     1.135153  p :     3.332195
      px      :     1.083712
      py      :     1.113331
      dz2     :     0.010799  d :     0.112797
      dxz     :     0.022051
      dyz     :     0.013795
      dx2y2   :     0.028876
      dxy     :     0.037276

  7 O s       :     3.866111  s :     3.866111
      pz      :     1.487407  p :     4.408703
      px      :     1.132556
      py      :     1.788739
      dz2     :     0.002820  d :     0.022197
      dxz     :     0.006681
      dyz     :     0.000274
      dx2y2   :     0.007683
      dxy     :     0.004738

  8 O s       :     3.864882  s :     3.864882
      pz      :     1.419522  p :     4.414008
      px      :     1.729993
      py      :     1.264493
      dz2     :     0.003262  d :     0.022142
      dxz     :     0.001676
      dyz     :     0.006308
      dx2y2   :     0.005088
      dxy     :     0.005809

  9 N s       :     3.347732  s :     3.347732
      pz      :     1.026795  p :     3.277219
      px      :     1.136190
      py      :     1.114235
      dz2     :     0.034121  d :     0.113077
      dxz     :     0.027439
      dyz     :     0.022022
      dx2y2   :     0.018025
      dxy     :     0.011471

 10 O s       :     3.875427  s :     3.875427
      pz      :     1.196996  p :     4.367379
      px      :     1.743180
      py      :     1.427204
      dz2     :     0.008081  d :     0.022517
      dxz     :     0.005117
      dyz     :     0.006074
      dx2y2   :     0.001357
      dxy     :     0.001887

 11 O s       :     3.875822  s :     3.875822
      pz      :     1.400224  p :     4.381559
      px      :     1.652614
      py      :     1.328721
      dz2     :     0.004425  d :     0.022404
      dxz     :     0.005605
      dyz     :     0.005630
      dx2y2   :     0.003164
      dxy     :     0.003581

 12 N s       :     3.322022  s :     3.322022
      pz      :     1.154447  p :     3.344596
      px      :     1.061299
      py      :     1.128850
      dz2     :     0.006686  d :     0.112696
      dxz     :     0.025713
      dyz     :     0.011115
      dx2y2   :     0.034655
      dxy     :     0.034526

 13 O s       :     3.869246  s :     3.869246
      pz      :     1.436762  p :     4.339592
      px      :     1.528128
      py      :     1.374702
      dz2     :     0.002856  d :     0.022677
      dxz     :     0.003235
      dyz     :     0.003770
      dx2y2   :     0.004425
      dxy     :     0.008391

 14 O s       :     3.862614  s :     3.862614
      pz      :     1.514420  p :     4.433489
      px      :     1.107412
      py      :     1.811656
      dz2     :     0.002795  d :     0.021971
      dxz     :     0.006470
      dyz     :     0.000194
      dx2y2   :     0.008304
      dxy     :     0.004209

 15 O s       :     3.809798  s :     3.809798
      pz      :     1.501556  p :     4.588918
      px      :     1.566828
      py      :     1.520533
      dz2     :     0.001665  d :     0.012777
      dxz     :     0.001804
      dyz     :     0.001984
      dx2y2   :     0.002336
      dxy     :     0.004988

 16 H s       :     0.941068  s :     0.941068
      pz      :     0.003329  p :     0.022901
      px      :     0.016698
      py      :     0.002874

 17 H s       :     0.955546  s :     0.955546
      pz      :     0.004863  p :     0.022642
      px      :     0.004144
      py      :     0.013635



                     *******************************
                     * LOEWDIN POPULATION ANALYSIS *
                     *******************************

----------------------
LOEWDIN ATOMIC CHARGES
----------------------
   0 C :   -0.057785
   1 C :    0.049355
   2 C :   -0.085290
   3 C :    0.023269
   4 C :   -0.095936
   5 C :    0.004216
   6 N :    0.299020
   7 O :   -0.260849
   8 O :   -0.264929
   9 N :    0.316764
  10 O :   -0.220122
  11 O :   -0.232384
  12 N :    0.298124
  13 O :   -0.211220
  14 O :   -0.282161
  15 O :   -0.376613
  16 H :    0.050096
  17 H :    0.046447

-------------------------------
LOEWDIN REDUCED ORBITAL CHARGES
-------------------------------
  0 C s       :     2.858641  s :     2.858641
      pz      :     1.082197  p :     3.081941
      px      :     0.906027
      py      :     1.093717
      dz2     :     0.011813  d :     0.117202
      dxz     :     0.013544
      dyz     :     0.013947
      dx2y2   :     0.045921
      dxy     :     0.031978

  1 C s       :     2.850373  s :     2.850373
      pz      :     0.903121  p :     2.913870
      px      :     1.021637
      py      :     0.989113
      dz2     :     0.014312  d :     0.186402
      dxz     :     0.026301
      dyz     :     0.027148
      dx2y2   :     0.075333
      dxy     :     0.043309

  2 C s       :     2.860507  s :     2.860507
      pz      :     1.100695  p :     3.112389
      px      :     1.069067
      py      :     0.942626
      dz2     :     0.009492  d :     0.112394
      dxz     :     0.014119
      dyz     :     0.014460
      dx2y2   :     0.036993
      dxy     :     0.037330

  3 C s       :     2.871454  s :     2.871454
      pz      :     0.914188  p :     3.017930
      px      :     1.067253
      py      :     1.036489
      dz2     :     0.009240  d :     0.087347
      dxz     :     0.007509
      dyz     :     0.018519
      dx2y2   :     0.026805
      dxy     :     0.025274

  4 C s       :     2.849367  s :     2.849367
      pz      :     1.140486  p :     3.129683
      px      :     1.007166
      py      :     0.982031
      dz2     :     0.011074  d :     0.116886
      dxz     :     0.015999
      dyz     :     0.012036
      dx2y2   :     0.031277
      dxy     :     0.046501

  5 C s       :     2.863613  s :     2.863613
      pz      :     0.951101  p :     3.042022
      px      :     1.048737
      py      :     1.042184
      dz2     :     0.006407  d :     0.090149
      dxz     :     0.019906
      dyz     :     0.008683
      dx2y2   :     0.028096
      dxy     :     0.027058

  6 N s       :     3.063077  s :     3.063077
      pz      :     1.104445  p :     3.405758
      px      :     1.146534
      py      :     1.154780
      dz2     :     0.020131  d :     0.232145
      dxz     :     0.041077
      dyz     :     0.026575
      dx2y2   :     0.063927
      dxy     :     0.080435

  7 O s       :     3.628870  s :     3.628870
      pz      :     1.500346  p :     4.590826
      px      :     1.301533
      py      :     1.788947
      dz2     :     0.005864  d :     0.041153
      dxz     :     0.009956
      dyz     :     0.000490
      dx2y2   :     0.017266
      dxy     :     0.007578

  8 O s       :     3.628781  s :     3.628781
      pz      :     1.449767  p :     4.595078
      px      :     1.750271
      py      :     1.395040
      dz2     :     0.005280  d :     0.041070
      dxz     :     0.002964
      dyz     :     0.011376
      dx2y2   :     0.010273
      dxy     :     0.011177

  9 N s       :     3.058691  s :     3.058691
      pz      :     1.117457  p :     3.390888
      px      :     1.176297
      py      :     1.097134
      dz2     :     0.068853  d :     0.233657
      dxz     :     0.058391
      dyz     :     0.047957
      dx2y2   :     0.034683
      dxy     :     0.023773

 10 O s       :     3.634607  s :     3.634607
      pz      :     1.326754  p :     4.544123
      px      :     1.760804
      py      :     1.456565
      dz2     :     0.014625  d :     0.041392
      dxz     :     0.010718
      dyz     :     0.011051
      dx2y2   :     0.002027
      dxy     :     0.002973

 11 O s       :     3.634532  s :     3.634532
      pz      :     1.482974  p :     4.556585
      px      :     1.690892
      py      :     1.382719
      dz2     :     0.006775  d :     0.041268
      dxz     :     0.011392
      dyz     :     0.011567
      dx2y2   :     0.004313
      dxy     :     0.007220

 12 N s       :     3.061467  s :     3.061467
      pz      :     1.116402  p :     3.408110
      px      :     1.128991
      py      :     1.162717
      dz2     :     0.014921  d :     0.232300
      dxz     :     0.045264
      dyz     :     0.019807
      dx2y2   :     0.076572
      dxy     :     0.075736

 13 O s       :     3.637271  s :     3.637271
      pz      :     1.451485  p :     4.532371
      px      :     1.596885
      py      :     1.484000
      dz2     :     0.006076  d :     0.041579
      dxz     :     0.004635
      dyz     :     0.005509
      dx2y2   :     0.006854
      dxy     :     0.018505

 14 O s       :     3.627276  s :     3.627276
      pz      :     1.524213  p :     4.613871
      px      :     1.281200
      py      :     1.808459
      dz2     :     0.005974  d :     0.041014
      dxz     :     0.009541
      dyz     :     0.000257
      dx2y2   :     0.018464
      dxy     :     0.006778

 15 O s       :     3.648946  s :     3.648946
      pz      :     1.522254  p :     4.707270
      px      :     1.613742
      py      :     1.571273
      dz2     :     0.002994  d :     0.020397
      dxz     :     0.002380
      dyz     :     0.002648
      dx2y2   :     0.003242
      dxy     :     0.009133

 16 H s       :     0.875647  s :     0.875647
      pz      :     0.012410  p :     0.074258
      px      :     0.048764
      py      :     0.013084

 17 H s       :     0.882341  s :     0.882341
      pz      :     0.016411  p :     0.071212
      px      :     0.015289
      py      :     0.039512



                      *****************************
                      * MAYER POPULATION ANALYSIS *
                      *****************************

  NA   - Mulliken gross atomic population
  ZA   - Total nuclear charge
  QA   - Mulliken gross atomic charge
  VA   - Mayer's total valence
  BVA  - Mayer's bonded valence
  FA   - Mayer's free valence

  ATOM       NA         ZA         QA         VA         BVA        FA
  0 C      6.0391     6.0000    -0.0391     3.7174     3.7174     0.0000
  1 C      5.7896     6.0000     0.2104     4.2227     4.2227     0.0000
  2 C      5.9635     6.0000     0.0365     3.5693     3.5693     0.0000
  3 C      6.0112     6.0000    -0.0112     3.8065     3.8065     0.0000
  4 C      5.9116     6.0000     0.0884     3.6617     3.6617    -0.0000
  5 C      5.9539     6.0000     0.0461     3.8574     3.8574    -0.0000
  6 N      6.7674     7.0000     0.2326     3.9470     3.9470     0.0000
  7 O      8.2970     8.0000    -0.2970     1.8799     1.8799     0.0000
  8 O      8.3010     8.0000    -0.3010     1.8770     1.8770     0.0000
  9 N      6.7380     7.0000     0.2620     3.9018     3.9018    -0.0000
 10 O      8.2653     8.0000    -0.2653     1.8942     1.8942     0.0000
 11 O      8.2798     8.0000    -0.2798     1.8777     1.8777    -0.0000
 12 N      6.7793     7.0000     0.2207     3.9707     3.9707    -0.0000
 13 O      8.2315     8.0000    -0.2315     1.9224     1.9224    -0.0000
 14 O      8.3181     8.0000    -0.3181     1.8566     1.8566     0.0000
 15 O      8.4115     8.0000    -0.4115     2.0984     2.0984     0.0000
 16 H      0.9640     1.0000     0.0360     1.0452     1.0452     0.0000
 17 H      0.9782     1.0000     0.0218     1.0176     1.0176     0.0000

  Mayer bond orders larger than 0.100000
B(  0-C ,  1-C ) :   1.1641 B(  0-C ,  5-C ) :   1.5029 B(  0-C ,  9-N ) :   0.7947 
B(  1-C ,  2-C ) :   1.0819 B(  1-C , 15-O ) :   1.9601 B(  2-C ,  3-C ) :   1.3907 
B(  2-C , 12-N ) :   0.8747 B(  3-C ,  4-C ) :   1.3054 B(  3-C , 16-H ) :   0.9911 
B(  4-C ,  5-C ) :   1.2475 B(  4-C ,  6-N ) :   0.8789 B(  5-C , 17-H ) :   0.9915 
B(  6-N ,  7-O ) :   1.5118 B(  6-N ,  8-O ) :   1.5090 B(  7-O ,  8-O ) :   0.2324 
B(  9-N , 10-O ) :   1.5405 B(  9-N , 11-O ) :   1.5243 B( 10-O , 11-O ) :   0.2899 
B( 12-N , 13-O ) :   1.5683 B( 12-N , 14-O ) :   1.4822 B( 13-O , 14-O ) :   0.2501 


-------
TIMINGS
-------

Total SCF time: 0 days 0 hours 0 min 11 sec 

Total time                  ....      11.252 sec
Sum of individual times     ....      10.324 sec  ( 91.7%)

SCF preparation             ....       1.976 sec  ( 17.6%)
Fock matrix formation       ....       7.441 sec  ( 66.1%)
  Startup                   ....       0.141 sec  (  1.9% of F)
  Split-RI-J                ....       0.908 sec  ( 12.2% of F)
  Chain of spheres X        ....       2.302 sec  ( 30.9% of F)
  XC integration            ....       3.207 sec  ( 43.1% of F)
    XC Preparation          ....       0.000 sec  (  0.0% of XC)
    Basis function eval.    ....       0.062 sec  (  1.9% of XC)
    Density eval.           ....       0.122 sec  (  3.8% of XC)
    XC-Functional eval.     ....       0.021 sec  (  0.7% of XC)
    XC-Potential eval.      ....       0.125 sec  (  3.9% of XC)
Diagonalization             ....       0.000 sec  (  0.0%)
Density matrix formation    ....       0.160 sec  (  1.4%)
Total Energy calculation    ....       0.069 sec  (  0.6%)
Population analysis         ....       0.122 sec  (  1.1%)
Orbital Transformation      ....       0.055 sec  (  0.5%)
Orbital Orthonormalization  ....       0.000 sec  (  0.0%)
DIIS solution               ....       0.224 sec  (  2.0%)
SOSCF solution              ....       0.276 sec  (  2.5%)
Finished LeanSCF after  11.4 sec

Maximum memory used throughout the entire LEANSCF-calculation: 18.4 MB


           ************************************************************
           *        Program running with 64 parallel MPI-processes    *
           *              working on a common directory               *
           ************************************************************

------------------------------------------------------------------------------
                         ORCA PROPERTY INTEGRAL CALCULATIONS
------------------------------------------------------------------------------

GBWName                                   ... /lustre/project/xlzhang/jingyi/chemsmart/test_pka/orca/pka_scale_frag1_pka_A_opt.gbw
Number of atoms                           ...     18
Number of basis functions                 ...    234
Max core memory                           ...   2109 MB

Dipole integrals                          ... YES
Quadrupole integrals                      ...  NO
Linear momentum integrals                 ...  NO
Angular momentum integrals                ...  NO
Higher moments length integrals           ...  NO
Higher moments velocity integrals         ...  NO
Kinetic energy integrals                  ...  NO
GIAO right hand sides                     ...  NO
GIAO dipole derivative integrals          ...  NO
SOC integrals                             ...  NO
EPR diamagnetic integrals (GIAO)          ...  NO
EPR gauge integrals                       ...  NO
Field gradient integrals                  ...  NO (   0 nuclei)
Spin-dipole/Fermi contact integrals       ...  NO (   0 nuclei)
Contact density integrals                 ...  NO (   0 nuclei)
Nucleus-orbit integrals                   ...  NO (   0 nuclei)
Geometric perturbations                   ...  NO (  18 nuclei)

Choice of electric origin   ... Center of mass
Position of electric origin ... (  0.0534,  0.0525,  0.0244) 
Choice of magnetic origin   ... GIAO
Position of magnetic origin ... (  0.0000,  0.0000,  0.0000) 

Calculating integrals                     ... Electric Dipole (Length)     done (  0.0 sec)

Property integrals calculated in   0.1 sec

Maximum memory used throughout the entire PROPINT-calculation: 12.1 MB

-------------------------   --------------------
FINAL SINGLE POINT ENERGY      -919.367533638831
-------------------------   --------------------



           ************************************************************
           *        Program running with 64 parallel MPI-processes    *
           *              working on a common directory               *
           ************************************************************
------------------------------------------------------------------------------
                         ORCA SCF GRADIENT CALCULATION
------------------------------------------------------------------------------

Nuc. rep. gradient        (SHARK) ... done (  0.0 sec)
HCore & Overlap gradient  (SHARK) ... done (  0.0 sec)
Split-RIJ-J gradient      (SHARK) ... done (  0.1 sec)
done (  0.9 sec)
XC gradient                       ... done (  0.2 sec)

------------------
CARTESIAN GRADIENT
------------------

   1   C   :    0.035134818   -0.054103662   -0.014672174
   2   C   :   -0.120940537    0.129963907    0.029911323
   3   C   :    0.044938353   -0.017024624   -0.000523511
   4   C   :   -0.008382537    0.008295800    0.002247038
   5   C   :    0.017985605    0.001157952    0.001854253
   6   C   :   -0.029321649    0.017553150    0.004181584
   7   N   :    0.005591504   -0.003330289   -0.000669037
   8   O   :   -0.034396213   -0.010806468   -0.009119180
   9   O   :    0.018148505    0.028539098    0.013165153
  10   N   :   -0.036295652   -0.004418988   -0.011102012
  11   O   :    0.011382318   -0.017798548    0.045101220
  12   O   :    0.016628414    0.024644734   -0.034532469
  13   N   :   -0.014639770    0.024797896    0.006251172
  14   O   :    0.044992358   -0.032702396   -0.005129475
  15   O   :   -0.028333765   -0.001007183   -0.004148887
  16   O   :    0.077064758   -0.093237140   -0.023111312
  17   H   :   -0.002061770    0.000631056    0.000043052
  18   H   :    0.002505261   -0.001154295    0.000253261

Difference to translation invariance:
           :    0.0000000001   -0.0000000003   -0.0000000001

Difference to rotation invariance:
           :    0.0006293585   -0.0007182093    0.0004960403

Norm of the Cartesian gradient     ...    0.2636364943
RMS gradient                       ...    0.0358763827
MAX gradient                       ...    0.1299639071

-------
TIMINGS
-------

Total SCF gradient time     ....        1.185 sec

Densities                   ....       0.003 sec  (  0.3%)
One electron gradient       ....       0.022 sec  (  1.8%)
RI-J Coulomb gradient       ....       0.119 sec  ( 10.1%)
COSX gradient               ....       0.857 sec  ( 72.3%)
XC gradient                 ....       0.183 sec  ( 15.4%)

Maximum memory used throughout the entire SCFGRAD-calculation: 23.2 MB
------------------------------------------------------------------------------
                         ORCA GEOMETRY RELAXATION STEP
------------------------------------------------------------------------------

Reading the OPT-File                    .... done
Getting information on internals        .... done
Copying old internal coords+grads       .... done
Making the new internal coordinates     .... (2022 redundants) done
Validating the new internal coordinates .... (2022 redundants) done
Calculating the B-matrix                .... done
Calculating the G,G- and P matrices     .... done
Transforming gradient to internals      .... done
Projecting the internal gradient        .... done
Number of atoms                         ....  18
Number of internal coordinates          ....  81
Current Energy                          ....  -919.367533639 Eh
Current gradient norm                   ....     0.263636494 Eh/bohr
Maximum allowed component of the step   ....  0.300
Current trust radius                    ....  0.300
Evaluating the initial hessian          ....  (Almloef) done
Projecting the Hessian                  .... done
Forming the augmented Hessian           .... done
Diagonalizing the augmented Hessian     .... done
Last element of RFO vector              ....  0.963747354
Lowest eigenvalues of augmented Hessian:
 -0.048579795  0.013682743  0.013685247  0.013850495  0.013853202
Length of the computed step             ....  0.276853148
The final length of the internal step   ....  0.276853148
Converting the step to Cartesian space:
 Initial RMS(Int)=    0.0307614609
Transforming coordinates:
 Iter   0:  RMS(Cart)=    0.0738614269 RMS(Int)=    0.9875841129
 Iter   5:  RMS(Cart)=    0.0000001157 RMS(Int)=    0.0000000813
done
Storing new coordinates                 .... done

                                .--------------------.
          ----------------------|Geometry convergence|-------------------------
          Item                value                   Tolerance       Converged
          ---------------------------------------------------------------------
          RMS gradient        0.0203176998            0.0001000000      NO
          MAX gradient        0.1228315673            0.0003000000      NO
          RMS step            0.0307614609            0.0020000000      NO
          MAX step            0.1869150644            0.0040000000      NO
          -------------------------------------------------------------------------
          ........................................................
          Max(Bonds)      0.0989      Max(Angles)    3.07
          Max(Dihed)        2.25      Max(Improp)    0.00
          ---------------------------------------------------------------------

The optimization has not yet converged - more geometry cycles are needed


    ---------------------------------------------------------------------------
                         Redundant Internal Coordinates
                            (Angstroem and degrees)

        Definition                    Value    dE/dq     Step     New-Value
    ----------------------------------------------------------------------------
     1. B(C   1,C   0)                1.4002 -0.029532  0.0247    1.4249   
     2. B(C   2,C   1)                1.4047 -0.037978  0.0321    1.4368   
     3. B(C   3,C   2)                1.4097  0.021910 -0.0184    1.3914   
     4. B(C   4,C   3)                1.4041  0.012532 -0.0110    1.3931   
     5. B(C   5,C   4)                1.3976 -0.005572  0.0038    1.4014   
     6. B(C   5,C   0)                1.4001  0.029873 -0.0243    1.3758   
     7. B(N   6,C   4)                1.4703  0.018198 -0.0207    1.4496   
     8. B(O   7,N   6)                1.2370  0.036757 -0.0210    1.2161   
     9. B(O   8,N   6)                1.2372  0.035988 -0.0205    1.2166   
    10. B(N   9,C   0)                1.4470 -0.007830  0.0082    1.4552   
    11. B(O  10,N   9)                1.2369  0.049295 -0.0281    1.2088   
    12. B(O  11,N   9)                1.2372  0.045025 -0.0257    1.2115   
    13. B(N  12,C   2)                1.4686  0.007972 -0.0090    1.4596   
    14. B(O  13,N  12)                1.2400  0.054296 -0.0313    1.2087   
    15. B(O  14,N  12)                1.2365  0.028652 -0.0163    1.2202   
    16. B(O  15,C   1)                1.3672  0.122832 -0.0989    1.2683   
    17. B(H  16,C   3)                1.0910  0.001942 -0.0025    1.0885   
    18. B(H  17,C   5)                1.0897  0.000000 -0.0000    1.0897   
    19. A(C   5,C   0,N   9)          117.46 -0.002203    0.25    117.71   
    20. A(C   1,C   0,N   9)          119.74  0.011239   -1.44    118.29   
    21. A(C   1,C   0,C   5)          122.80 -0.009036    1.19    124.00   
    22. A(C   0,C   1,O  15)          117.98  0.000661   -0.19    117.79   
    23. A(C   2,C   1,O  15)          124.21 -0.022212    2.57    126.78   
    24. A(C   0,C   1,C   2)          117.81  0.021554   -2.39    115.42   
[...]
     22      -0.068356   0.000284  -0.028550  -0.001463  -0.000151  -0.000651
     23      -0.057340  -0.000820  -0.022679   0.001501  -0.000051  -0.000212
     24      -0.140112  -0.002565  -0.056174  -0.002632  -0.000681  -0.000127
     25      -0.284065  -0.001821  -0.108785  -0.017412  -0.000026   0.000046
     26      -0.108244  -0.001182  -0.041799  -0.005987  -0.000101   0.000004
     27       0.045197   0.094582  -0.135895   0.092618   0.000056   0.000109
     28      -0.204141  -0.478866   0.511485  -0.227925   0.001102   0.000015
     29       0.037734   0.082298  -0.090990   0.037565   0.000126   0.000025
     30      -0.063112  -0.139343   0.160697  -0.073387  -0.000082  -0.000032
     31       0.087940   0.199846  -0.225117   0.103512  -0.000110   0.000001
     32      -0.027895  -0.062331   0.069187  -0.028560  -0.000055  -0.000005
     33       0.024969   0.060202  -0.052762   0.007440   0.000514  -0.000042
     34       0.084646   0.200394  -0.196765   0.072198  -0.000482  -0.000013
     35      -0.004329  -0.009199   0.010016  -0.004421  -0.000022  -0.000005
     36      -0.166134   0.367900   0.381931   0.163819   0.000074   0.001035
     37       0.126260  -0.263187  -0.309569  -0.164374   0.000097  -0.000270
     38      -0.093499   0.203287   0.202849   0.072486   0.000037   0.000299
     39       0.057765  -0.122828  -0.136673  -0.063916  -0.000009  -0.000146
     40      -0.100603   0.207374   0.233705   0.105220  -0.000036  -0.000044
     41       0.031698  -0.067393  -0.072590  -0.030213  -0.000008  -0.000030
     42       0.082678  -0.183657  -0.177099  -0.061205  -0.000032  -0.000368
     43      -0.006621   0.013526   0.019117   0.017622  -0.000019   0.000575
     44       0.047812  -0.105080  -0.100460  -0.031725  -0.000016   0.000046
     45      -0.008035   0.178813   0.005808  -0.288754  -0.000117   0.000143
     46      -0.005907  -0.200129   0.008052   0.325444   0.000153  -0.000144
     47      -0.002623  -0.080669   0.003445   0.124896   0.000057  -0.000055
     48       0.083900   0.043534   0.089731   0.016327  -0.015333  -0.976381
     49      -0.074383   0.116561   0.024039   0.072791  -0.002205  -0.128612
     50      -0.006278   0.031746   0.007159   0.010076  -0.002307  -0.148860
     51      -0.070392  -0.126608   0.036426  -0.072206  -0.348646   0.005234
     52       0.102262  -0.007249   0.075754   0.006908  -0.875933   0.013474
     53       0.017296  -0.025402   0.037362  -0.020098  -0.321271   0.004832


-----------
IR SPECTRUM
-----------

 Mode   freq       eps      Int      T**2         TX        TY        TZ
       cm**-1   L/(mol*cm) km/mol    a.u.
----------------------------------------------------------------------------
  6:     57.84   0.000068    0.34  0.000365  (-0.016476 -0.006071 -0.007532)
  7:     61.90   0.000190    0.96  0.000958  ( 0.022735  0.019815  0.006956)
  8:     76.27   0.000006    0.03  0.000024  ( 0.001208  0.002264  0.004147)
  9:     78.03   0.000005    0.02  0.000018  ( 0.003020  0.002714  0.001235)
 10:    123.63   0.002156   10.89  0.005442  (-0.010653 -0.019833  0.070248)
 11:    160.46   0.000258    1.30  0.000501  ( 0.017501  0.012436  0.006318)
 12:    181.10   0.000100    0.50  0.000172  (-0.006492  0.011230 -0.001816)
 13:    208.44   0.000005    0.02  0.000007  (-0.002190 -0.001025 -0.001170)
 14:    295.99   0.000106    0.53  0.000112  ( 0.006517 -0.005572 -0.006168)
 15:    312.28   0.000194    0.98  0.000193  (-0.010272 -0.008332 -0.004298)
 16:    336.24   0.000312    1.58  0.000289  ( 0.011030 -0.012010 -0.004842)
 17:    361.50   0.000148    0.75  0.000127  (-0.006852  0.008966  0.000022)
 18:    375.65   0.000089    0.45  0.000074  (-0.006469 -0.005238 -0.002247)
 19:    401.02   0.000239    1.21  0.000186  (-0.010492 -0.008056 -0.003317)
 20:    488.20   0.000094    0.47  0.000060  ( 0.005166  0.005532  0.001648)
 21:    505.65   0.000134    0.67  0.000082  (-0.006050  0.006723 -0.000778)
 22:    545.70   0.001329    6.72  0.000760  ( 0.003019  0.007335 -0.026404)
 23:    571.06   0.001477    7.46  0.000807  (-0.021778 -0.016653 -0.007456)
 24:    709.25   0.000620    3.14  0.000273  ( 0.009999  0.011520  0.006346)
 25:    720.05   0.004519   22.84  0.001958  ( 0.030201 -0.027631 -0.016816)
 26:    749.83   0.010431   52.71  0.004341  (-0.049378 -0.039983 -0.017441)
 27:    772.33   0.006943   35.09  0.002805  ( 0.028834 -0.043347  0.009747)
 28:    790.21   0.006340   32.04  0.002504  (-0.011014 -0.007288  0.048261)
 29:    820.19   0.000055    0.28  0.000021  (-0.002637 -0.002228 -0.003027)
 30:    840.94   0.004648   23.49  0.001725  ( 0.006421  0.010083 -0.039773)
 31:    860.53   0.001968    9.95  0.000714  (-0.011819  0.004868  0.023461)
 32:    882.43   0.000360    1.82  0.000127  ( 0.006750 -0.008425 -0.003301)
 33:    968.06   0.011564   58.44  0.003728  ( 0.047161  0.035124  0.016431)
 34:    982.48   0.002198   11.11  0.000698  (-0.006863  0.012439  0.022276)
 35:    990.92   0.001492    7.54  0.000470  ( 0.020018  0.006534 -0.005127)
 36:    999.72   0.002651   13.40  0.000828  ( 0.019286 -0.020445 -0.006130)
 37:   1095.32   0.025796  130.36  0.007349  ( 0.054589 -0.066068 -0.002124)
 38:   1165.38   0.009486   47.94  0.002540  ( 0.037915  0.030390  0.013383)
 39:   1227.43   0.012849   64.93  0.003267  ( 0.035324 -0.040425 -0.019613)
 40:   1328.07   0.011478   58.00  0.002697  ( 0.039749  0.030279  0.014148)
 41:   1409.89   0.000108    0.55  0.000024  (-0.000928  0.003916 -0.002782)
 42:   1456.51   0.213018  1076.51  0.045640  ( 0.154446 -0.143653 -0.033916)
 43:   1465.99   0.201086  1016.21  0.042805  (-0.141939 -0.137896 -0.060354)
 44:   1504.81   0.011502   58.13  0.002385  ( 0.034290 -0.033642 -0.008811)
 45:   1544.67   0.000783    3.96  0.000158  ( 0.008519  0.008363  0.003959)
 46:   1593.94   0.001005    5.08  0.000197  (-0.012022 -0.006461 -0.003228)
 47:   1681.80   0.004236   21.41  0.000786  ( 0.012548 -0.009224 -0.023312)
 48:   1728.53   0.043638  220.53  0.007878  ( 0.067524  0.053132  0.022265)
 49:   1731.77   0.046852  236.77  0.008443  ( 0.031253 -0.064422  0.057583)
 50:   1748.08   0.034659  175.15  0.006187  ( 0.059064  0.046012  0.024116)
 51:   1836.41   0.141730  716.24  0.024084  ( 0.096079 -0.121249 -0.012326)
 52:   3269.97   0.002781   14.05  0.000265  (-0.005208 -0.014686 -0.004751)
 53:   3274.80   0.002508   12.67  0.000239  (-0.015280 -0.000435 -0.002300)

* The epsilon (eps) is given for a Dirac delta lineshape.
** The dipole moment derivative (T) already includes vibrational overlap.

The first frequency considered to be a vibration is 6
The total number of vibrations considered is 48


--------------------------
THERMOCHEMISTRY AT 298.15K
--------------------------

Temperature         ...   298.15 K
Pressure            ...     1.00 atm
Total Mass          ...   228.10 AMU
Quasi RRHO          ...     True
Cut-Off Frequency   ...     1.00 cm^-1

Throughout the following assumptions are being made:
  (1) The electronic state is orbitally nondegenerate
  (2) There are no thermally accessible electronically excited states
  (3) Hindered rotations indicated by low frequency modes are not
      treated as such but are treated as vibrations and this may
      cause some error
  (4) All equations used are the standard statistical mechanics
      equations for an ideal gas
  (5) All vibrations are strictly harmonic

freq.      57.84  E(vib)   ...       0.51 
freq.      61.90  E(vib)   ...       0.51 
freq.      76.27  E(vib)   ...       0.49 
freq.      78.03  E(vib)   ...       0.49 
freq.     123.63  E(vib)   ...       0.43 
freq.     160.46  E(vib)   ...       0.39 
freq.     181.10  E(vib)   ...       0.37 
freq.     208.44  E(vib)   ...       0.34 
freq.     295.99  E(vib)   ...       0.27 
freq.     312.28  E(vib)   ...       0.25 
freq.     336.24  E(vib)   ...       0.24 
freq.     361.50  E(vib)   ...       0.22 
freq.     375.65  E(vib)   ...       0.21 
freq.     401.02  E(vib)   ...       0.19 
freq.     488.20  E(vib)   ...       0.15 
freq.     505.65  E(vib)   ...       0.14 
freq.     545.70  E(vib)   ...       0.12 
freq.     571.06  E(vib)   ...       0.11 
freq.     709.25  E(vib)   ...       0.07 
freq.     720.05  E(vib)   ...       0.07 
freq.     749.83  E(vib)   ...       0.06 
freq.     772.33  E(vib)   ...       0.05 
freq.     790.21  E(vib)   ...       0.05 
freq.     820.19  E(vib)   ...       0.05 
freq.     840.94  E(vib)   ...       0.04 
freq.     860.53  E(vib)   ...       0.04 
freq.     882.43  E(vib)   ...       0.04 
freq.     968.06  E(vib)   ...       0.03 
freq.     982.48  E(vib)   ...       0.02 
freq.     990.92  E(vib)   ...       0.02 
freq.     999.72  E(vib)   ...       0.02 
freq.    1095.32  E(vib)   ...       0.02 
freq.    1165.38  E(vib)   ...       0.01 
freq.    1227.43  E(vib)   ...       0.01 
freq.    1328.07  E(vib)   ...       0.01 
freq.    1409.89  E(vib)   ...       0.00 
freq.    1456.51  E(vib)   ...       0.00 
freq.    1465.99  E(vib)   ...       0.00 
freq.    1504.81  E(vib)   ...       0.00 
freq.    1544.67  E(vib)   ...       0.00 
freq.    1593.94  E(vib)   ...       0.00 
freq.    1681.80  E(vib)   ...       0.00 
freq.    1728.53  E(vib)   ...       0.00 
freq.    1731.77  E(vib)   ...       0.00 
freq.    1748.08  E(vib)   ...       0.00 
freq.    1836.41  E(vib)   ...       0.00 
freq.    3269.97  E(vib)   ...       0.00 
freq.    3274.80  E(vib)   ...       0.00 

------------
INNER ENERGY
------------

The inner energy is: U= E(el) + E(ZPE) + E(vib) + E(rot) + E(trans)
    E(el)   - is the total energy from the electronic structure calculation
              = E(kin-el) + E(nuc-el) + E(el-el) + E(nuc-nuc)
    E(ZPE)  - the the zero temperature vibrational energy from the frequency calculation
    E(vib)  - the the finite temperature correction to E(ZPE) due to population
              of excited vibrational states
    E(rot)  - is the rotational thermal energy
    E(trans)- is the translational thermal energy

Summary of contributions to the inner energy U:
Electronic energy                ...   -919.41129051 Eh
Zero point energy                ...      0.10318110 Eh      64.75 kcal/mol
Thermal vibrational correction   ...      0.00966410 Eh       6.06 kcal/mol
Thermal rotational correction    ...      0.00141627 Eh       0.89 kcal/mol
Thermal translational correction ...      0.00141627 Eh       0.89 kcal/mol
-----------------------------------------------------------------------
Total thermal energy                   -919.29561277 Eh


Summary of corrections to the electronic energy:
(perhaps to be used in another calculation)
Total thermal correction                  0.01249665 Eh       7.84 kcal/mol
Non-thermal (ZPE) correction              0.10318110 Eh      64.75 kcal/mol
-----------------------------------------------------------------------
Total correction                          0.11567774 Eh      72.59 kcal/mol


--------
ENTHALPY
--------

The enthalpy is H = U + kB*T
                kB is Boltzmann's constant
Total thermal energy              ...   -919.29561277 Eh 
Thermal Enthalpy correction       ...      0.00094421 Eh       0.59 kcal/mol
-----------------------------------------------------------------------
Total Enthalpy                    ...   -919.29466856 Eh


Note: Only C1 symmetry has been detected, increase convergence thresholds 
      if your molecule has a higher symmetry. Symmetry factor of 1.0 is   
      used for the rotational entropy correction. 
 

Note: Rotational entropy computed according to Herzberg 
Infrared and Raman Spectra, Chapter V,1, Van Nostrand Reinhold, 1945 
Point Group:  C1, Symmetry Number:   1  
Rotational constants in cm-1:     0.018464     0.017885     0.009242 

Vibrational entropy computed according to the QRRHO of S. Grimme
Chem.Eur.J. 2012 18 9955 using a reference frequency of 100.0 cm-1


-------
ENTROPY
-------

The entropy contributions are T*S = T*(S(el)+S(vib)+S(rot)+S(trans))
     S(el)   - electronic entropy
     S(vib)  - vibrational entropy
     S(rot)  - rotational entropy
     S(trans)- translational entropy
The entropies will be listed as multiplied by the temperature to get
units of energy

Electronic entropy                ...      0.00000000 Eh      0.00 kcal/mol
Vibrational entropy               ...      0.01694165 Eh     10.63 kcal/mol
Rotational entropy                ...      0.01550623 Eh      9.73 kcal/mol
Translational entropy             ...      0.02003909 Eh     12.57 kcal/mol
-----------------------------------------------------------------------
Final entropy term                ...      0.05248697 Eh     32.94 kcal/mol

In case the symmetry of your molecule has not been determined correctly
or in case you have a reason to use a different symmetry number we print 
out the resulting rotational entropy values for sn=1,12:

 non-linear molecules -----------------------------------
|  sn= 1 | S(rot)=       0.01550623 Eh      9.73 kcal/mol|
|  sn= 2 | S(rot)=       0.01485178 Eh      9.32 kcal/mol|
|  sn= 3 | S(rot)=       0.01446895 Eh      9.08 kcal/mol|
|  sn= 4 | S(rot)=       0.01419732 Eh      8.91 kcal/mol|
|  sn= 5 | S(rot)=       0.01398663 Eh      8.78 kcal/mol|
|  sn= 6 | S(rot)=       0.01381449 Eh      8.67 kcal/mol|
|  sn= 7 | S(rot)=       0.01366894 Eh      8.58 kcal/mol|
|  sn= 8 | S(rot)=       0.01354286 Eh      8.50 kcal/mol|
|  sn= 9 | S(rot)=       0.01343166 Eh      8.43 kcal/mol|
|  sn=10 | S(rot)=       0.01333218 Eh      8.37 kcal/mol|
|  sn=11 | S(rot)=       0.01324219 Eh      8.31 kcal/mol|
|  sn=12 | S(rot)=       0.01316003 Eh      8.26 kcal/mol|
 linear molecules ---------------------------------------
|  Dinfh | S(rot)=       0.00974834 Eh      6.12 kcal/mol|
|  Cinfv | S(rot)=       0.01040280 Eh      6.53 kcal/mol|
 --------------------------------------------------------


-------------------
GIBBS FREE ENERGY
-------------------

The Gibbs free energy is G = H - T*S

Total enthalpy                    ...   -919.29466856 Eh 
Total entropy correction          ...     -0.05248697 Eh    -32.94 kcal/mol
-----------------------------------------------------------------------
Final Gibbs free energy         ...   -919.34715553 Eh

For completeness - the Gibbs free energy minus the electronic energy
G-E(el)                           ...      0.06413498 Eh     40.25 kcal/mol


Maximum memory used throughout the entire PROP-calculation: 71.1 MB

--------------------------------
SUGGESTED CITATIONS FOR THIS RUN
--------------------------------

Below you find a list of papers that are relevant to this ORCA run
We neither can nor want to force you to cite these papers, but we appreciate if you do
You receive ORCA, which is the product of decades of hard work by many enthusiastic individuals, for free
The only thing we kindly ask in return is that you cite our papers,
We deeply appreciate it, if you show your appreciation for ORCA by not just citing the generic ORCA reference.

Please note that relegating all ORCA citations to the supporting information does *not* help us.
SI sections are not indexed - citations you put there will not count into any citation statistics
But we need these citations in order to attract the funding resources that allow us to do what we are doing

Therefore, if you are a happy ORCA user, please consider citing a few of the papers listed below in the main body of your paper

In addition to the list printed below, the program has created the file /lustre/project/xlzhang/jingyi/chemsmart/test_pka/orca/pka_scale_frag1_pka_A_opt.bibtex that contains the list in bibtex format
You can import this file easily into all common literature databanks and citation aid programs


List of essential papers. We consider these as the minimum necessary citations

  1. Neese, F.
     Software update: the ORCA program system, version 6.0
     WIRES Comput. Molec. Sci. 2025 15(1), e70019
     doi.org/10.1002/wcms.7019

List of papers to cite with high priority. The work reported in these papers was absolutely
necessary for this run to complete.
Our perspective: the developers of density functionals and basis sets usually get cited in chemistry papers
Good! But without the algorithms to do something with them, the functionals or basis sets would not do anything.
Hence, in our opinion, the algorithm design and method developments papers are equally worthy of getting cited

  1. Neese, F.
     An improvement of the resolution of the identity approximation for the formation of the Coulomb matrix
     J. Comp. Chem. 2003 24(14), 1740-1747
     doi.org/10.1002/jcc.10318
  2. Neese, F.; Wennmohs, F.; Hansen, A.; Becker, U.
     Efficient, approximate and parallel Hartree-Fock and hybrid DFT calculations. A 'chain-of-spheres' algorithm for the Hartree-Fock exchange
     Chem. Phys. 2009 356(1-3), 98-109
     doi.org/10.1016/j.chemphys.2008.10.036
  3. Bykov, D.; Petrenko, T.; Izsak, R.; Kossmann, S.; Becker, U.; Valeev, E.; Neese, F.
     Efficient implementation of the analytic second derivatives of Hartree-Fock and hybrid DFT energies: a detailed analysis of different approximations
     Molec. Phys. 2015 113 , 1961-1977
     doi.org/10.1080/00268976.2015.1025114
  4. Helmich-Paris, B.; de Souza, B.; Neese, F.; Izsák, R.
     An improved chain of spheres for exchange algorithm
     J. Chem. Phys. 2021 155(10), 104109
     doi.org/10.1063/5.0058766
  5. Neese, F.
     The SHARK Integral Generation and Digestion System
     J. Comp. Chem. 2022 44(3), 381
     doi.org/10.1002/jcc.26942

List of suggested additional citations. These are papers that are important in the 'surrounding' of 
of this run, or papers that preceded the highly important papers. If you like your results we are grateful for a citation.

  1. Izsak, R.; Neese, F.
     An overlap fitted chain of spheres exchange method
     J. Chem. Phys. 2011 135 , 144105
     doi.org/10.1063/1.3646921
  2. Izsak, R.; Hansen, A.; Neese, F.
     The resolution of identity and chain of spheres approximations for the LPNO-CCSD singles Fock term
     Molec. Phys. 2012 110 , 2413-2417
     doi.org/10.1080/00268976.2012.687466
  3. Neese, F.
     The ORCA program system
     WIRES Comput. Molec. Sci. 2012 2(1), 73-78
     doi.org/10.1002/wcms.81
  4. Izsak, R.; Neese, F.; Klopper, W.
     Robust fitting techniques in the chain of spheres approximation to the Fock exchange: The role of the complementary space
     J. Chem. Phys. 2013 139 , 
     doi.org/10.1063/1.4819264
  5. Neese, F.
     Software update: the ORCA program system, version 4.0
     WIRES Comput. Molec. Sci. 2018 8(1), 1-6
     doi.org/10.1002/wcms.1327
  6. Neese, F.; Wennmohs, F.; Becker, U.; Riplinger, C.
     The ORCA quantum chemistry program package
     J. Chem. Phys. 2020 152(22), 224108
     doi.org/10.1063/5.0004608
  7. Neese, F.
     Software update: The ORCA program system—Version 5.0
     WIRES Comput. Molec. Sci. 2022 12(1), e1606
     doi.org/10.1002/wcms.1606

List of optional additional citations

  1. Neese, F.
     Approximate second-order SCF convergence for spin unrestricted wavefunctions
     Chem. Phys. Lett. 2000 325(1-3), 93-98
     doi.org/10.1016/s0009-2614(00)00662-x

Timings for individual modules:

Sum of individual times          ...      558.220 sec (=   9.304 min)
Startup calculation              ...       97.267 sec (=   1.621 min)  17.4 %
SCF iterations                   ...      283.715 sec (=   4.729 min)  50.8 %
Property integrals               ...       63.274 sec (=   1.055 min)  11.3 %
SCF Response                     ...       23.555 sec (=   0.393 min)   4.2 %
Property calculations            ...       13.764 sec (=   0.229 min)   2.5 %
SCF Gradient evaluation          ...       76.379 sec (=   1.273 min)  13.7 %
Geometry relaxation              ...        0.266 sec (=   0.004 min)   0.0 %
                             ****ORCA TERMINATED NORMALLY****
TOTAL RUN TIME: 0 days 0 hours 12 minutes 21 seconds 688 msec
