 Entering Gaussian System, Link 0=/project/xlzhang/shared/bin/g16/g16
 Input=/lustre/project/xlzhang/jingyi/chemsmart/test_pka/gaussian/pka_scale_frag2_pka_HA_sp.com
 Output=/lustre/project/xlzhang/jingyi/chemsmart/test_pka/gaussian/pka_scale_frag2_pka_HA_sp.log
 Initial command:
 /project/xlzhang/shared/bin/g16/l1.exe "/lustre/project/xlzhang/jingyi/chemsmart/test_pka/gaussian/Gau-731981.inp" -scrdir="/lustre/project/xlzhang/jingyi/chemsmart/test_pka/gaussian/"
 Entering Link 1 = /project/xlzhang/shared/bin/g16/l1.exe PID=    731986.
  
 Copyright (c) 1988-2017, Gaussian, Inc.  All Rights Reserved.
  
 This is part of the Gaussian(R) 16 program.  It is based on
 the Gaussian(R) 09 system (copyright 2009, Gaussian, Inc.),
 the Gaussian(R) 03 system (copyright 2003, Gaussian, Inc.),
 the Gaussian(R) 98 system (copyright 1998, Gaussian, Inc.),
 the Gaussian(R) 94 system (copyright 1995, Gaussian, Inc.),
 the Gaussian 92(TM) system (copyright 1992, Gaussian, Inc.),
 the Gaussian 90(TM) system (copyright 1990, Gaussian, Inc.),
 the Gaussian 88(TM) system (copyright 1988, Gaussian, Inc.),
 the Gaussian 86(TM) system (copyright 1986, Carnegie Mellon
 University), and the Gaussian 82(TM) system (copyright 1983,
 Carnegie Mellon University). Gaussian is a federally registered
 trademark of Gaussian, Inc.
  
 This software contains proprietary and confidential information,
 including trade secrets, belonging to Gaussian, Inc.
  
 This software is provided under written license and may be
 used, copied, transmitted, or stored only in accord with that
 written license.
  
 The following legend is applicable only to US Government
 contracts under FAR:
  
                    RESTRICTED RIGHTS LEGEND
  
 Use, reproduction and disclosure by the US Government is
 subject to restrictions as set forth in subparagraphs (a)
 and (c) of the Commercial Computer Software - Restricted
 Rights clause in FAR 52.227-19.
  
 Gaussian, Inc.
 340 Quinnipiac St., Bldg. 40, Wallingford CT 06492
  
  
 ---------------------------------------------------------------
 Warning -- This program may not be used in any manner that
 competes with the business of Gaussian, Inc. or will provide
 assistance to any competitor of Gaussian, Inc.  The licensee
 of this program is prohibited from giving any competitor of
 Gaussian, Inc. access to this program.  By using this program,
 the user acknowledges that Gaussian, Inc. is engaged in the
 business of creating and licensing software in the field of
 computational chemistry and represents and warrants to the
 licensee that it is not a competitor of Gaussian, Inc. and that
 it will not use this program in any manner prohibited above.
 ---------------------------------------------------------------
  

 Cite this work as:
 Gaussian 16, Revision B.01,
 M. J. Frisch, G. W. Trucks, H. B. Schlegel, G. E. Scuseria, 
 M. A. Robb, J. R. Cheeseman, G. Scalmani, V. Barone, 
 G. A. Petersson, H. Nakatsuji, X. Li, M. Caricato, A. V. Marenich, 
 J. Bloino, B. G. Janesko, R. Gomperts, B. Mennucci, H. P. Hratchian, 
 J. V. Ortiz, A. F. Izmaylov, J. L. Sonnenberg, D. Williams-Young, 
 F. Ding, F. Lipparini, F. Egidi, J. Goings, B. Peng, A. Petrone, 
 T. Henderson, D. Ranasinghe, V. G. Zakrzewski, J. Gao, N. Rega, 
 G. Zheng, W. Liang, M. Hada, M. Ehara, K. Toyota, R. Fukuda, 
 J. Hasegawa, M. Ishida, T. Nakajima, Y. Honda, O. Kitao, H. Nakai, 
 T. Vreven, K. Throssell, J. A. Montgomery, Jr., J. E. Peralta, 
 F. Ogliaro, M. J. Bearpark, J. J. Heyd, E. N. Brothers, K. N. Kudin, 
 V. N. Staroverov, T. A. Keith, R. Kobayashi, J. Normand, 
 K. Raghavachari, A. P. Rendell, J. C. Burant, S. S. Iyengar, 
 J. Tomasi, M. Cossi, J. M. Millam, M. Klene, C. Adamo, R. Cammi, 
 J. W. Ochterski, R. L. Martin, K. Morokuma, O. Farkas, 
 J. B. Foresman, and D. J. Fox, Gaussian, Inc., Wallingford CT, 2016.
 
 ******************************************
 Gaussian 16:  ES64L-G16RevB.01 20-Dec-2017
                10-Jun-2026 
 ******************************************
 %chk=pka_scale_frag2_pka_HA_sp.chk
 %nprocshared=64
 Will use up to   64 processors via shared memory.
 %mem=180GB
 -------------------------------------------------
 # mn15 def2svp scrf=(smd,solvent=TetraHydroFuran)
 -------------------------------------------------
 1/38=1,172=1/1;
 2/12=2,17=6,18=5,40=1/2;
 3/5=43,7=101,11=2,25=1,30=1,70=32201,72=20,74=-73/1,2,3;
 4//1;
 5/5=2,38=5,53=20/2;
 6/7=2,8=2,9=2,10=2,28=1/1;
 99/5=1,9=1/99;
 ----------------------------
 Gaussian pKa calculation job
 ----------------------------
 Symbolic Z-matrix:
 Charge =  0 Multiplicity = 1
 C                    -1.59567  -0.39495   0.00308 
 S                     0.08558   0.14047   0.06871 
 O                     0.62795  -0.12062   1.38532 
 O                     0.1777    1.43666  -0.54796 
 O                     0.76697  -0.93466  -0.92567 
 H                    -2.17221   0.30154   0.62437 
 H                    -1.93121  -0.34721  -1.03925 
 H                    -1.65845  -1.414     0.40104 
 H                     1.3857   -1.46918  -0.39749 
 
                          Input orientation:                          
 ---------------------------------------------------------------------
 Center     Atomic      Atomic             Coordinates (Angstroms)
 Number     Number       Type             X           Y           Z
 ---------------------------------------------------------------------
      1          6           0       -1.595672   -0.394953    0.003084
      2         16           0        0.085579    0.140467    0.068705
      3          8           0        0.627947   -0.120615    1.385320
      4          8           0        0.177702    1.436661   -0.547960
      5          8           0        0.766970   -0.934659   -0.925666
      6          1           0       -2.172207    0.301537    0.624371
      7          1           0       -1.931214   -0.347211   -1.039248
      8          1           0       -1.658454   -1.413997    0.401040
      9          1           0        1.385701   -1.469176   -0.397488
 ---------------------------------------------------------------------
                    Distance matrix (angstroms):
                    1          2          3          4          5
     1  C    0.000000
     2  S    1.765669   0.000000
     3  O    2.632550   1.447688   0.000000
     4  O    2.608316   1.438361   2.522975   0.000000
     5  O    2.595368   1.615229   2.454109   2.472460   0.000000
     6  H    1.097036   2.330731   2.932255   2.860933   3.545357
     7  H    1.096049   2.352200   3.532588   2.805546   2.763728
     8  H    1.095793   2.359758   2.805223   3.521125   2.805815
     9  H    3.194213   2.120991   2.360342   3.150523   0.973400
                    6          7          8          9
     6  H    0.000000
     7  H    1.801827   0.000000
     8  H    1.804682   1.812970   0.000000
     9  H    4.103453   3.559858   3.147629   0.000000
 Stoichiometry    CH4O3S
 Framework group  C1[X(CH4O3S)]
 Deg. of freedom    21
 Full point group                 C1      NOp   1
 Largest Abelian subgroup         C1      NOp   1
 Largest concise Abelian subgroup C1      NOp   1
                         Standard orientation:                         
 ---------------------------------------------------------------------
 Center     Atomic      Atomic             Coordinates (Angstroms)
 Number     Number       Type             X           Y           Z
 ---------------------------------------------------------------------
      1          6           0       -1.595672   -0.394954    0.003084
      2         16           0        0.085579    0.140467    0.068705
      3          8           0        0.627947   -0.120615    1.385320
      4          8           0        0.177701    1.436661   -0.547960
      5          8           0        0.766970   -0.934659   -0.925666
      6          1           0       -2.172207    0.301536    0.624371
      7          1           0       -1.931214   -0.347212   -1.039248
      8          1           0       -1.658453   -1.413998    0.401040
      9          1           0        1.385702   -1.469175   -0.397488
 ---------------------------------------------------------------------
 Rotational constants (GHZ):           4.8075542           4.5476140           4.4251808
 Standard basis: def2SVP (5D, 7F)
 There are    99 symmetry adapted cartesian basis functions of A   symmetry.
 There are    94 symmetry adapted basis functions of A   symmetry.
    94 basis functions,   165 primitive gaussians,    99 cartesian basis functions
    25 alpha electrons       25 beta electrons
       nuclear repulsion energy       280.5642836825 Hartrees.
 NAtoms=    9 NActive=    9 NUniq=    9 SFac= 1.00D+00 NAtFMM=   60 NAOKFM=F Big=F
 Integral buffers will be    131072 words long.
 Raffenetti 2 integral format.
 Two-electron integral symmetry is turned on.
 ------------------------------------------------------------------------------
 Polarizable Continuum Model (PCM)
 =================================
 Model                : PCM.
 Atomic radii         : SMD-Coulomb.
 Polarization charges : Total charges.
 Charge compensation  : None.
 Solution method      : On-the-fly selection.
 Cavity type          : VdW (van der Waals Surface) (Alpha=1.000).
 Cavity algorithm     : GePol (No added spheres)
                        Default sphere list used, NSphG=    9.
                        Lebedev-Laikov grids with approx.  5.0 points / Ang**2.
                        Smoothing algorithm: York/Karplus (Gamma=1.0000).
                        Polarization charges: spherical gaussians, with
                                              point-specific exponents (IZeta= 3).
                        Self-potential: point-specific (ISelfS= 7).
                        Self-field    : sphere-specific E.n sum rule (ISelfD= 2).
 Solvent              : TetraHydroFuran, Eps=   7.425700 Eps(inf)=   1.974025
 ------------------------------------------------------------------------------
 Spheres list:
 ISph  on   Nord     Re0    Alpha      Xe            Ye            Ze
    1   C      1    1.8500  1.000     -1.595672     -0.394954      0.003084
    2   S      2    2.4900  1.000      0.085579      0.140467      0.068705
    3   O      3    2.2940  1.000      0.627947     -0.120615      1.385320
    4   O      4    2.2940  1.000      0.177701      1.436661     -0.547960
    5   O      5    2.2940  1.000      0.766970     -0.934659     -0.925666
    6   H      6    1.2000  1.000     -2.172207      0.301536      0.624371
    7   H      7    1.2000  1.000     -1.931214     -0.347212     -1.039248
    8   H      8    1.2000  1.000     -1.658453     -1.413998      0.401040
    9   H      9    1.2000  1.000      1.385702     -1.469175     -0.397488
 ------------------------------------------------------------------------------
 ------------------------------------------------------------------------------
 Atomic radii for non-electrostatic terms: SMD-CDS.
 ------------------------------------------------------------------------------
 Nuclear repulsion after PCM non-electrostatic terms =      280.5610149117 Hartrees.
 One-electron integrals computed using PRISM.
   1 Symmetry operations used in ECPInt.
 ECPInt:  NShTT=     990 NPrTT=    3828 LenC2=     987 LenP2D=    3189.
 LDataN:  DoStor=T MaxTD1= 4 Len=   56
 NBasis=    94 RedAO= T EigKep=  4.87D-03  NBF=    94
 NBsUse=    94 1.00D-06 EigRej= -1.00D+00 NBFU=    94
 ExpMin= 1.22D-01 ExpMax= 9.18D+03 ExpMxC= 1.38D+03 IAcc=3 IRadAn=         5 AccDes= 0.00D+00
 Harris functional with IExCor= 1009 and IRadAn=       5 diagonalized for initial guess.
 HarFok:  IExCor= 1009 AccDes= 0.00D+00 IRadAn=         5 IDoV= 1 UseB2=F ITyADJ=14
 ICtDFT=  3500011 ScaDFX=  1.000000  1.000000  1.000000  1.000000
 FoFCou: FMM=F IPFlag=           0 FMFlag=      100000 FMFlg1=           0
         NFxFlg=           0 DoJE=T BraDBF=F KetDBF=T FulRan=T
         wScrn=  0.000000 ICntrl=       500 IOpCl=  0 I1Cent=   200000004 NGrid=           0
         NMat0=    1 NMatS0=      1 NMatT0=    0 NMatD0=    1 NMtDS0=    0 NMtDT0=    0
 Petite list used in FoFCou.
 Keep R1 ints in memory in canonical form, NReq=69070382.
 Requested convergence on RMS density matrix=1.00D-08 within 128 cycles.
 Requested convergence on MAX density matrix=1.00D-06.
 Requested convergence on             energy=1.00D-06.
 No special actions if energy rises.
 Inv3:  Mode=1 IEnd=     3364443.
 Iteration    1 A*A^-1 deviation from unit magnitude is 3.77D-15 for   1050.
 Iteration    1 A*A^-1 deviation from orthogonality  is 2.52D-15 for    219     89.
 Iteration    1 A^-1*A deviation from unit magnitude is 4.00D-15 for   1050.
 Iteration    1 A^-1*A deviation from orthogonality  is 1.28D-15 for   1052    864.
 Error on total polarization charges =  0.00695
 SCF Done:  E(RMN15) =  -663.557338082     A.U. after   12 cycles
            NFock= 12  Conv=0.41D-08     -V/T= 2.0050
 SMD-CDS (non-electrostatic) energy       (kcal/mol) =      -2.05
 (included in total energy above)

 **********************************************************************

            Population analysis using the SCF Density.

 **********************************************************************

 Orbital symmetries:
       Occupied  (A) (A) (A) (A) (A) (A) (A) (A) (A) (A) (A) (A)
                 (A) (A) (A) (A) (A) (A) (A) (A) (A) (A) (A) (A)
                 (A)
       Virtual   (A) (A) (A) (A) (A) (A) (A) (A) (A) (A) (A) (A)
                 (A) (A) (A) (A) (A) (A) (A) (A) (A) (A) (A) (A)
                 (A) (A) (A) (A) (A) (A) (A) (A) (A) (A) (A) (A)
                 (A) (A) (A) (A) (A) (A) (A) (A) (A) (A) (A) (A)
                 (A) (A) (A) (A) (A) (A) (A) (A) (A) (A) (A) (A)
                 (A) (A) (A) (A) (A) (A) (A) (A) (A)
 The electronic state is 1-A.
 Alpha  occ. eigenvalues --  -88.03533 -18.86371 -18.80918 -18.80845 -10.08040
 Alpha  occ. eigenvalues --   -7.93609  -6.13330  -6.12977  -6.12825  -1.18464
 Alpha  occ. eigenvalues --   -1.06840  -1.04575  -0.81279  -0.67811  -0.58097
 Alpha  occ. eigenvalues --   -0.54833  -0.53091  -0.49036  -0.47370  -0.46484
 Alpha  occ. eigenvalues --   -0.41887  -0.38799  -0.36803  -0.35966  -0.34943
 Alpha virt. eigenvalues --    0.09459   0.10863   0.13633   0.14421   0.15208
 Alpha virt. eigenvalues --    0.16226   0.18437   0.20664   0.44421   0.44791
 Alpha virt. eigenvalues --    0.46348   0.46922   0.59645   0.64549   0.66284
 Alpha virt. eigenvalues --    0.67209   0.68066   0.69252   0.70712   0.72480
 Alpha virt. eigenvalues --    0.73573   0.78911   0.87207   0.88654   0.95666
 Alpha virt. eigenvalues --    0.99510   1.03183   1.05510   1.06446   1.06960
 Alpha virt. eigenvalues --    1.10642   1.17940   1.18991   1.23541   1.25951
 Alpha virt. eigenvalues --    1.29013   1.43686   1.48468   1.49871   1.51952
 Alpha virt. eigenvalues --    1.61036   1.73399   1.74554   1.78117   1.87665
 Alpha virt. eigenvalues --    1.94870   1.95059   2.17158   2.19856   2.35985
 Alpha virt. eigenvalues --    2.36422   2.59679   2.62178   2.62659   2.63713
 Alpha virt. eigenvalues --    2.65616   2.67072   2.70970   2.75496   2.82092
 Alpha virt. eigenvalues --    2.83813   2.85877   2.89173   2.96123   3.00083
 Alpha virt. eigenvalues --    3.03837   3.31704   3.40383   3.61185
          Condensed to atoms (all electrons):
               1          2          3          4          5          6
     1  C    4.740201   0.364696  -0.051692  -0.056923  -0.048476   0.374480
     2  S    0.364696  13.756118   0.447568   0.458478   0.200567  -0.012294
     3  O   -0.051692   0.447568   8.143992  -0.039158  -0.046966   0.001131
     4  O   -0.056923   0.458478  -0.039158   8.115678  -0.041568   0.002124
     5  O   -0.048476   0.200567  -0.046966  -0.041568   7.964369   0.003592
     6  H    0.374480  -0.012294   0.001131   0.002124   0.003592   0.542929
     7  H    0.363995  -0.005135   0.003377   0.001844   0.001062  -0.008099
     8  H    0.359229  -0.004558   0.002296   0.003671   0.002301  -0.007092
     9  H    0.002508   0.000322   0.008292   0.002024   0.315381  -0.000269
               7          8          9
     1  C    0.363995   0.359229   0.002508
     2  S   -0.005135  -0.004558   0.000322
     3  O    0.003377   0.002296   0.008292
     4  O    0.001844   0.003671   0.002024
     5  O    0.001062   0.002301   0.315381
     6  H   -0.008099  -0.007092  -0.000269
     7  H    0.557877  -0.011194  -0.000456
     8  H   -0.011194   0.566374   0.000307
     9  H   -0.000456   0.000307   0.441730
 Mulliken charges:
               1
     1  C   -0.048017
     2  S    0.794239
     3  O   -0.468840
     4  O   -0.446171
     5  O   -0.350263
     6  H    0.103498
     7  H    0.096728
     8  H    0.088665
     9  H    0.230161
 Sum of Mulliken charges =  -0.00000
 Mulliken charges with hydrogens summed into heavy atoms:
               1
     1  C    0.240874
     2  S    0.794239
     3  O   -0.468840
     4  O   -0.446171
     5  O   -0.120103
 Electronic spatial extent (au):  <R**2>=            409.0767
 Charge=             -0.0000 electrons
 Dipole moment (field-independent basis, Debye):
    X=             -2.3496    Y=             -3.4560    Z=             -0.3371  Tot=              4.1926
 Quadrupole moment (field-independent basis, Debye-Ang):
   XX=            -29.1369   YY=            -36.3658   ZZ=            -41.2005
   XY=             -2.2104   XZ=             -1.2350   YZ=              1.3187
 Traceless Quadrupole moment (field-independent basis, Debye-Ang):
   XX=              6.4308   YY=             -0.7980   ZZ=             -5.6327
   XY=             -2.2104   XZ=             -1.2350   YZ=              1.3187
 Octapole moment (field-independent basis, Debye-Ang**2):
  XXX=              2.9161  YYY=            -13.0713  ZZZ=             -5.4093  XYY=              4.2437
  XXY=             -5.2450  XXZ=             -1.3288  XZZ=             -4.6498  YZZ=              1.5129
  YYZ=              4.0141  XYZ=              0.2998
 Hexadecapole moment (field-independent basis, Debye-Ang**3):
 XXXX=           -172.3902 YYYY=           -147.0814 ZZZZ=           -149.7515 XXXY=            -11.1321
 XXXZ=             -3.2705 YYYX=            -10.9171 YYYZ=              3.7593 ZZZX=             -1.1095
 ZZZY=              0.2047 XXYY=            -46.2607 XXZZ=            -54.5293 YYZZ=            -50.6865
 XXYZ=              2.3415 YYXZ=             -2.1637 ZZXY=             -0.0012
 N-N= 2.805610149117D+02 E-N=-2.130522505630D+03  KE= 6.602302972504D+02
 1\1\GINC-CHPC-CN079\SP\RMN15\def2SVP\C1H4O3S1\S1155246976\10-Jun-2026\
 0\\# mn15 def2svp scrf=(smd,solvent=TetraHydroFuran)\\Gaussian pKa cal
 culation job\\0,1\C,0,-1.595672,-0.394953,0.003084\S,0,0.085579,0.1404
 67,0.068705\O,0,0.627947,-0.120615,1.38532\O,0,0.177702,1.436661,-0.54
 796\O,0,0.76697,-0.934659,-0.925666\H,0,-2.172207,0.301537,0.624371\H,
 0,-1.931214,-0.347211,-1.039248\H,0,-1.658454,-1.413997,0.40104\H,0,1.
 385701,-1.469176,-0.397488\\Version=ES64L-G16RevB.01\State=1-A\HF=-663
 .5573381\RMSD=4.067e-09\Dipole=-0.9244117,-1.3596844,-0.1326169\Quadru
 pole=4.7811301,-0.5933202,-4.1878099,-1.6433451,-0.9182169,0.9804563\P
 G=C01 [X(C1H4O3S1)]\\@


 A leading authority is anyone who has guessed right more than once.
 -- Frank A. Clark
 Job cpu time:       0 days  0 hours  2 minutes 59.2 seconds.
 Elapsed time:       0 days  0 hours  0 minutes  3.1 seconds.
 File lengths (MBytes):  RWF=     26 Int=      0 D2E=      0 Chk=      2 Scr=      1
 Normal termination of Gaussian 16 at Wed Jun 10 15:26:50 2026.
