
                                 *****************
                                 * O   R   C   A *
                                 *****************

                                            #,                                       
                                            ###                                      
                                            ####                                     
                                            #####                                    
                                            ######                                   
                                           ########,                                 
                                     ,,################,,,,,                         
                               ,,#################################,,                 
                          ,,##########################################,,             
                       ,#########################################, ''#####,          
                    ,#############################################,,   '####,        
                  ,##################################################,,,,####,       
                ,###########''''           ''''###############################       
              ,#####''   ,,,,##########,,,,          '''####'''          '####       
            ,##' ,,,,###########################,,,                        '##       
           ' ,,###''''                  '''############,,,                           
         ,,##''                                '''############,,,,        ,,,,,,###''
      ,#''                                            '''#######################'''  
     '                                                          ''''####''''         
             ,#######,   #######,   ,#######,      ##                                
            ,#'     '#,  ##    ##  ,#'     '#,    #''#        ,####,    ,#,          
            ##       ##  ##   ,#'  ##            #'  '#       #'       ,# #          
            ##       ##  #######   ##           ,######,      #####,      #          
            '#,     ,#'  ##    ##  '#,     ,#' ,#      #,     #,   #      #          
             '#######'   ##     ##  '#######'  #'      '#     '####' #    #          



                #########################################################
                #                        -***-                          #
                #          Department of theory and spectroscopy        #
                #                                                       #
                #                      Frank Neese                      #
                #                                                       #
                #     Directorship, Architecture, Infrastructure        #
                #                    SHARK, DRIVERS                     #
                #        Core code/Algorithms in most modules           #
                #                                                       #
                #        Max Planck Institute fuer Kohlenforschung      #
                #                Kaiser Wilhelm Platz 1                 #
                #                 D-45470 Muelheim/Ruhr                 #
                #                      Germany                          #
                #                                                       #
                #                  All rights reserved                  #
                #                        -***-                          #
                #########################################################


                         Program Version 6.1.0  -  RELEASE   -
                                (GIT: $679e74b$)
                          ($2025-06-10 18:02:51 +0200$)


 With contributions from (in alphabetic order):
[Max-Planck-Institut fuer Kohlenforschung]                               
  Daniel Aravena         : Magnetic Suceptibility                        
  Michael Atanasov       : Ab Initio Ligand Field Theory (pilot matlab implementation)
  Alexander A. Auer      : GIAO ZORA, VPT2 properties, NMR spectrum      
  Ute Becker             : All parallelization in ORCA, NUMFREQ, NUMCALC 
  Giovanni Bistoni       : ED, misc. LED, open-shell LED, HFLD           
  Dmytro Bykov           : pre 5.0 version of the SCF Hessian            
  Marcos Casanova-Páez   : Triplet and SCS-CIS(D). UHF-(DLPNO)-IP/EA/STEOM-CCSD. UHF-CVS-IP/STEOM-CCSD   
  Vijay G. Chilkuri      : MRCI spin determinant printing, contributions to CSF-ICE 
  Pauline Colinet        : FMM embedding                                 
  Dipayan Datta          : RHF DLPNO-CCSD density                        
  Achintya Kumar Dutta   : EOM-CC, STEOM-CC                              
  Nicolas Foglia         : Exact transition moments, OPA infrastructure, MCD improvements    
  Dmitry Ganyushin       : Spin-Orbit,Spin-Spin,Magnetic field MRCI      
  Miquel Garcia-Rates    : C-PCM and meta-GGA Hessian, CCSD/C-PCM, Gaussian charge scheme 
  Tiago L. C. Gouveia    : GS-ROHF, GS-ROCIS                             
  Yang Guo               : DLPNO-NEVPT2, F12-NEVPT2, CIM, IAO-localization        
  Andreas Hansen         : Spin unrestricted coupled pair/coupled cluster methods 
  Ingolf Harden          : AUTO-CI MPn and infrastructure                
  Benjamin Helmich-Paris : MC-RPA, TRAH-(SCF,CASSCF), AVAS, COSX integrals, SCF dyn. polar., MC-PDFT, srDFT 
  Lee Huntington         : MR-EOM, pCC                                   
  Robert Izsak           : Overlap fitted RIJCOSX, COSX-SCS-MP3, EOM     
  Riya Kayal             : Wick's Theorem for AUTO-CI, AUTO-CI UHF-CCSDT 
  Emily Kempfer          : AUTO-CI RHF CISDT and CCSDT, approximate NEVPT4
  Christian Kollmar      : KDIIS, OOCD, Brueckner-CCSD(T), CCSD density, CASPT2, CASPT2-K, improved NEVPT2 
  Axel Koslowski         : Symmetry handling                             
  Simone Kossmann        : meta-GGA functionals, TD-DFT gradient, OOMP2, (MP2 Hessian; deprecated post 5.0) 
  Lucas Lang             : DCDCAS, Hyperfine gauge corrections, ICE-SOC+SSC
  Marvin Lechner         : AUTO-CI (C++ implementation), FIC-MRCC        
  Spencer Leger          : CASSCF response                               
  Dagmar Lenk            : GEPOL surface, SMD, ORCA-2-JSON               
  Dimitrios Liakos       : Extrapolation schemes; Compound Job, Property file
  Dimitrios Manganas     : Further ROCIS development; embedding schemes. LFT, Crystal Embedding 
  Dimitrios Pantazis     : SARC Basis sets                               
  Anastasios Papadopoulos: AUTO-CI, single reference methods and gradients 
  Taras Petrenko         : pre 6.0 DFT Hessian and TD-DFT gradient,  ECA, NRVS 
  Petra Pikulova         : Analytic Raman intensities                    
  Peter Pinski           : DLPNO-MP2, DLPNO-MP2 Gradient                 
  Shashank Vittal Rao    : ES-AILFT, MagRelax                            
  Christoph Reimann      : Effective Core Potentials                     
  Marius Retegan         : Local ZFS, SOC                                
  Christoph Riplinger    : Optimizer, TS searches, QM/MM, DLPNO-CCSD(T), (RO)-DLPNO pert. Triples 
  Michael Roemelt        : Original ROCIS implementation, recursive CI coupling coefficients
  Masaaki Saitow         : Open-shell DLPNO-CCSD energy and density      
  Barbara Sandhoefer     : DKH picture change effects                    
  Yorick L. A. Schmerwitz: GMF and freeze-and-release deltaSCF, NEB S-IDPP initial path                    
  Kantharuban Sivalingam : CASSCF convergence/infrastructure, NEVPT2, NEVPT3, NEVPT4(SD), FIC-MRCI and CEPA variants
  Bernardo de Souza      : ESD, SOC TD-DFT                               
  Georgi L. Stoychev     : AutoAux, RI-MP2 NMR, DLPNO-MP2 response, X2C  
  Van Anh Tran           : RI-MP2 g-tensors                              
  Willem Van den Heuvel  : Paramagnetic NMR                              
  Zikuan Wang            : NOTCH, Electric field optimization            
  Frank Wennmohs         : Technical directorship and infrastructure     
  Hang Xu                : AUTO-CI-Response properties                   
                                                                         
[FACCTs GmbH]                                                            
  Markus Bursch, Nicolas Foglia, Miquel Garcia-Rates, Ingolf Harden, Hagen Neugebauer, Anastasios Papadopoulos, 
  Christoph Riplinger, Bernardo de Souza, Georgi L. Stoychev                                                    
                                                                 
  APM, various basis sets, CI-OPT, improved COSX, DLPNO-Multilevel,           
  DOCKER, DRACO, updates on ESD, Fragmentator, GOAT, IRC, LR-CPCM, L-BFGS, MBIS, meta-GGA TD-DFT gradient, ML-optimized integration grids, 
  MM, NACMEs, nearIR, NEB, NEB-TS, NL-DFT gradient (VV10), 2- and 3-layer-ONIOM, interface openCOSMO-RS, QMMM,   
  Crystal-QMMM, RESP, rigid body optimization, SF, symmetry and pop. for TD-DFT, various functionals, SOLVATOR                                   
                                                                         
[Other institutions]                                                     
  V. Asgeirsson          : NEB                                           
  Christoph Bannwarth    : sTDA-DFT, sTD-DFT, PBEh-3c, B97-3c, D3        
  Giovanni Bistoni       : ETS/NOCV, ADLD/ADEX, COVALED                  
  Martin Brehm           : Molecular dynamics                            
  Ronald Cardenas        : ETS/NOCV                                      
  Martina Colucci        : COVALED                                       
  Sebastian Ehlert       : rSCAN, r2SCAN, r2SCAN-3c, D4, dhf basis sets  
  Marvin Friede          : D4 for Fr, Ra, Ac-Lr                          
  Lars Goerigk           : TD-DFT with DH, B97 family of functionals     
  Stefan Grimme          : VdW corrections, initial TS optimization, DFT functionals, gCP, sTDA/sTD-DF 
  Waldemar Hujo          : DFT-NL                                        
  H. Jonsson             : NEB                                           
  Holger Kruse           : gCP                                           
  Marcel Mueller         : wB97X-3c, vDZP basis set                      
  Hagen Neugebauer       : wr2SCAN, Native XTB                           
  Gianluca Regni         : ADLD/ADEX                                     
  Tobias Risthaus        : pre 6.0 range-separated hybrid DFT and stability analysis
  Lukas Wittmann         : regularized MP2, r2SCAN double-hybrids, wr2SCAN        
                                                                         
We gratefully acknowledge several colleagues who have allowed us to      
interface, adapt or use parts of their codes:                            
  Ed Valeev, F. Pavosevic, A. Kumar             : LibInt (2-el integral package), F12 methods 
  Garnet Chan, S. Sharma, J. Yang, R. Olivares  : DMRG                   
  Ulf Ekstrom                                   : XCFun DFT Library      
  Mihaly Kallay                                 : mrcc  (arbitrary order and MRCC methods)
  Frank Weinhold                                : gennbo (NPA and NBO analysis)           
  Simon Mueller                                 : openCOSMO-RS                            
  Christopher J. Cramer and Donald G. Truhlar   : smd solvation model                     
  S Lehtola, MJT Oliveira, MAL Marques          : LibXC Library                           
  Liviu Ungur et al                             : ANISO software                          


 Your calculation uses the libint2 library for the computation of 2-el integrals
 For citations please refer to: http://libint.valeyev.net

 Your ORCA version has been built with support for libXC version: 7.0.0
 For citations please refer to: https://libxc.gitlab.io

 This ORCA versions uses:
   CBLAS   interface :  Fast vector & matrix operations
   LAPACKE interface :  Fast linear algebra routines
   SCALAPACK package :  Parallel linear algebra routines
   Shared memory     :  Shared parallel matrices
   BLAS/LAPACK       :  OpenBLAS 0.3.29  USE64BITINT DYNAMIC_ARCH NO_AFFINITY Cooperlake SINGLE_THREADED
        Core in use  :  Cooperlake
   Copyright (c) 2011-2014, The OpenBLAS Project


  ***********************************
  * Starting time: Wed Jun 10 15:49:58 2026
  * Host name:     chpc-cn082.rc.cuhk.edu.hk
  * Process ID:    2422485
  * Working dir.:  /lustre/project/xlzhang/jingyi/chemsmart/test_pka/orca
  ***********************************

NOTE: MaxCore=2109 MB was set to SCF,MP2,MDCI,CIPSI,MRCI,RASCI and CIS
      => If you want to overwrite this, your respective input block should be placed after the MaxCore statement
XCFun DFT library Copyright 2009-2010 Ulf Ekstrom and contributors.
See http://admol.org/xcfun for more information.
This is free software; see the source code for copying conditions.
There is ABSOLUTELY NO WARRANTY; not even for MERCHANTABILITY or FITNESS FOR A PARTICULAR PURPOSE.
For details see the documentation.
Scientific users of this library should cite U. Ekstrom, L. Visscher, R. Bast, A. J. Thorvaldsen and K. Ruud;
J.Chem.Theor.Comp. 2010, DOI: 10.1021/ct100117s
XCFun Version 0.99 

Warning: RI is on but no J-basis has been assigned. Assigning Def2/J (nothing to worry about!)
================================================================================

----- Orbital basis set information -----
Your calculation utilizes the basis: def2-SVP
   F. Weigend and R. Ahlrichs, Phys. Chem. Chem. Phys. 7, 3297 (2005).

----- AuxJ basis set information -----
Your calculation utilizes the auxiliary basis: def2/J
   H-Rn: F. Weigend, Phys. Chem. Chem. Phys. 8, 1057 (2006).
   Fr-Lr: K. Eichkorn, F. Weigend, O. Treutler, R. Ahlrichs; Theor. Chem. Acc. 97, 119 (1997).

================================================================================
                                        WARNINGS
                       Please study these warnings very carefully!
================================================================================

WARNING: Functional chosen is sensitive to the integration grid.
         DEFGRID3 seems to be a minimum grid for robust results!

================================================================================
                                       INPUT FILE
================================================================================
NAME = /lustre/project/xlzhang/jingyi/chemsmart/test_pka/orca/pka_scale_frag1_pka_A_sp.inp
|  1> !  M062X def2-SVP defgrid2 CPCM(water)
|  2> # Number of processors
|  3> %pal nprocs 64 end
|  4> # Memory per core
|  5> %maxcore 2109
|  6> * xyz -1 1
|  7> C        1.3014530000    0.3322530000    0.2451100000
|  8> C        0.9076410000   -0.9936100000   -0.2802900000
|  9> C       -0.5635080000   -1.0805410000   -0.4096270000
| 10> C       -1.4292520000   -0.0392660000   -0.1935010000
| 11> C       -0.9375140000    1.1955290000    0.2462480000
| 12> C        0.4330550000    1.3724020000    0.4644340000
| 13> N       -1.8499880000    2.2796300000    0.4978900000
| 14> O       -3.0361120000    2.0880650000    0.3043350000
| 15> O       -1.3947460000    3.3366870000    0.8925700000
| 16> N        2.7054440000    0.5869680000    0.5449840000
| 17> O        3.4022330000   -0.3478890000    0.8565170000
| 18> O        3.0972990000    1.7396680000    0.4928640000
| 19> N       -1.1609540000   -2.3480880000   -0.8139810000
| 20> O       -0.5995840000   -3.3685610000   -0.4980320000
| 21> O       -2.2132000000   -2.3096270000   -1.4263610000
| 22> O        1.6826880000   -1.8645260000   -0.6220380000
| 23> H       -2.4966450000   -0.1779510000   -0.3575090000
| 24> H        0.8138770000    2.3304690000    0.8146240000
| 25> *
| 26> 
| 27>                          ****END OF INPUT****
================================================================================

                       ****************************
                       * Single Point Calculation *
                       ****************************

---------------------------------
CARTESIAN COORDINATES (ANGSTROEM)
---------------------------------
  C      1.301453    0.332253    0.245110
  C      0.907641   -0.993610   -0.280290
  C     -0.563508   -1.080541   -0.409627
  C     -1.429252   -0.039266   -0.193501
  C     -0.937514    1.195529    0.246248
  C      0.433055    1.372402    0.464434
  N     -1.849988    2.279630    0.497890
  O     -3.036112    2.088065    0.304335
  O     -1.394746    3.336687    0.892570
  N      2.705444    0.586968    0.544984
  O      3.402233   -0.347889    0.856517
  O      3.097299    1.739668    0.492864
  N     -1.160954   -2.348088   -0.813981
  O     -0.599584   -3.368561   -0.498032
  O     -2.213200   -2.309627   -1.426361
  O      1.682688   -1.864526   -0.622038
  H     -2.496645   -0.177951   -0.357509
  H      0.813877    2.330469    0.814624

----------------------------
CARTESIAN COORDINATES (A.U.)
----------------------------
  NO LB      ZA    FRAG     MASS         X           Y           Z
   0 C     6.0000    0    12.011    2.459390    0.627867    0.463191
   1 C     6.0000    0    12.011    1.715193   -1.877651   -0.529671
   2 C     6.0000    0    12.011   -1.064876   -2.041927   -0.774083
   3 C     6.0000    0    12.011   -2.700895   -0.074202   -0.365664
   4 C     6.0000    0    12.011   -1.771645    2.259222    0.465341
   5 C     6.0000    0    12.011    0.818355    2.593464    0.877653
   6 N     7.0000    0    14.007   -3.495971    4.307876    0.940876
   7 O     8.0000    0    15.999   -5.737420    3.945871    0.575110
   8 O     8.0000    0    15.999   -2.635688    6.305425    1.686713
   9 N     7.0000    0    14.007    5.112548    1.109209    1.029871
  10 O     8.0000    0    15.999    6.429289   -0.657415    1.618583
  11 O     8.0000    0    15.999    5.853047    3.287496    0.931378
  12 N     7.0000    0    14.007   -2.193885   -4.437243   -1.538201
  13 O     8.0000    0    15.999   -1.133050   -6.365658   -0.941144
  14 O     8.0000    0    15.999   -4.182342   -4.364563   -2.695432
  15 O     8.0000    0    15.999    3.179819   -3.523444   -1.175481
  16 H     1.0000    0     1.008   -4.717975   -0.336279   -0.675594
  17 H     1.0000    0     1.008    1.538005    4.403948    1.539416

--------------------------------
INTERNAL COORDINATES (ANGSTROEM)
--------------------------------
 C      0   0   0     0.000000000000     0.00000000     0.00000000
 C      1   0   0     1.479542411056     0.00000000     0.00000000
 C      2   1   0     1.479379747912   110.38916749     0.00000000
 C      3   2   1     1.371304760816   124.70961901     5.67555038
 C      4   3   2     1.399965762321   119.83448840   356.63496628
 C      1   2   3     1.372635437974   124.56998773   354.52014596
 N      5   4   3     1.439169022402   119.77728626   181.21812853
 O      7   5   4     1.216984318151   118.13608942   359.27370177
 O      7   5   4     1.216711585468   118.28975295   179.24876190
 N      1   2   3     1.458079173153   119.07000527   175.30288878
 O     10   1   2     1.206865912626   118.27515768   331.89530512
 O     10   1   2     1.218599247261   117.78028186   153.42890260
 N      3   2   1     1.458464698730   118.85990495   184.71630523
 O     13   3   2     1.206782992601   118.14980680    30.77014565
 O     13   3   2     1.218076416912   117.76287086   209.22775736
 O      2   1   3     1.214900912325   124.92395048   176.53285319
 H      4   3   2     1.088788303454   119.89827685   177.07730057
 H      6   1   2     1.088830018080   119.79433315   182.56095387

---------------------------
INTERNAL COORDINATES (A.U.)
---------------------------
 C      0   0   0     0.000000000000     0.00000000     0.00000000
 C      1   0   0     2.795929960417     0.00000000     0.00000000
 C      2   1   0     2.795622571622   110.38916749     0.00000000
 C      3   2   1     2.591390444085   124.70961901     5.67555038
 C      4   3   2     2.645551887652   119.83448840   356.63496628
 C      1   2   3     2.593905059485   124.56998773   354.52014596
 N      5   4   3     2.719635312763   119.77728626   181.21812853
 O      7   5   4     2.299767070583   118.13608942   359.27370177
 O      7   5   4     2.299251680504   118.28975295   179.24876190
 N      1   2   3     2.755370318833   119.07000527   175.30288878
 O     10   1   2     2.280646055228   118.27515768   331.89530512
 O     10   1   2     2.302818844326   117.78028186   153.42890260
 N      3   2   1     2.756098856591   118.85990495   184.71630523
 O     13   3   2     2.280489359089   118.14980680    30.77014565
 O     13   3   2     2.301830838152   117.76287086   209.22775736
 O      2   1   3     2.295830004146   124.92395048   176.53285319
 H      4   3   2     2.057511711345   119.89827685   177.07730057
 H      6   1   2     2.057590540565   119.79433315   182.56095387

---------------------
BASIS SET INFORMATION
---------------------
There are 4 groups of distinct atoms

 Group   1 Type C   : 7s4p1d contracted to 3s2p1d pattern {511/31/1}
 Group   2 Type N   : 7s4p1d contracted to 3s2p1d pattern {511/31/1}
 Group   3 Type O   : 7s4p1d contracted to 3s2p1d pattern {511/31/1}
 Group   4 Type H   : 4s1p contracted to 2s1p pattern {31/1}

Atom   0C    basis set group =>   1
Atom   1C    basis set group =>   1
Atom   2C    basis set group =>   1
Atom   3C    basis set group =>   1
Atom   4C    basis set group =>   1
Atom   5C    basis set group =>   1
Atom   6N    basis set group =>   2
Atom   7O    basis set group =>   3
Atom   8O    basis set group =>   3
Atom   9N    basis set group =>   2
Atom  10O    basis set group =>   3
Atom  11O    basis set group =>   3
Atom  12N    basis set group =>   2
Atom  13O    basis set group =>   3
Atom  14O    basis set group =>   3
Atom  15O    basis set group =>   3
Atom  16H    basis set group =>   4
Atom  17H    basis set group =>   4
---------------------------------
AUXILIARY/J BASIS SET INFORMATION
---------------------------------
There are 4 groups of distinct atoms

 Group   1 Type C   : 12s5p4d2f1g contracted to 6s4p3d1f1g pattern {711111/2111/211/2/1}
 Group   2 Type N   : 12s5p4d2f1g contracted to 6s4p3d1f1g pattern {711111/2111/211/2/1}
 Group   3 Type O   : 12s5p4d2f1g contracted to 6s4p3d1f1g pattern {711111/2111/211/2/1}
 Group   4 Type H   : 5s2p1d contracted to 3s1p1d pattern {311/2/1}

Atom   0C    basis set group =>   1
Atom   1C    basis set group =>   1
Atom   2C    basis set group =>   1
Atom   3C    basis set group =>   1
Atom   4C    basis set group =>   1
Atom   5C    basis set group =>   1
Atom   6N    basis set group =>   2
Atom   7O    basis set group =>   3
Atom   8O    basis set group =>   3
Atom   9N    basis set group =>   2
Atom  10O    basis set group =>   3
Atom  11O    basis set group =>   3
Atom  12N    basis set group =>   2
Atom  13O    basis set group =>   3
Atom  14O    basis set group =>   3
Atom  15O    basis set group =>   3
Atom  16H    basis set group =>   4
Atom  17H    basis set group =>   4


           ************************************************************
           *        Program running with 64 parallel MPI-processes    *
           *              working on a common directory               *
           ************************************************************
------------------------------------------------------------------------------
                             ORCA STARTUP CALCULATIONS
                           -- RI-GTO INTEGRALS CHOSEN --
------------------------------------------------------------------------------
------------------------------------------------------------------------------
                   ___                                                        
                  /   \      - P O W E R E D   B Y -                         
                 /     \                                                     
                 |  |  |   _    _      __       _____    __    __             
                 |  |  |  | |  | |    /  \     |  _  \  |  |  /  |          
                  \  \/   | |  | |   /    \    | | | |  |  | /  /          
                 / \  \   | |__| |  /  /\  \   | |_| |  |  |/  /          
                |  |  |   |  __  | /  /__\  \  |    /   |      \           
                |  |  |   | |  | | |   __   |  |    \   |  |\   \          
                \     /   | |  | | |  |  |  |  | |\  \  |  | \   \       
                 \___/    |_|  |_| |__|  |__|  |_| \__\ |__|  \__/        
                                                                              
                      - O R C A' S   B I G   F R I E N D -                    
                                      &                                       
                       - I N T E G R A L  F E E D E R -                       
                                                                              
 v1 FN, 2020, v2 2021, v3 2022-2024                                           
------------------------------------------------------------------------------


----------------------
SHARK INTEGRAL PACKAGE
----------------------

Number of atoms                             ...     18
Number of basis functions                   ...    234
Number of shells                            ...    102
Maximum angular momentum                    ...      2
Integral batch strategy                     ... SHARK/LIBINT Hybrid
RI-J (if used) integral strategy            ... SPLIT-RIJ (Revised 2003 algorithm where possible)
Printlevel                                  ...      1
Contraction scheme used                     ... SEGMENTED contraction
Prescreening option                         ... SCHWARTZ
   Thresh                                   ... 1.000e-10
   Tcut                                     ... 1.000e-11
   Tpresel                                  ... 1.000e-11 
Coulomb Range Separation                    ... NOT USED
Exchange Range Separation                   ... NOT USED
Multipole approximations                    ... NOT USED
Finite Nucleus Model                        ... NOT USED
CABS basis                                  ... NOT available
Auxiliary Coulomb fitting basis             ... AVAILABLE
   # of basis functions in Aux-J            ...    806
   # of shells in Aux-J                     ...    250
   Maximum angular momentum in Aux-J        ...      4
Auxiliary J/K fitting basis                 ... NOT available
Auxiliary Correlation fitting basis         ... NOT available
Auxiliary 'external' fitting basis          ... NOT available

Checking pre-screening integrals            ... done (  0.2 sec) Dimension = 102
   => SHARK Basis and OBASIS are compatible. Storing Pre-screening
Shell pair information
Shell pair cut-off parameter TPreSel        ...   1.0e-11
Total number of shell pairs                 ...      5253
Shell pairs after pre-screening             ...      4175
Total number of primitive shell pairs       ...     20717
Primitive shell pairs kept                  ...     10869
          la=0 lb=0:   1062 shell pairs
          la=1 lb=0:   1470 shell pairs
          la=1 lb=1:    525 shell pairs
          la=2 lb=0:    594 shell pairs
          la=2 lb=1:    432 shell pairs
          la=2 lb=2:     92 shell pairs

Checking whether 4 symmetric matrices of dimension 234 fit in memory
:Max Core in MB      =   2109.00
 MB in use           =      8.82
 MB left             =   2100.18
 MB needed           =      0.84
 Data fit in memory  = YES
Calculating RI/J V-Matrix + Cholesky decomp.... done (  0.2 sec)
Calculating Nuclear repulsion               ... done (  0.0 sec) ENN=   1088.446631897991 Eh

Diagonalization of the overlap matrix:
Smallest eigenvalue                        ... 2.633e-04
Time for diagonalization                   ...    0.006 sec
Threshold for overlap eigenvalues          ... 1.000e-07
Number of eigenvalues below threshold      ... 0
Time for construction of square roots      ...    0.008 sec
Total time needed                          ...    0.028 sec

-------------------
DFT GRID GENERATION
-------------------

General Integration Accuracy     IntAcc      ... 4.388
Radial Grid Type                 RadialGrid  ... OptM3 with GC (2021)
Angular Grid (max. ang.)         AngularGrid ... 4 (Lebedev-302)
Angular grid pruning method      GridPruning ... 4 (adaptive)
Weight generation scheme         WeightScheme... mBecke (2022)
Basis function cutoff            BFCut       ... 1.0000e-10
Integration weight cutoff        WCut        ... 1.0000e-14
Partially contracted basis set               ... off
Rotationally invariant grid construction     ... off
Angular grids for H and He will be reduced by one unit

Total number of grid points                  ...   103063
Total number of batches                      ...     1618
Average number of points per batch           ...       63
Average number of grid points per atom       ...     5726

--------------------
COSX GRID GENERATION
--------------------

GRIDX 1
-------
General Integration Accuracy     IntAcc      ... 3.816
Radial Grid Type                 RadialGrid  ... OptM3 with GC (2021)
Angular Grid (max. ang.)         AngularGrid ... 1 (Lebedev-50)
Angular grid pruning method      GridPruning ... 4 (adaptive)
Weight generation scheme         WeightScheme... mBecke (2022)
Basis function cutoff            BFCut       ... 1.0000e-10
Integration weight cutoff        WCut        ... 1.0000e-14
Partially contracted basis set               ... on
Rotationally invariant grid construction     ... off
Angular grids for H and He will be reduced by one unit

Total number of grid points                  ...    12992
Total number of batches                      ...      111
Average number of points per batch           ...      117
Average number of grid points per atom       ...      722
UseSFitting                                  ... on

GRIDX 2
-------
General Integration Accuracy     IntAcc      ... 4.020
Radial Grid Type                 RadialGrid  ... OptM3 with GC (2021)
Angular Grid (max. ang.)         AngularGrid ... 2 (Lebedev-110)
Angular grid pruning method      GridPruning ... 4 (adaptive)
Weight generation scheme         WeightScheme... mBecke (2022)
Basis function cutoff            BFCut       ... 1.0000e-10
Integration weight cutoff        WCut        ... 1.0000e-14
Partially contracted basis set               ... on
Rotationally invariant grid construction     ... off
Angular grids for H and He will be reduced by one unit

Total number of grid points                  ...    30386
Total number of batches                      ...      247
Average number of points per batch           ...      123
Average number of grid points per atom       ...     1688
UseSFitting                                  ... on

GRIDX 3
-------
General Integration Accuracy     IntAcc      ... 4.338
Radial Grid Type                 RadialGrid  ... OptM3 with GC (2021)
Angular Grid (max. ang.)         AngularGrid ... 3 (Lebedev-194)
Angular grid pruning method      GridPruning ... 4 (adaptive)
Weight generation scheme         WeightScheme... mBecke (2022)
Basis function cutoff            BFCut       ... 1.0000e-10
Integration weight cutoff        WCut        ... 1.0000e-14
Partially contracted basis set               ... on
Rotationally invariant grid construction     ... off
Angular grids for H and He will be reduced by one unit

Total number of grid points                  ...    67267
Total number of batches                      ...      533
Average number of points per batch           ...      126
Average number of grid points per atom       ...     3737
UseSFitting                                  ... on
Grids setup in   1.3 sec
Initializing property integral containers    ... done (  0.0 sec)

SHARK setup successfully completed in   2.0 seconds

Maximum memory used throughout the entire STARTUP-calculation: 25.2 MB


           ************************************************************
           *        Program running with 64 parallel MPI-processes    *
           *              working on a common directory               *
           ************************************************************
-------------------------------------------------------------------------------
                                 ORCA GUESS
                   Start orbitals & Density for SCF / CASSCF
-------------------------------------------------------------------------------

------------
SCF SETTINGS
------------
Hamiltonian:
 Density Functional     Method          .... DFT(GTOs)
 Exchange Functional    Exchange        .... M062X
 Correlation Functional Correlation     .... M062X
 Gradients option       PostSCFGGA      .... off
 Hybrid DFT is turned on
   Fraction HF Exchange ScalHFX         ....  0.540000
   Scaling of DF-GGA-X  ScalDFX         ....  0.460000
   Scaling of DF-GGA-C  ScalDFC         ....  1.000000
   Scaling of DF-LDA-C  ScalLDAC        ....  1.000000
   Perturbative correction              ....  0.000000
 RI-approximation to the Coulomb term is turned on
   Number of AuxJ basis functions       .... 806
   RIJ-COSX (HFX calculated with COS-X)).... on


General Settings:
 Integral files         IntName         .... /lustre/project/xlzhang/jingyi/chemsmart/test_pka/orca/pka_scale_frag1_pka_A_sp
 Hartree-Fock type      HFTyp           .... RHF
 Total Charge           Charge          ....   -1
 Multiplicity           Mult            ....    1
 Number of Electrons    NEL             ....  116
 Basis Dimension        Dim             ....  234
 Nuclear Repulsion      ENuc            ....   1088.4466318980 Eh

Convergence Acceleration:
 AO-DIIS                CNVDIIS         .... on
   Start iteration      DIISMaxIt       ....    12
   Startup error        DIISStart       ....  0.200000
   # of expansion vecs  DIISMaxEq       ....     5
   Bias factor          DIISBfac        ....   1.050
   Max. coefficient     DIISMaxC        ....  10.000
 MO-DIIS                CNVKDIIS        .... off
 Trust-Rad. Augm. Hess. CNVTRAH         .... auto
   Auto Start mean grad. ratio tolernc. ....  1.125000
   Auto Start start iteration           ....    50
   Auto Start num. interpolation iter.  ....    10
   Max. Number of Micro iterations      ....    24
   Max. Number of Macro iterations      .... Maxiter - #DIIS iter
   Number of Davidson start vectors     ....     2
   Converg. threshold    (grad. norm)   ....   5.000e-05
   Grad. Scal. Fac. for Micro threshold ....   0.100
   Minimum threshold for Micro iter.    ....   1.000e-02
   NR start threshold (gradient norm)   ....   1.000e-04
   Initial trust radius                 ....   0.400
   Minimum AH scaling param. (alpha)    ....   1.000
   Maximum AH scaling param. (alpha)    .... 1000.000
   Quad. conv. algorithm                .... NR
   White noise on init. David. guess    .... on
   Maximum white noise                  ....   0.010
   Pseudo random numbers                .... off
   Inactive MOs                         .... canonical
   Orbital update algorithm             .... Taylor
   Preconditioner                       .... Diag
   Full preconditioner red. dimension   ....   250
 SOSCF                 CNVSOSCF           .... on
   Start iteration     SOSCFMaxIt         ....   150
   Startup grad/error  SOSCFStart         ....  0.003300
   Hessian update      SOSCFHessUp        .... L-BFGS
   Autom. constraints  SOSCFAutoConstrain .... off
 Level Shifting         CNVShift        .... on
   Level shift para.    LevelShift      ....    0.2500
   Turn off err/grad.   ShiftErr        ....    0.0010
 Zerner damping         CNVZerner       .... off
 Static damping         CNVDamp         .... on
   Fraction old density DampFac         ....    0.7000
   Max. Damping (<1)    DampMax         ....    0.9800
   Min. Damping (>=0)   DampMin         ....    0.0000
   Turn off err/grad.   DampErr         ....    0.1000

SCF Procedure:
 Maximum # iterations   MaxIter         ....   125
 SCF integral mode      SCFMode         .... Direct
   Integral package                     .... SHARK and LIBINT hybrid scheme
 Reset frequency        DirectResetFreq ....    20
 Integral Threshold     Thresh          ....  1.000e-10 Eh
 Primitive CutOff       TCut            ....  1.000e-11 Eh

Convergence Tolerance:
 Convergence Check Mode ConvCheckMode   .... Total+1el-Energy
 Convergence forced     ConvForced      .... 0
 Energy Change          TolE            ....  1.000e-06 Eh
 1-El. energy change                    ....  1.000e-03 Eh
 Orbital Gradient       TolG            ....  5.000e-05
 Orbital Rotation angle TolX            ....  5.000e-05
 DIIS Error             TolErr          ....  1.000e-06

------------------------------
INITIAL GUESS: MODEL POTENTIAL
------------------------------
Loading Hartree-Fock densities                     ... done
Calculating cut-offs                               ... done
Initializing the effective Hamiltonian             ... done
Setting up the integral package (SHARK)            ... done
Starting the Coulomb interaction                   ... done (   0.1 sec)
Making the grid                                    ... done (   0.2 sec)
Mapping shells                                     ... done
Starting the XC term evaluation                    ... done (   0.0 sec)
  promolecular density results
     # of electrons  =    114.999129324
     EX              =   -107.972988313
     EC              =     -3.967657498
     EX+EC           =   -111.940645811
Transforming the Hamiltonian                       ... done (   0.0 sec)
Diagonalizing the Hamiltonian                      ... done (   0.0 sec)
Back transforming the eigenvectors                 ... done (   0.0 sec)
Now organizing SCF variables                       ... done
                      ------------------
                      INITIAL GUESS DONE (   0.4 sec)
                      ------------------
             **** ENERGY FILE WAS UPDATED (/lustre/project/xlzhang/jingyi/chemsmart/test_pka/orca/pka_scale_frag1_pka_A_sp.en.tmp) ****
Finished Guess after   2.4 sec
Maximum memory used throughout the entire GUESS-calculation: 11.6 MB


           ************************************************************
           *        Program running with 64 parallel MPI-processes    *
           *              working on a common directory               *
           ************************************************************

-------------------------------------------------------------------------------------------
                                      ORCA LEAN-SCF
                              memory conserving SCF solver
-------------------------------------------------------------------------------------------

--------------------
CPCM SOLVATION MODEL
--------------------
CPCM parameters:
  Epsilon                                         ...      80.1510
  Refrac                                          ...       1.3328
  Rsolv                                           ...       1.3000
  Surface type                                    ... GAUSSIAN VDW
  Discretization scheme                           ... Constant charge density
    Threshold for H atoms                         ...       5.0000 (charges/Ang^2)
    Threshold for non-H atoms                     ...       5.0000 (charges/Ang^2)
  Epsilon function type                           ...         CPCM
Solvent:                                          ... WATER
Radii:
  Scheme                                          ... Element-dependent radii
  Radius for C  used is    3.8550 Bohr (=   2.0400 Ang.)
  Radius for N  used is    3.5149 Bohr (=   1.8600 Ang.)
  Radius for O  used is    3.4469 Bohr (=   1.8240 Ang.)
  Radius for H  used is    2.4944 Bohr (=   1.3200 Ang.)
Calculating surface                               ...        done! (  0.0s)
Cavity surface points                             ...         1735
Cavity Volume                                     ...    1484.7432
Cavity Surface-area                               ...     805.4151
Calculating surface distance matrix               ...        done! (  0.0s)
Performing Cholesky decomposition & store         ...        done! (  0.1s)
Overall time for CPCM initialization              ...                 0.1s

----------------------------------------D-I-I-S--------------------------------------------
Iteration    Energy (Eh)           Delta-E    RMSDP     MaxDP     DIISErr   Damp  Time(sec)
-------------------------------------------------------------------------------------------
               ***  Starting incremental Fock matrix formation  ***
    1    -919.0073396153084104     0.00e+00  3.43e-02  8.80e-02  2.76e-01  0.700   0.8
    2    -919.2266213032094129    -2.19e-01  2.28e-02  6.65e-02  1.30e-01  0.700   0.6
                               ***Turning on AO-DIIS***
    3    -919.3117917148724700    -8.52e-02  8.92e-03  1.88e-02  4.59e-02  0.700   0.6
    4    -919.3651380983922081    -5.33e-02  1.56e-02  3.43e-02  2.52e-02  0.000   0.6
    5    -919.4846026965703913    -1.19e-01  2.85e-03  8.93e-03  5.02e-03  0.000   0.5
                              *** Initializing SOSCF ***
---------------------------------------S-O-S-C-F--------------------------------------
Iteration    Energy (Eh)           Delta-E    RMSDP     MaxDP     MaxGrad    Time(sec)
--------------------------------------------------------------------------------------
    6    -919.4849663233817409    -3.64e-04  1.21e-03  4.00e-03  1.25e-03     0.6
               *** Restarting incremental Fock matrix formation ***
    7    -919.4850690086043414    -1.03e-04  7.01e-04  1.86e-03  1.21e-03     0.5
    8    -919.4850909025283272    -2.19e-05  8.44e-04  2.70e-03  3.42e-04     0.7
    9    -919.4850932036902122    -2.30e-06  3.49e-04  1.21e-03  2.81e-04     0.6
   10    -919.4850963242017770    -3.12e-06  5.32e-05  1.40e-04  3.04e-05     1.0
   11    -919.4850963479977963    -2.38e-08  2.35e-05  6.36e-05  3.06e-05     0.6
                 **** Energy Check signals convergence ****

               *****************************************************
               *                     SUCCESS                       *
               *           SCF CONVERGED AFTER  11 CYCLES          *
               *****************************************************

Recomputing exchange energy using gridx3       ... done (    0.252 sec)
Old exchange energy                            :    -58.918620315 Eh
New exchange energy                            :    -58.918664112 Eh
Exchange energy change after final integration :     -0.000043797 Eh
Total energy after final integration           :   -919.485140199 Eh
             **** ENERGY FILE WAS UPDATED (/lustre/project/xlzhang/jingyi/chemsmart/test_pka/orca/pka_scale_frag1_pka_A_sp.en.tmp) ****

----------------
TOTAL SCF ENERGY
----------------

Total Energy       :       -919.48514019879030 Eh          -25020.46268 eV

Components:
Nuclear Repulsion  :       1088.44663189799076 Eh           29618.13861 eV
Electronic Energy  :      -2007.85547948396015 Eh          -54636.52526 eV
One Electron Energy:      -3435.21323055341418 Eh          -93476.90428 eV
Two Electron Energy:       1427.35775106945403 Eh           38840.37901 eV
CPCM Dielectric    :         -0.07624881623978 Eh              -2.07484 eV

Virial components:
Potential Energy   :      -1832.46895506174815 Eh          -49864.01530 eV
Kinetic Energy     :        912.98381486295773 Eh           24843.55262 eV
Virial Ratio       :          2.00712096450123

DFT components:
N(Alpha)           :       57.999987249678 electrons
N(Beta)            :       57.999987249678 electrons
N(Total)           :      115.999974499356 electrons
E(XC)              :      -54.934947562229 Eh       

CPCM Solvation Model Properties:
Surface-charge          :          0.99231186056672
Corrected charge        :          1.00000000000000
Outlying charge corr.   :          0.00000376805268 Eh               0.00010 eV
Free-energy (cav+disp)  :  This term is not implemented in the current solvation scheme

---------------
SCF CONVERGENCE
---------------

  Last Energy change         ...    2.3796e-08  Tolerance :   1.0000e-06
  Last MAX-Density change    ...    6.3624e-05  Tolerance :   1.0000e-05
  Last RMS-Density change    ...    2.3509e-05  Tolerance :   1.0000e-06
  Last DIIS Error            ...    1.2535e-03  Tolerance :   1.0000e-06
  Last Orbital Gradient      ...    3.0640e-05  Tolerance :   5.0000e-05
  Last Orbital Rotation      ...    5.4082e-05  Tolerance :   5.0000e-05


----------------
ORBITAL ENERGIES
----------------

  NO   OCC          E(Eh)            E(eV) 
   0   2.0000     -19.664939      -535.1102 
   1   2.0000     -19.664201      -535.0901 
   2   2.0000     -19.660777      -534.9969 
   3   2.0000     -19.660672      -534.9941 
   4   2.0000     -19.660619      -534.9927 
   5   2.0000     -19.659726      -534.9683 
   6   2.0000     -19.604759      -533.4726 
   7   2.0000     -15.006324      -408.3428 
   8   2.0000     -15.006000      -408.3340 
   9   2.0000     -15.005642      -408.3243 
  10   2.0000     -10.653676      -289.9013 
  11   2.0000     -10.606119      -288.6072 
  12   2.0000     -10.605902      -288.6013 
  13   2.0000     -10.605831      -288.5993 
  14   2.0000     -10.598777      -288.4074 
  15   2.0000     -10.598710      -288.4056 
  16   2.0000      -1.360167       -37.0120 
  17   2.0000      -1.359441       -36.9923 
  18   2.0000      -1.357069       -36.9277 
  19   2.0000      -1.170439       -31.8493 
  20   2.0000      -1.168888       -31.8071 
  21   2.0000      -1.166240       -31.7350 
  22   2.0000      -1.141711       -31.0675 
  23   2.0000      -0.993551       -27.0359 
  24   2.0000      -0.926808       -25.2197 
  25   2.0000      -0.913233       -24.8503 
  26   2.0000      -0.814226       -22.1562 
  27   2.0000      -0.792224       -21.5575 
  28   2.0000      -0.755288       -20.5524 
  29   2.0000      -0.670508       -18.2454 
  30   2.0000      -0.670185       -18.2367 
  31   2.0000      -0.653338       -17.7782 
  32   2.0000      -0.637963       -17.3599 
  33   2.0000      -0.632768       -17.2185 
  34   2.0000      -0.629206       -17.1216 
  35   2.0000      -0.612954       -16.6793 
  36   2.0000      -0.608699       -16.5635 
  37   2.0000      -0.607383       -16.5277 
  38   2.0000      -0.592123       -16.1125 
  39   2.0000      -0.589985       -16.0543 
  40   2.0000      -0.556128       -15.1330 
  41   2.0000      -0.553797       -15.0696 
  42   2.0000      -0.497397       -13.5349 
  43   2.0000      -0.489073       -13.3083 
  44   2.0000      -0.478520       -13.0212 
  45   2.0000      -0.423562       -11.5257 
  46   2.0000      -0.403546       -10.9810 
  47   2.0000      -0.401044       -10.9130 
  48   2.0000      -0.391965       -10.6659 
  49   2.0000      -0.386922       -10.5287 
  50   2.0000      -0.379929       -10.3384 
  51   2.0000      -0.379776       -10.3342 
  52   2.0000      -0.379276       -10.3206 
  53   2.0000      -0.378879       -10.3098 
  54   2.0000      -0.377724       -10.2784 
  55   2.0000      -0.343233        -9.3398 
  56   2.0000      -0.322386        -8.7726 
  57   2.0000      -0.272393        -7.4122 
  58   0.0000      -0.051730        -1.4076 
  59   0.0000      -0.040997        -1.1156 
  60   0.0000      -0.016361        -0.4452 
  61   0.0000       0.052942         1.4406 
  62   0.0000       0.072870         1.9829 
  63   0.0000       0.128706         3.5023 
  64   0.0000       0.167373         4.5545 
  65   0.0000       0.179186         4.8759 
  66   0.0000       0.205729         5.5982 
  67   0.0000       0.226258         6.1568 
  68   0.0000       0.247780         6.7424 
*Only the first 10 virtual orbitals were printed.

                    ********************************
                    * MULLIKEN POPULATION ANALYSIS *
                    ********************************

-----------------------
MULLIKEN ATOMIC CHARGES
-----------------------
   0 C :   -0.054613
   1 C :    0.221215
   2 C :   -0.057141
   3 C :    0.024552
   4 C :    0.069083
   5 C :    0.020253
   6 N :    0.260129
   7 O :   -0.314733
   8 O :   -0.313731
   9 N :    0.253295
  10 O :   -0.283782
  11 O :   -0.316090
  12 N :    0.253572
  13 O :   -0.282944
  14 O :   -0.314010
  15 O :   -0.272673
  16 H :    0.053807
  17 H :    0.053813
Sum of atomic charges:   -1.0000000

--------------------------------
MULLIKEN REDUCED ORBITAL CHARGES
--------------------------------
  0 C s       :     3.091250  s :     3.091250
      pz      :     1.165501  p :     2.924075
      px      :     0.816599
      py      :     0.941976
      dz2     :     0.004495  d :     0.039288
      dxz     :     0.005258
      dyz     :     0.005330
      dx2y2   :     0.015317
      dxy     :     0.008887

  1 C s       :     2.992594  s :     2.992594
      pz      :     0.857364  p :     2.688706
      px      :     0.927334
      py      :     0.904008
      dz2     :     0.009355  d :     0.097485
      dxz     :     0.014533
      dyz     :     0.016939
      dx2y2   :     0.040423
      dxy     :     0.016236

  2 C s       :     3.091407  s :     3.091407
      pz      :     1.163573  p :     2.926404
      px      :     0.955847
      py      :     0.806984
      dz2     :     0.004102  d :     0.039330
      dxz     :     0.004841
      dyz     :     0.005672
      dx2y2   :     0.012553
      dxy     :     0.012162

  3 C s       :     3.312713  s :     3.312713
      pz      :     0.876607  p :     2.628702
      px      :     0.784986
      py      :     0.967110
      dz2     :     0.003935  d :     0.034033
      dxz     :     0.003824
      dyz     :     0.008724
      dx2y2   :     0.008580
      dxy     :     0.008970

  4 C s       :     2.992338  s :     2.992338
      pz      :     1.166401  p :     2.895187
      px      :     0.853016
      py      :     0.875771
      dz2     :     0.005011  d :     0.043391
      dxz     :     0.006341
      dyz     :     0.005317
      dx2y2   :     0.009902
      dxy     :     0.016821

  5 C s       :     3.315933  s :     3.315933
      pz      :     0.870197  p :     2.629784
      px      :     0.957972
      py      :     0.801615
      dz2     :     0.002625  d :     0.034030
      dxz     :     0.009311
      dyz     :     0.004143
      dx2y2   :     0.008942
      dxy     :     0.009009

  6 N s       :     3.294118  s :     3.294118
      pz      :     1.133133  p :     3.325094
      px      :     1.082588
      py      :     1.109373
      dz2     :     0.010087  d :     0.120659
      dxz     :     0.023582
      dyz     :     0.015381
      dx2y2   :     0.031244
      dxy     :     0.040365

  7 O s       :     3.855351  s :     3.855351
      pz      :     1.494460  p :     4.436240
      px      :     1.141828
      py      :     1.799952
      dz2     :     0.002889  d :     0.023142
      dxz     :     0.006929
      dyz     :     0.000254
      dx2y2   :     0.008115
      dxy     :     0.004955

  8 O s       :     3.854910  s :     3.854910
      pz      :     1.434647  p :     4.435660
      px      :     1.746976
      py      :     1.254038
      dz2     :     0.003296  d :     0.023161
      dxz     :     0.001567
      dyz     :     0.006576
      dx2y2   :     0.005687
      dxy     :     0.006036

  9 N s       :     3.315941  s :     3.315941
      pz      :     1.131779  p :     3.309440
      px      :     1.152878
      py      :     1.024783
      dz2     :     0.007703  d :     0.121325
      dxz     :     0.009971
      dyz     :     0.029463
      dx2y2   :     0.040493
      dxy     :     0.033695

 10 O s       :     3.855173  s :     3.855173
      pz      :     1.405961  p :     4.404649
      px      :     1.588262
      py      :     1.410426
      dz2     :     0.003192  d :     0.023960
      dxz     :     0.002943
      dyz     :     0.005214
      dx2y2   :     0.004564
      dxy     :     0.008048

 11 O s       :     3.859776  s :     3.859776
      pz      :     1.504677  p :     4.433332
      px      :     1.746017
      py      :     1.182639
      dz2     :     0.002787  d :     0.022981
      dxz     :     0.000866
      dyz     :     0.006001
      dx2y2   :     0.007354
      dxy     :     0.005973

 12 N s       :     3.317459  s :     3.317459
      pz      :     1.105391  p :     3.307562
      px      :     1.082337
      py      :     1.119834
      dz2     :     0.017324  d :     0.121407
      dxz     :     0.017492
      dyz     :     0.021225
      dx2y2   :     0.031902
      dxy     :     0.033464

 13 O s       :     3.855806  s :     3.855806
      pz      :     1.495434  p :     4.403163
      px      :     1.583899
      py      :     1.323829
      dz2     :     0.003101  d :     0.023975
      dxz     :     0.001670
      dyz     :     0.006117
      dx2y2   :     0.005417
      dxy     :     0.007670

 14 O s       :     3.860116  s :     3.860116
      pz      :     1.370387  p :     4.430864
      px      :     1.202506
      py      :     1.857971
      dz2     :     0.004185  d :     0.023030
      dxz     :     0.008154
      dyz     :     0.001138
      dx2y2   :     0.006369
      dxy     :     0.003184

 15 O s       :     3.688796  s :     3.688796
      pz      :     1.444658  p :     4.565189
      px      :     1.607944
      py      :     1.512588
      dz2     :     0.002477  d :     0.018688
      dxz     :     0.003006
      dyz     :     0.003323
      dx2y2   :     0.003806
      dxy     :     0.006076

 16 H s       :     0.922619  s :     0.922619
      pz      :     0.003317  p :     0.023575
      px      :     0.017402
      py      :     0.002856

 17 H s       :     0.922615  s :     0.922615
      pz      :     0.004319  p :     0.023571
      px      :     0.004555
      py      :     0.014697



                     *******************************
                     * LOEWDIN POPULATION ANALYSIS *
                     *******************************

----------------------
LOEWDIN ATOMIC CHARGES
----------------------
   0 C :   -0.104223
   1 C :    0.031723
   2 C :   -0.102627
   3 C :    0.033331
   4 C :   -0.106490
   5 C :    0.033814
   6 N :    0.300428
   7 O :   -0.265521
   8 O :   -0.265127
   9 N :    0.298124
  10 O :   -0.237061
  11 O :   -0.267435
  12 N :    0.298103
  13 O :   -0.235910
  14 O :   -0.265441
  15 O :   -0.260739
  16 H :    0.057587
  17 H :    0.057463

-------------------------------
LOEWDIN REDUCED ORBITAL CHARGES
-------------------------------
  0 C s       :     2.872654  s :     2.872654
      pz      :     1.130500  p :     3.122672
      px      :     0.904052
      py      :     1.088119
      dz2     :     0.010389  d :     0.108897
      dxz     :     0.012812
      dyz     :     0.012373
      dx2y2   :     0.044289
      dxy     :     0.029034

  1 C s       :     2.847731  s :     2.847731
      pz      :     0.874781  p :     2.885365
      px      :     1.019054
      py      :     0.991530
      dz2     :     0.020355  d :     0.235180
      dxz     :     0.030283
      dyz     :     0.037293
      dx2y2   :     0.101829
      dxy     :     0.045420

  2 C s       :     2.872844  s :     2.872844
      pz      :     1.121386  p :     3.120748
      px      :     1.059231
      py      :     0.940131
      dz2     :     0.009735  d :     0.109035
      dxz     :     0.010866
      dyz     :     0.013394
      dx2y2   :     0.038077
      dxy     :     0.036962

  3 C s       :     2.862626  s :     2.862626
      pz      :     0.896399  p :     3.010528
      px      :     1.072639
      py      :     1.041491
      dz2     :     0.009384  d :     0.093515
      dxz     :     0.007903
      dyz     :     0.020516
      dx2y2   :     0.028470
      dxy     :     0.027242

  4 C s       :     2.839326  s :     2.839326
      pz      :     1.152712  p :     3.147160
      px      :     1.010464
      py      :     0.983984
      dz2     :     0.011214  d :     0.120004
      dxz     :     0.014835
      dyz     :     0.012532
      dx2y2   :     0.032388
      dxy     :     0.049036

  5 C s       :     2.862817  s :     2.862817
      pz      :     0.899357  p :     3.009914
      px      :     1.056392
      py      :     1.054165
      dz2     :     0.006499  d :     0.093455
      dxz     :     0.021345
      dyz     :     0.009108
      dx2y2   :     0.028498
      dxy     :     0.028005

  6 N s       :     3.039889  s :     3.039889
      pz      :     1.097072  p :     3.408239
      px      :     1.151942
      py      :     1.159225
      dz2     :     0.019609  d :     0.251443
      dxz     :     0.043471
      dyz     :     0.029219
      dx2y2   :     0.070967
      dxy     :     0.088177

  7 O s       :     3.609975  s :     3.609975
      pz      :     1.504216  p :     4.612415
      px      :     1.312699
      py      :     1.795501
      dz2     :     0.006240  d :     0.043131
      dxz     :     0.010018
      dyz     :     0.000452
      dx2y2   :     0.018259
      dxy     :     0.008162

  8 O s       :     3.609834  s :     3.609834
      pz      :     1.459663  p :     4.612123
      px      :     1.761152
      py      :     1.391308
      dz2     :     0.005672  d :     0.043170
      dxz     :     0.002713
      dyz     :     0.011398
      dx2y2   :     0.011669
      dxy     :     0.011718

  9 N s       :     3.043008  s :     3.043008
      pz      :     1.093452  p :     3.405440
      px      :     1.183669
      py      :     1.128318
      dz2     :     0.016084  d :     0.253428
      dxz     :     0.017996
      dyz     :     0.053479
      dx2y2   :     0.090674
      dxy     :     0.075196

 10 O s       :     3.606763  s :     3.606763
      pz      :     1.430625  p :     4.585641
      px      :     1.644483
      py      :     1.510533
      dz2     :     0.006063  d :     0.044657
      dxz     :     0.004772
      dyz     :     0.008433
      dx2y2   :     0.007769
      dxy     :     0.017621

 11 O s       :     3.612831  s :     3.612831
      pz      :     1.512428  p :     4.611641
      px      :     1.759546
      py      :     1.339668
      dz2     :     0.006434  d :     0.042962
      dxz     :     0.001111
      dyz     :     0.008233
      dx2y2   :     0.014918
      dxy     :     0.012266

 12 N s       :     3.043006  s :     3.043006
      pz      :     1.103321  p :     3.405234
      px      :     1.125988
      py      :     1.175925
      dz2     :     0.030899  d :     0.253656
      dxz     :     0.038598
      dyz     :     0.041653
      dx2y2   :     0.069299
      dxy     :     0.073208

 13 O s       :     3.606863  s :     3.606863
      pz      :     1.512682  p :     4.584356
      px      :     1.616993
      py      :     1.454681
      dz2     :     0.006092  d :     0.044691
      dxz     :     0.002989
      dyz     :     0.009786
      dx2y2   :     0.010527
      dxy     :     0.015296

 14 O s       :     3.612822  s :     3.612822
      pz      :     1.426461  p :     4.609562
      px      :     1.336216
      py      :     1.846886
      dz2     :     0.005762  d :     0.043056
      dxz     :     0.017201
      dyz     :     0.001802
      dx2y2   :     0.013011
      dxy     :     0.005279

 15 O s       :     3.538402  s :     3.538402
      pz      :     1.456789  p :     4.691512
      px      :     1.660236
      py      :     1.574487
      dz2     :     0.004031  d :     0.030826
      dxz     :     0.004290
      dyz     :     0.005079
      dx2y2   :     0.006097
      dxy     :     0.011328

 16 H s       :     0.868136  s :     0.868136
      pz      :     0.012046  p :     0.074276
      px      :     0.049421
      py      :     0.012810

 17 H s       :     0.868124  s :     0.868124
      pz      :     0.014764  p :     0.074413
      px      :     0.017427
      py      :     0.042222



                      *****************************
                      * MAYER POPULATION ANALYSIS *
                      *****************************

  NA   - Mulliken gross atomic population
  ZA   - Total nuclear charge
  QA   - Mulliken gross atomic charge
  VA   - Mayer's total valence
  BVA  - Mayer's bonded valence
  FA   - Mayer's free valence

  ATOM       NA         ZA         QA         VA         BVA        FA
  0 C      6.0546     6.0000    -0.0546     3.5966     3.5966    -0.0000
  1 C      5.7788     6.0000     0.2212     4.2289     4.2289    -0.0000
  2 C      6.0571     6.0000    -0.0571     3.6013     3.6013    -0.0000
  3 C      5.9754     6.0000     0.0246     3.8481     3.8481     0.0000
  4 C      5.9309     6.0000     0.0691     3.7209     3.7209    -0.0000
  5 C      5.9797     6.0000     0.0203     3.8465     3.8465    -0.0000
  6 N      6.7399     7.0000     0.2601     3.9941     3.9941    -0.0000
  7 O      8.3147     8.0000    -0.3147     1.8698     1.8698    -0.0000
  8 O      8.3137     8.0000    -0.3137     1.8702     1.8702    -0.0000
  9 N      6.7467     7.0000     0.2533     3.9888     3.9888     0.0000
 10 O      8.2838     8.0000    -0.2838     1.8835     1.8835    -0.0000
 11 O      8.3161     8.0000    -0.3161     1.8605     1.8605    -0.0000
 12 N      6.7464     7.0000     0.2536     3.9846     3.9846    -0.0000
 13 O      8.2829     8.0000    -0.2829     1.8836     1.8836    -0.0000
 14 O      8.3140     8.0000    -0.3140     1.8605     1.8605     0.0000
 15 O      8.2727     8.0000    -0.2727     2.2678     2.2678    -0.0000
 16 H      0.9462     1.0000     0.0538     1.0368     1.0368     0.0000
 17 H      0.9462     1.0000     0.0538     1.0378     1.0378    -0.0000

  Mayer bond orders larger than 0.100000
B(  0-C ,  1-C ) :   1.0023 B(  0-C ,  5-C ) :   1.4646 B(  0-C ,  9-N ) :   0.8786 
B(  1-C ,  2-C ) :   1.0047 B(  1-C , 15-O ) :   2.1446 B(  2-C ,  3-C ) :   1.4709 
B(  2-C , 12-N ) :   0.8749 B(  3-C ,  4-C ) :   1.2748 B(  3-C , 16-H ) :   0.9776 
B(  4-C ,  5-C ) :   1.2789 B(  4-C ,  6-N ) :   0.9096 B(  5-C , 17-H ) :   0.9776 
B(  6-N ,  7-O ) :   1.5202 B(  6-N ,  8-O ) :   1.5209 B(  7-O ,  8-O ) :   0.2148 
B(  9-N , 10-O ) :   1.5508 B(  9-N , 11-O ) :   1.5125 B( 10-O , 11-O ) :   0.2300 
B( 12-N , 13-O ) :   1.5503 B( 12-N , 14-O ) :   1.5137 B( 13-O , 14-O ) :   0.2317 


-------
TIMINGS
-------

Total SCF time: 0 days 0 hours 0 min 10 sec 

Total time                  ....      10.198 sec
Sum of individual times     ....       9.612 sec  ( 94.3%)

SCF preparation             ....       2.159 sec  ( 21.2%)
Fock matrix formation       ....       6.724 sec  ( 65.9%)
  Startup                   ....       0.159 sec  (  2.4% of F)
  Split-RI-J                ....       0.525 sec  (  7.8% of F)
  Chain of spheres X        ....       1.654 sec  ( 24.6% of F)
  XC integration            ....       2.588 sec  ( 38.5% of F)
    XC Preparation          ....       0.000 sec  (  0.0% of XC)
    Basis function eval.    ....       0.040 sec  (  1.6% of XC)
    Density eval.           ....       0.079 sec  (  3.0% of XC)
    XC-Functional eval.     ....       0.016 sec  (  0.6% of XC)
    XC-Potential eval.      ....       0.082 sec  (  3.2% of XC)
  CPCM terms                ....       0.912 sec  ( 13.6% of F)
Diagonalization             ....       0.000 sec  (  0.0%)
Density matrix formation    ....       0.171 sec  (  1.7%)
Total Energy calculation    ....       0.062 sec  (  0.6%)
Population analysis         ....       0.057 sec  (  0.6%)
Orbital Transformation      ....       0.057 sec  (  0.6%)
Orbital Orthonormalization  ....       0.000 sec  (  0.0%)
DIIS solution               ....       0.226 sec  (  2.2%)
SOSCF solution              ....       0.157 sec  (  1.5%)
Finished LeanSCF after  10.5 sec

Maximum memory used throughout the entire LEANSCF-calculation: 18.8 MB

-------------------------   --------------------
FINAL SINGLE POINT ENERGY      -919.485140198790
-------------------------   --------------------



           ************************************************************
           *        Program running with 64 parallel MPI-processes    *
           *              working on a common directory               *
           ************************************************************

------------------------------------------------------------------------------
                              ORCA PROPERTY CALCULATIONS
------------------------------------------------------------------------------

GBWName                                 ... /lustre/project/xlzhang/jingyi/chemsmart/test_pka/orca/pka_scale_frag1_pka_A_sp.gbw
Number of atoms                         ...     18
Number of basis functions               ...    234
Max core memory                         ...   2109 MB

Electric properties:
Dipole moment                           ... YES
Quadrupole moment                       ...  NO
Static polarizability (Dipole/Dipole)   ...  NO
Static polarizability (Dipole/Quad.)    ...  NO
Static polarizability (Quad./Quad.)     ...  NO
Static polarizability (Velocity)        ...  NO
Static hyperpolarizability              ...  NO

Atomic electric properties:
Dipole moment                           ...  NO
Quadrupole moment                       ...  NO
Static polarizability                   ...  NO

Choice of electric origin               ... Center of mass
Position of electric origin             ...     0.046232     0.060182     0.037562

General magnetic properties:
Magnetizability                         ...  NO

EPR properties:
g-Tensor (aka g-matrix)                 ...  NO
Zero-Field splitting spin-orbit         ...  NO
Zero-field splitting spin-spin          ...  NO
Hyperfine couplings                     ...  NO (   0 nuclei)
Quadrupole couplings                    ...  NO (   0 nuclei)
Contact density                         ...  NO (   0 nuclei)

NMR properties:
Chemical shifts                         ...  NO (   0 nuclei)
Spin-rotation constants                 ...  NO (   0 nuclei)
Spin-spin couplings                     ...  NO (   0 nuclei,    0 pairs)

Choice of magnetic origin               ... GIAO
Position of magnetic origin             ...     0.000000     0.000000     0.000000

Properties with geometric perturbations:
SCF Hessian                             ...  NO
IR spectrum                             ...  NO
VCD spectrum                            ...  NO
X-ray spectroscopy properties:
SCF XES/XAS/RIXS spectra                ...  NO

SCF SOC stabilization energy            ...  NO
Diagonal Born-Oppenheimer correction    ...  NO

-------------
DIPOLE MOMENT
-------------

Method             : SCF
Type of density    : Electron Density
Multiplicity       :   1
Irrep              :   0
Energy             :  -919.4851401987903046 Eh
Basis              : AO
                                X                 Y                 Z
Electronic contribution:      0.624537847      -0.819454201      -0.077505070
Nuclear contribution   :     -1.615375882       1.947977937       0.390430610
                        -----------------------------------------
Total Dipole Moment    :     -0.990838035       1.128523736       0.312925540
                        -----------------------------------------
Magnitude (a.u.)       :      1.534030060
Magnitude (Debye)      :      3.899194540



--------------------
Rotational spectrum 
--------------------
 
Rotational constants in cm-1:             0.018468             0.017880             0.009243 
Rotational constants in MHz :           553.650592           536.033871           277.088329 

Dipole components along the rotational axes: 
x,y,z [a.u.] :    -1.529372    -0.039797     0.112629 
x,y,z [Debye]:    -3.887355    -0.101157     0.286280 

 

Dipole moment calculation done in   0.0 sec 

Maximum memory used throughout the entire PROP-calculation: 10.4 MB

--------------------------------
SUGGESTED CITATIONS FOR THIS RUN
--------------------------------

Below you find a list of papers that are relevant to this ORCA run
We neither can nor want to force you to cite these papers, but we appreciate if you do
You receive ORCA, which is the product of decades of hard work by many enthusiastic individuals, for free
The only thing we kindly ask in return is that you cite our papers,
We deeply appreciate it, if you show your appreciation for ORCA by not just citing the generic ORCA reference.

Please note that relegating all ORCA citations to the supporting information does *not* help us.
SI sections are not indexed - citations you put there will not count into any citation statistics
But we need these citations in order to attract the funding resources that allow us to do what we are doing

Therefore, if you are a happy ORCA user, please consider citing a few of the papers listed below in the main body of your paper

In addition to the list printed below, the program has created the file /lustre/project/xlzhang/jingyi/chemsmart/test_pka/orca/pka_scale_frag1_pka_A_sp.bibtex that contains the list in bibtex format
You can import this file easily into all common literature databanks and citation aid programs


List of essential papers. We consider these as the minimum necessary citations

  1. Neese, F.
     Software update: the ORCA program system, version 6.0
     WIRES Comput. Molec. Sci. 2025 15(1), e70019
     doi.org/10.1002/wcms.7019

List of papers to cite with high priority. The work reported in these papers was absolutely
necessary for this run to complete.
Our perspective: the developers of density functionals and basis sets usually get cited in chemistry papers
Good! But without the algorithms to do something with them, the functionals or basis sets would not do anything.
Hence, in our opinion, the algorithm design and method developments papers are equally worthy of getting cited

  1. Neese, F.
     An improvement of the resolution of the identity approximation for the formation of the Coulomb matrix
     J. Comp. Chem. 2003 24(14), 1740-1747
     doi.org/10.1002/jcc.10318
  2. Neese, F.; Wennmohs, F.; Hansen, A.; Becker, U.
     Efficient, approximate and parallel Hartree-Fock and hybrid DFT calculations. A 'chain-of-spheres' algorithm for the Hartree-Fock exchange
     Chem. Phys. 2009 356(1-3), 98-109
     doi.org/10.1016/j.chemphys.2008.10.036
  3. Garcia-Rates, M.; Neese, F.
     Effect of the Solute Cavity on the Solvation Energy and its Derivatives within the Framework of the Gaussian Charge Scheme
     J. Comput. Chem. 2020 41 , 922-939
     doi.org/10.1002/jcc.26139
  4. Helmich-Paris, B.; de Souza, B.; Neese, F.; Izsák, R.
     An improved chain of spheres for exchange algorithm
     J. Chem. Phys. 2021 155(10), 104109
     doi.org/10.1063/5.0058766
  5. Neese, F.
     The SHARK Integral Generation and Digestion System
     J. Comp. Chem. 2022 44(3), 381
     doi.org/10.1002/jcc.26942

List of suggested additional citations. These are papers that are important in the 'surrounding' of 
of this run, or papers that preceded the highly important papers. If you like your results we are grateful for a citation.

  1. Izsak, R.; Neese, F.
     An overlap fitted chain of spheres exchange method
     J. Chem. Phys. 2011 135 , 144105
     doi.org/10.1063/1.3646921
  2. Izsak, R.; Hansen, A.; Neese, F.
     The resolution of identity and chain of spheres approximations for the LPNO-CCSD singles Fock term
     Molec. Phys. 2012 110 , 2413-2417
     doi.org/10.1080/00268976.2012.687466
  3. Neese, F.
     The ORCA program system
     WIRES Comput. Molec. Sci. 2012 2(1), 73-78
     doi.org/10.1002/wcms.81
  4. Izsak, R.; Neese, F.; Klopper, W.
     Robust fitting techniques in the chain of spheres approximation to the Fock exchange: The role of the complementary space
     J. Chem. Phys. 2013 139 , 
     doi.org/10.1063/1.4819264
  5. Neese, F.
     Software update: the ORCA program system, version 4.0
     WIRES Comput. Molec. Sci. 2018 8(1), 1-6
     doi.org/10.1002/wcms.1327
  6. Neese, F.; Wennmohs, F.; Becker, U.; Riplinger, C.
     The ORCA quantum chemistry program package
     J. Chem. Phys. 2020 152(22), 224108
     doi.org/10.1063/5.0004608
  7. Neese, F.
     Software update: The ORCA program system—Version 5.0
     WIRES Comput. Molec. Sci. 2022 12(1), e1606
     doi.org/10.1002/wcms.1606

List of optional additional citations

  1. Neese, F.
     Approximate second-order SCF convergence for spin unrestricted wavefunctions
     Chem. Phys. Lett. 2000 325(1-3), 93-98
     doi.org/10.1016/s0009-2614(00)00662-x

Timings for individual modules:

Sum of individual times          ...       20.333 sec (=   0.339 min)
Startup calculation              ...        4.219 sec (=   0.070 min)  20.8 %
SCF iterations                   ...       13.894 sec (=   0.232 min)  68.3 %
Property calculations            ...        2.220 sec (=   0.037 min)  10.9 %
                             ****ORCA TERMINATED NORMALLY****
TOTAL RUN TIME: 0 days 0 hours 0 minutes 28 seconds 97 msec
