 Entering Gaussian System, Link 0=/project/xlzhang/shared/bin/g16/g16
 Input=/lustre/project/xlzhang/jingyi/chemsmart/test_pka/gaussian/pka_scale_frag2_pka_A_sp.com
 Output=/lustre/project/xlzhang/jingyi/chemsmart/test_pka/gaussian/pka_scale_frag2_pka_A_sp.log
 Initial command:
 /project/xlzhang/shared/bin/g16/l1.exe "/lustre/project/xlzhang/jingyi/chemsmart/test_pka/gaussian/Gau-732687.inp" -scrdir="/lustre/project/xlzhang/jingyi/chemsmart/test_pka/gaussian/"
 Entering Link 1 = /project/xlzhang/shared/bin/g16/l1.exe PID=    732688.
  
 Copyright (c) 1988-2017, Gaussian, Inc.  All Rights Reserved.
  
 This is part of the Gaussian(R) 16 program.  It is based on
 the Gaussian(R) 09 system (copyright 2009, Gaussian, Inc.),
 the Gaussian(R) 03 system (copyright 2003, Gaussian, Inc.),
 the Gaussian(R) 98 system (copyright 1998, Gaussian, Inc.),
 the Gaussian(R) 94 system (copyright 1995, Gaussian, Inc.),
 the Gaussian 92(TM) system (copyright 1992, Gaussian, Inc.),
 the Gaussian 90(TM) system (copyright 1990, Gaussian, Inc.),
 the Gaussian 88(TM) system (copyright 1988, Gaussian, Inc.),
 the Gaussian 86(TM) system (copyright 1986, Carnegie Mellon
 University), and the Gaussian 82(TM) system (copyright 1983,
 Carnegie Mellon University). Gaussian is a federally registered
 trademark of Gaussian, Inc.
  
 This software contains proprietary and confidential information,
 including trade secrets, belonging to Gaussian, Inc.
  
 This software is provided under written license and may be
 used, copied, transmitted, or stored only in accord with that
 written license.
  
 The following legend is applicable only to US Government
 contracts under FAR:
  
                    RESTRICTED RIGHTS LEGEND
  
 Use, reproduction and disclosure by the US Government is
 subject to restrictions as set forth in subparagraphs (a)
 and (c) of the Commercial Computer Software - Restricted
 Rights clause in FAR 52.227-19.
  
 Gaussian, Inc.
 340 Quinnipiac St., Bldg. 40, Wallingford CT 06492
  
  
 ---------------------------------------------------------------
 Warning -- This program may not be used in any manner that
 competes with the business of Gaussian, Inc. or will provide
 assistance to any competitor of Gaussian, Inc.  The licensee
 of this program is prohibited from giving any competitor of
 Gaussian, Inc. access to this program.  By using this program,
 the user acknowledges that Gaussian, Inc. is engaged in the
 business of creating and licensing software in the field of
 computational chemistry and represents and warrants to the
 licensee that it is not a competitor of Gaussian, Inc. and that
 it will not use this program in any manner prohibited above.
 ---------------------------------------------------------------
  

 Cite this work as:
 Gaussian 16, Revision B.01,
 M. J. Frisch, G. W. Trucks, H. B. Schlegel, G. E. Scuseria, 
 M. A. Robb, J. R. Cheeseman, G. Scalmani, V. Barone, 
 G. A. Petersson, H. Nakatsuji, X. Li, M. Caricato, A. V. Marenich, 
 J. Bloino, B. G. Janesko, R. Gomperts, B. Mennucci, H. P. Hratchian, 
 J. V. Ortiz, A. F. Izmaylov, J. L. Sonnenberg, D. Williams-Young, 
 F. Ding, F. Lipparini, F. Egidi, J. Goings, B. Peng, A. Petrone, 
 T. Henderson, D. Ranasinghe, V. G. Zakrzewski, J. Gao, N. Rega, 
 G. Zheng, W. Liang, M. Hada, M. Ehara, K. Toyota, R. Fukuda, 
 J. Hasegawa, M. Ishida, T. Nakajima, Y. Honda, O. Kitao, H. Nakai, 
 T. Vreven, K. Throssell, J. A. Montgomery, Jr., J. E. Peralta, 
 F. Ogliaro, M. J. Bearpark, J. J. Heyd, E. N. Brothers, K. N. Kudin, 
 V. N. Staroverov, T. A. Keith, R. Kobayashi, J. Normand, 
 K. Raghavachari, A. P. Rendell, J. C. Burant, S. S. Iyengar, 
 J. Tomasi, M. Cossi, J. M. Millam, M. Klene, C. Adamo, R. Cammi, 
 J. W. Ochterski, R. L. Martin, K. Morokuma, O. Farkas, 
 J. B. Foresman, and D. J. Fox, Gaussian, Inc., Wallingford CT, 2016.
 
 ******************************************
 Gaussian 16:  ES64L-G16RevB.01 20-Dec-2017
                10-Jun-2026 
 ******************************************
 %chk=pka_scale_frag2_pka_A_sp.chk
 %nprocshared=64
 Will use up to   64 processors via shared memory.
 %mem=180GB
 -------------------------------------------------
 # mn15 def2svp scrf=(smd,solvent=TetraHydroFuran)
 -------------------------------------------------
 1/38=1,172=1/1;
 2/12=2,17=6,18=5,40=1/2;
 3/5=43,7=101,11=2,25=1,30=1,70=32201,72=20,74=-73/1,2,3;
 4//1;
 5/5=2,38=5,53=20/2;
 6/7=2,8=2,9=2,10=2,28=1/1;
 99/5=1,9=1/99;
 ----------------------------
 Gaussian pKa calculation job
 ----------------------------
 Symbolic Z-matrix:
 Charge = -1 Multiplicity = 1
 C                     1.62696   0.00122  -0.00022 
 S                    -0.18035   0.00008  -0.00008 
 O                    -0.53283  -0.90397  -1.11031 
 O                    -0.53509   1.41324  -0.2268 
 O                    -0.53295  -0.5108    1.33736 
 H                     1.97736   0.37253  -0.97276 
 H                     1.97616   0.65792   0.80812 
 H                     1.97728  -1.02669   0.16522 
 
                          Input orientation:                          
 ---------------------------------------------------------------------
 Center     Atomic      Atomic             Coordinates (Angstroms)
 Number     Number       Type             X           Y           Z
 ---------------------------------------------------------------------
      1          6           0        1.626964    0.001219   -0.000216
      2         16           0       -0.180351    0.000076   -0.000083
      3          8           0       -0.532834   -0.903972   -1.110306
      4          8           0       -0.535085    1.413237   -0.226796
      5          8           0       -0.532954   -0.510801    1.337359
      6          1           0        1.977359    0.372534   -0.972762
      7          1           0        1.976164    0.657919    0.808116
      8          1           0        1.977283   -1.026695    0.165224
 ---------------------------------------------------------------------
                    Distance matrix (angstroms):
                    1          2          3          4          5
     1  C    0.000000
     2  S    1.807315   0.000000
     3  O    2.591601   1.474497   0.000000
     4  O    2.592217   1.474537   2.479930   0.000000
     5  O    2.591624   1.474475   2.479042   2.479618   0.000000
     6  H    1.098407   2.395943   2.819478   2.819912   3.524005
     7  H    1.098452   2.395099   3.523481   2.819206   2.818098
     8  H    1.098499   2.395197   2.818284   3.524052   2.818038
                    6          7          8
     6  H    0.000000
     7  H    1.803600   0.000000
     8  H    1.803567   1.803118   0.000000
 Stoichiometry    CH3O3S(1-)
 Framework group  C1[X(CH3O3S)]
 Deg. of freedom    18
 Full point group                 C1      NOp   1
 Largest Abelian subgroup         C1      NOp   1
 Largest concise Abelian subgroup C1      NOp   1
                         Standard orientation:                         
 ---------------------------------------------------------------------
 Center     Atomic      Atomic             Coordinates (Angstroms)
 Number     Number       Type             X           Y           Z
 ---------------------------------------------------------------------
      1          6           0        1.626964    0.001221   -0.000217
      2         16           0       -0.180351    0.000076   -0.000083
      3          8           0       -0.532833   -0.904501   -1.109876
      4          8           0       -0.535086    1.413128   -0.227468
      5          8           0       -0.532953   -0.510165    1.337602
      6          1           0        1.977359    0.372073   -0.972939
      7          1           0        1.976164    0.658305    0.807803
      8          1           0        1.977284   -1.026614    0.165712
 ---------------------------------------------------------------------
 Rotational constants (GHZ):           4.9734381           4.6489031           4.6471780
 Standard basis: def2SVP (5D, 7F)
 There are    94 symmetry adapted cartesian basis functions of A   symmetry.
 There are    89 symmetry adapted basis functions of A   symmetry.
    89 basis functions,   158 primitive gaussians,    94 cartesian basis functions
    25 alpha electrons       25 beta electrons
       nuclear repulsion energy       269.0682546027 Hartrees.
 NAtoms=    8 NActive=    8 NUniq=    8 SFac= 1.00D+00 NAtFMM=   60 NAOKFM=F Big=F
 Integral buffers will be    131072 words long.
 Raffenetti 2 integral format.
 Two-electron integral symmetry is turned on.
 ------------------------------------------------------------------------------
 Polarizable Continuum Model (PCM)
 =================================
 Model                : PCM.
 Atomic radii         : SMD-Coulomb.
 Polarization charges : Total charges.
 Charge compensation  : None.
 Solution method      : On-the-fly selection.
 Cavity type          : VdW (van der Waals Surface) (Alpha=1.000).
 Cavity algorithm     : GePol (No added spheres)
                        Default sphere list used, NSphG=    8.
                        Lebedev-Laikov grids with approx.  5.0 points / Ang**2.
                        Smoothing algorithm: York/Karplus (Gamma=1.0000).
                        Polarization charges: spherical gaussians, with
                                              point-specific exponents (IZeta= 3).
                        Self-potential: point-specific (ISelfS= 7).
                        Self-field    : sphere-specific E.n sum rule (ISelfD= 2).
 Solvent              : TetraHydroFuran, Eps=   7.425700 Eps(inf)=   1.974025
 ------------------------------------------------------------------------------
 Spheres list:
 ISph  on   Nord     Re0    Alpha      Xe            Ye            Ze
    1   C      1    1.8500  1.000      1.626964      0.001221     -0.000217
    2   S      2    2.4900  1.000     -0.180351      0.000076     -0.000083
    3   O      3    2.2940  1.000     -0.532833     -0.904501     -1.109876
    4   O      4    2.2940  1.000     -0.535086      1.413128     -0.227468
    5   O      5    2.2940  1.000     -0.532953     -0.510165      1.337602
    6   H      6    1.2000  1.000      1.977359      0.372073     -0.972939
    7   H      7    1.2000  1.000      1.976164      0.658305      0.807803
    8   H      8    1.2000  1.000      1.977284     -1.026614      0.165712
 ------------------------------------------------------------------------------
 ------------------------------------------------------------------------------
 Atomic radii for non-electrostatic terms: SMD-CDS.
 ------------------------------------------------------------------------------
 Nuclear repulsion after PCM non-electrostatic terms =      269.0646016217 Hartrees.
 One-electron integrals computed using PRISM.
   1 Symmetry operations used in ECPInt.
 ECPInt:  NShTT=     861 NPrTT=    3405 LenC2=     859 LenP2D=    2827.
 LDataN:  DoStor=T MaxTD1= 4 Len=   56
 NBasis=    89 RedAO= T EigKep=  5.42D-03  NBF=    89
 NBsUse=    89 1.00D-06 EigRej= -1.00D+00 NBFU=    89
 ExpMin= 1.22D-01 ExpMax= 9.18D+03 ExpMxC= 1.38D+03 IAcc=3 IRadAn=         5 AccDes= 0.00D+00
 Harris functional with IExCor= 1009 and IRadAn=       5 diagonalized for initial guess.
 HarFok:  IExCor= 1009 AccDes= 0.00D+00 IRadAn=         5 IDoV= 1 UseB2=F ITyADJ=14
 ICtDFT=  3500011 ScaDFX=  1.000000  1.000000  1.000000  1.000000
 FoFCou: FMM=F IPFlag=           0 FMFlag=      100000 FMFlg1=           0
         NFxFlg=           0 DoJE=T BraDBF=F KetDBF=T FulRan=T
         wScrn=  0.000000 ICntrl=       500 IOpCl=  0 I1Cent=   200000004 NGrid=           0
         NMat0=    1 NMatS0=      1 NMatT0=    0 NMatD0=    1 NMtDS0=    0 NMtDT0=    0
 Petite list used in FoFCou.
 Keep R1 ints in memory in canonical form, NReq=66851115.
 Requested convergence on RMS density matrix=1.00D-08 within 128 cycles.
 Requested convergence on MAX density matrix=1.00D-06.
 Requested convergence on             energy=1.00D-06.
 No special actions if energy rises.
 Inv3:  Mode=1 IEnd=     3364443.
 Iteration    1 A*A^-1 deviation from unit magnitude is 2.89D-15 for     62.
 Iteration    1 A*A^-1 deviation from orthogonality  is 2.71D-15 for    844    730.
 Iteration    1 A^-1*A deviation from unit magnitude is 2.44D-15 for    334.
 Iteration    1 A^-1*A deviation from orthogonality  is 1.30D-15 for   1056    428.
 Error on total polarization charges =  0.00758
 SCF Done:  E(RMN15) =  -663.083827372     A.U. after   11 cycles
            NFock= 11  Conv=0.99D-08     -V/T= 2.0050
 SMD-CDS (non-electrostatic) energy       (kcal/mol) =      -2.29
 (included in total energy above)

 **********************************************************************

            Population analysis using the SCF Density.

 **********************************************************************

 Orbital symmetries:
       Occupied  (A) (A) (A) (A) (A) (A) (A) (A) (A) (A) (A) (A)
                 (A) (A) (A) (A) (A) (A) (A) (A) (A) (A) (A) (A)
                 (A)
       Virtual   (A) (A) (A) (A) (A) (A) (A) (A) (A) (A) (A) (A)
                 (A) (A) (A) (A) (A) (A) (A) (A) (A) (A) (A) (A)
                 (A) (A) (A) (A) (A) (A) (A) (A) (A) (A) (A) (A)
                 (A) (A) (A) (A) (A) (A) (A) (A) (A) (A) (A) (A)
                 (A) (A) (A) (A) (A) (A) (A) (A) (A) (A) (A) (A)
                 (A) (A) (A) (A)
 The electronic state is 1-A.
 Alpha  occ. eigenvalues --  -87.92950 -18.70032 -18.70015 -18.70009 -10.01239
 Alpha  occ. eigenvalues --   -7.82719  -6.02209  -6.02197  -6.02197  -1.06437
 Alpha  occ. eigenvalues --   -0.92313  -0.92304  -0.71992  -0.52782  -0.45498
 Alpha  occ. eigenvalues --   -0.43737  -0.43734  -0.39519  -0.39514  -0.30256
 Alpha  occ. eigenvalues --   -0.30253  -0.26117  -0.26110  -0.25239  -0.22069
 Alpha virt. eigenvalues --    0.15790   0.20172   0.20175   0.20631   0.25948
 Alpha virt. eigenvalues --    0.29483   0.29507   0.50657   0.51823   0.51840
 Alpha virt. eigenvalues --    0.52866   0.72411   0.72474   0.72480   0.77487
 Alpha virt. eigenvalues --    0.77498   0.79175   0.79181   0.79636   0.83844
 Alpha virt. eigenvalues --    0.95959   0.95966   1.03234   1.08731   1.08749
 Alpha virt. eigenvalues --    1.15362   1.15380   1.15726   1.19631   1.24681
 Alpha virt. eigenvalues --    1.24692   1.31840   1.38592   1.38631   1.56728
 Alpha virt. eigenvalues --    1.59252   1.59322   1.66969   1.80058   1.80074
 Alpha virt. eigenvalues --    1.89629   1.99423   1.99458   2.23004   2.41375
 Alpha virt. eigenvalues --    2.41401   2.66676   2.69365   2.72564   2.72568
 Alpha virt. eigenvalues --    2.72934   2.73228   2.73235   2.77706   2.83006
 Alpha virt. eigenvalues --    2.83031   2.91847   2.91867   2.92854   3.09584
 Alpha virt. eigenvalues --    3.09612   3.27858   3.46564   3.46578
          Condensed to atoms (all electrons):
               1          2          3          4          5          6
     1  C    4.884442   0.371193  -0.065045  -0.064980  -0.065002   0.342845
     2  S    0.371193  13.600045   0.418126   0.418021   0.418036  -0.008054
     3  O   -0.065045   0.418126   8.335921  -0.050944  -0.051082   0.002790
     4  O   -0.064980   0.418021  -0.050944   8.335837  -0.050992   0.002789
     5  O   -0.065002   0.418036  -0.051082  -0.050992   8.336081   0.005078
     6  H    0.342845  -0.008054   0.002790   0.002789   0.005078   0.657726
     7  H    0.342711  -0.008090   0.005087   0.002802   0.002813  -0.015500
     8  H    0.342826  -0.008057   0.002799   0.005076   0.002804  -0.015507
               7          8
     1  C    0.342711   0.342826
     2  S   -0.008090  -0.008057
     3  O    0.005087   0.002799
     4  O    0.002802   0.005076
     5  O    0.002813   0.002804
     6  H   -0.015500  -0.015507
     7  H    0.658083  -0.015526
     8  H   -0.015526   0.657829
 Mulliken charges:
               1
     1  C   -0.088991
     2  S    0.798781
     3  O   -0.597652
     4  O   -0.597609
     5  O   -0.597736
     6  H    0.027831
     7  H    0.027620
     8  H    0.027757
 Sum of Mulliken charges =  -1.00000
 Mulliken charges with hydrogens summed into heavy atoms:
               1
     1  C   -0.005783
     2  S    0.798781
     3  O   -0.597652
     4  O   -0.597609
     5  O   -0.597736
 Electronic spatial extent (au):  <R**2>=            407.4581
 Charge=             -1.0000 electrons
 Dipole moment (field-independent basis, Debye):
    X=              4.0316    Y=              0.0050    Z=             -0.0021  Tot=              4.0316
 Quadrupole moment (field-independent basis, Debye-Ang):
   XX=            -37.8351   YY=            -45.2116   ZZ=            -45.2061
   XY=              0.0065   XZ=             -0.0021   YZ=             -0.0008
 Traceless Quadrupole moment (field-independent basis, Debye-Ang):
   XX=              4.9159   YY=             -2.4607   ZZ=             -2.4552
   XY=              0.0065   XZ=             -0.0021   YZ=             -0.0008
 Octapole moment (field-independent basis, Debye-Ang**2):
  XXX=             -6.4657  YYY=             -6.8651  ZZZ=             -3.5735  XYY=              4.0887
  XXY=             -0.0144  XXZ=             -0.0036  XZZ=              4.0745  YZZ=              6.8782
  YYZ=              3.5692  XYZ=             -0.0044
 Hexadecapole moment (field-independent basis, Debye-Ang**3):
 XXXX=           -209.8163 YYYY=           -161.4515 ZZZZ=           -161.3656 XXXY=             -0.0081
 XXXZ=             -0.0133 YYYX=              2.1562 YYYZ=             -0.0046 ZZZX=              1.1150
 ZZZY=              0.0014 XXYY=            -59.9907 XXZZ=            -59.9585 YYZZ=            -53.8075
 XXYZ=             -0.0028 YYXZ=             -1.1201 ZZXY=             -2.1521
 N-N= 2.690646016217D+02 E-N=-2.119100319465D+03  KE= 6.597592565781D+02
 1\1\GINC-CHPC-CN079\SP\RMN15\def2SVP\C1H3O3S1(1-)\S1155246976\10-Jun-2
 026\0\\# mn15 def2svp scrf=(smd,solvent=TetraHydroFuran)\\Gaussian pKa
  calculation job\\-1,1\C,0,1.626964,0.001219,-0.000216\S,0,-0.180351,0
 .000076,-0.000083\O,0,-0.532834,-0.903972,-1.110306\O,0,-0.535085,1.41
 3237,-0.226796\O,0,-0.532954,-0.510801,1.337359\H,0,1.977359,0.372534,
 -0.972762\H,0,1.976164,0.657919,0.808116\H,0,1.977283,-1.026695,0.1652
 24\\Version=ES64L-G16RevB.01\State=1-A\HF=-663.0838274\RMSD=9.905e-09\
 Dipole=1.5861635,0.0019642,-0.0008119\Quadrupole=3.6548148,-1.8294606,
 -1.8253542,0.0048262,-0.0015864,-0.0005634\PG=C01 [X(C1H3O3S1)]\\@


 EDUCATION WITHOUT COMMON SENSE IS A LOAD OF BOOKS ON THE BACK OF AN ASS.
 Job cpu time:       0 days  0 hours  2 minutes 35.1 seconds.
 Elapsed time:       0 days  0 hours  0 minutes  2.7 seconds.
 File lengths (MBytes):  RWF=     26 Int=      0 D2E=      0 Chk=      2 Scr=      1
 Normal termination of Gaussian 16 at Wed Jun 10 15:26:53 2026.
