
                                 *****************
                                 * O   R   C   A *
                                 *****************

                                            #,                                       
                                            ###                                      
                                            ####                                     
                                            #####                                    
                                            ######                                   
                                           ########,                                 
                                     ,,################,,,,,                         
                               ,,#################################,,                 
                          ,,##########################################,,             
                       ,#########################################, ''#####,          
                    ,#############################################,,   '####,        
                  ,##################################################,,,,####,       
                ,###########''''           ''''###############################       
              ,#####''   ,,,,##########,,,,          '''####'''          '####       
            ,##' ,,,,###########################,,,                        '##       
           ' ,,###''''                  '''############,,,                           
         ,,##''                                '''############,,,,        ,,,,,,###''
      ,#''                                            '''#######################'''  
     '                                                          ''''####''''         
             ,#######,   #######,   ,#######,      ##                                
            ,#'     '#,  ##    ##  ,#'     '#,    #''#        ,####,    ,#,          
            ##       ##  ##   ,#'  ##            #'  '#       #'       ,# #          
            ##       ##  #######   ##           ,######,      #####,      #          
            '#,     ,#'  ##    ##  '#,     ,#' ,#      #,     #,   #      #          
             '#######'   ##     ##  '#######'  #'      '#     '####' #    #          



                #########################################################
                #                        -***-                          #
                #          Department of theory and spectroscopy        #
                #                                                       #
                #                      Frank Neese                      #
                #                                                       #
                #     Directorship, Architecture, Infrastructure        #
                #                    SHARK, DRIVERS                     #
                #        Core code/Algorithms in most modules           #
                #                                                       #
                #        Max Planck Institute fuer Kohlenforschung      #
                #                Kaiser Wilhelm Platz 1                 #
                #                 D-45470 Muelheim/Ruhr                 #
                #                      Germany                          #
                #                                                       #
                #                  All rights reserved                  #
                #                        -***-                          #
                #########################################################


                         Program Version 6.1.0  -  RELEASE   -
                                (GIT: $679e74b$)
                          ($2025-06-10 18:02:51 +0200$)


 With contributions from (in alphabetic order):
[Max-Planck-Institut fuer Kohlenforschung]                               
  Daniel Aravena         : Magnetic Suceptibility                        
  Michael Atanasov       : Ab Initio Ligand Field Theory (pilot matlab implementation)
  Alexander A. Auer      : GIAO ZORA, VPT2 properties, NMR spectrum      
  Ute Becker             : All parallelization in ORCA, NUMFREQ, NUMCALC 
  Giovanni Bistoni       : ED, misc. LED, open-shell LED, HFLD           
  Dmytro Bykov           : pre 5.0 version of the SCF Hessian            
  Marcos Casanova-Páez   : Triplet and SCS-CIS(D). UHF-(DLPNO)-IP/EA/STEOM-CCSD. UHF-CVS-IP/STEOM-CCSD   
  Vijay G. Chilkuri      : MRCI spin determinant printing, contributions to CSF-ICE 
  Pauline Colinet        : FMM embedding                                 
  Dipayan Datta          : RHF DLPNO-CCSD density                        
  Achintya Kumar Dutta   : EOM-CC, STEOM-CC                              
  Nicolas Foglia         : Exact transition moments, OPA infrastructure, MCD improvements    
  Dmitry Ganyushin       : Spin-Orbit,Spin-Spin,Magnetic field MRCI      
  Miquel Garcia-Rates    : C-PCM and meta-GGA Hessian, CCSD/C-PCM, Gaussian charge scheme 
  Tiago L. C. Gouveia    : GS-ROHF, GS-ROCIS                             
  Yang Guo               : DLPNO-NEVPT2, F12-NEVPT2, CIM, IAO-localization        
  Andreas Hansen         : Spin unrestricted coupled pair/coupled cluster methods 
  Ingolf Harden          : AUTO-CI MPn and infrastructure                
  Benjamin Helmich-Paris : MC-RPA, TRAH-(SCF,CASSCF), AVAS, COSX integrals, SCF dyn. polar., MC-PDFT, srDFT 
  Lee Huntington         : MR-EOM, pCC                                   
  Robert Izsak           : Overlap fitted RIJCOSX, COSX-SCS-MP3, EOM     
  Riya Kayal             : Wick's Theorem for AUTO-CI, AUTO-CI UHF-CCSDT 
  Emily Kempfer          : AUTO-CI RHF CISDT and CCSDT, approximate NEVPT4
  Christian Kollmar      : KDIIS, OOCD, Brueckner-CCSD(T), CCSD density, CASPT2, CASPT2-K, improved NEVPT2 
  Axel Koslowski         : Symmetry handling                             
  Simone Kossmann        : meta-GGA functionals, TD-DFT gradient, OOMP2, (MP2 Hessian; deprecated post 5.0) 
  Lucas Lang             : DCDCAS, Hyperfine gauge corrections, ICE-SOC+SSC
  Marvin Lechner         : AUTO-CI (C++ implementation), FIC-MRCC        
  Spencer Leger          : CASSCF response                               
  Dagmar Lenk            : GEPOL surface, SMD, ORCA-2-JSON               
  Dimitrios Liakos       : Extrapolation schemes; Compound Job, Property file
  Dimitrios Manganas     : Further ROCIS development; embedding schemes. LFT, Crystal Embedding 
  Dimitrios Pantazis     : SARC Basis sets                               
  Anastasios Papadopoulos: AUTO-CI, single reference methods and gradients 
  Taras Petrenko         : pre 6.0 DFT Hessian and TD-DFT gradient,  ECA, NRVS 
  Petra Pikulova         : Analytic Raman intensities                    
  Peter Pinski           : DLPNO-MP2, DLPNO-MP2 Gradient                 
  Shashank Vittal Rao    : ES-AILFT, MagRelax                            
  Christoph Reimann      : Effective Core Potentials                     
  Marius Retegan         : Local ZFS, SOC                                
  Christoph Riplinger    : Optimizer, TS searches, QM/MM, DLPNO-CCSD(T), (RO)-DLPNO pert. Triples 
  Michael Roemelt        : Original ROCIS implementation, recursive CI coupling coefficients
  Masaaki Saitow         : Open-shell DLPNO-CCSD energy and density      
  Barbara Sandhoefer     : DKH picture change effects                    
  Yorick L. A. Schmerwitz: GMF and freeze-and-release deltaSCF, NEB S-IDPP initial path                    
  Kantharuban Sivalingam : CASSCF convergence/infrastructure, NEVPT2, NEVPT3, NEVPT4(SD), FIC-MRCI and CEPA variants
  Bernardo de Souza      : ESD, SOC TD-DFT                               
  Georgi L. Stoychev     : AutoAux, RI-MP2 NMR, DLPNO-MP2 response, X2C  
  Van Anh Tran           : RI-MP2 g-tensors                              
  Willem Van den Heuvel  : Paramagnetic NMR                              
  Zikuan Wang            : NOTCH, Electric field optimization            
  Frank Wennmohs         : Technical directorship and infrastructure     
  Hang Xu                : AUTO-CI-Response properties                   
                                                                         
[FACCTs GmbH]                                                            
  Markus Bursch, Nicolas Foglia, Miquel Garcia-Rates, Ingolf Harden, Hagen Neugebauer, Anastasios Papadopoulos, 
  Christoph Riplinger, Bernardo de Souza, Georgi L. Stoychev                                                    
                                                                 
  APM, various basis sets, CI-OPT, improved COSX, DLPNO-Multilevel,           
  DOCKER, DRACO, updates on ESD, Fragmentator, GOAT, IRC, LR-CPCM, L-BFGS, MBIS, meta-GGA TD-DFT gradient, ML-optimized integration grids, 
  MM, NACMEs, nearIR, NEB, NEB-TS, NL-DFT gradient (VV10), 2- and 3-layer-ONIOM, interface openCOSMO-RS, QMMM,   
  Crystal-QMMM, RESP, rigid body optimization, SF, symmetry and pop. for TD-DFT, various functionals, SOLVATOR                                   
                                                                         
[Other institutions]                                                     
  V. Asgeirsson          : NEB                                           
  Christoph Bannwarth    : sTDA-DFT, sTD-DFT, PBEh-3c, B97-3c, D3        
  Giovanni Bistoni       : ETS/NOCV, ADLD/ADEX, COVALED                  
  Martin Brehm           : Molecular dynamics                            
  Ronald Cardenas        : ETS/NOCV                                      
  Martina Colucci        : COVALED                                       
  Sebastian Ehlert       : rSCAN, r2SCAN, r2SCAN-3c, D4, dhf basis sets  
  Marvin Friede          : D4 for Fr, Ra, Ac-Lr                          
  Lars Goerigk           : TD-DFT with DH, B97 family of functionals     
  Stefan Grimme          : VdW corrections, initial TS optimization, DFT functionals, gCP, sTDA/sTD-DF 
  Waldemar Hujo          : DFT-NL                                        
  H. Jonsson             : NEB                                           
  Holger Kruse           : gCP                                           
  Marcel Mueller         : wB97X-3c, vDZP basis set                      
  Hagen Neugebauer       : wr2SCAN, Native XTB                           
  Gianluca Regni         : ADLD/ADEX                                     
  Tobias Risthaus        : pre 6.0 range-separated hybrid DFT and stability analysis
  Lukas Wittmann         : regularized MP2, r2SCAN double-hybrids, wr2SCAN        
                                                                         
We gratefully acknowledge several colleagues who have allowed us to      
interface, adapt or use parts of their codes:                            
  Ed Valeev, F. Pavosevic, A. Kumar             : LibInt (2-el integral package), F12 methods 
  Garnet Chan, S. Sharma, J. Yang, R. Olivares  : DMRG                   
  Ulf Ekstrom                                   : XCFun DFT Library      
  Mihaly Kallay                                 : mrcc  (arbitrary order and MRCC methods)
  Frank Weinhold                                : gennbo (NPA and NBO analysis)           
  Simon Mueller                                 : openCOSMO-RS                            
  Christopher J. Cramer and Donald G. Truhlar   : smd solvation model                     
  S Lehtola, MJT Oliveira, MAL Marques          : LibXC Library                           
  Liviu Ungur et al                             : ANISO software                          


 Your calculation uses the libint2 library for the computation of 2-el integrals
 For citations please refer to: http://libint.valeyev.net

 Your ORCA version has been built with support for libXC version: 7.0.0
 For citations please refer to: https://libxc.gitlab.io

 This ORCA versions uses:
   CBLAS   interface :  Fast vector & matrix operations
   LAPACKE interface :  Fast linear algebra routines
   SCALAPACK package :  Parallel linear algebra routines
   Shared memory     :  Shared parallel matrices
   BLAS/LAPACK       :  OpenBLAS 0.3.29  USE64BITINT DYNAMIC_ARCH NO_AFFINITY Cooperlake SINGLE_THREADED
        Core in use  :  Cooperlake
   Copyright (c) 2011-2014, The OpenBLAS Project


  ***********************************
  * Starting time: Wed Jun 10 15:26:38 2026
  * Host name:     chpc-cn081.rc.cuhk.edu.hk
  * Process ID:    110970
  * Working dir.:  /lustre/project/xlzhang/jingyi/chemsmart/test_pka/orca
  ***********************************

NOTE: MaxCore=2109 MB was set to SCF,MP2,MDCI,CIPSI,MRCI,RASCI and CIS
      => If you want to overwrite this, your respective input block should be placed after the MaxCore statement
XCFun DFT library Copyright 2009-2010 Ulf Ekstrom and contributors.
See http://admol.org/xcfun for more information.
This is free software; see the source code for copying conditions.
There is ABSOLUTELY NO WARRANTY; not even for MERCHANTABILITY or FITNESS FOR A PARTICULAR PURPOSE.
For details see the documentation.
Scientific users of this library should cite U. Ekstrom, L. Visscher, R. Bast, A. J. Thorvaldsen and K. Ruud;
J.Chem.Theor.Comp. 2010, DOI: 10.1021/ct100117s
XCFun Version 0.99 

Warning: RI is on but no J-basis has been assigned. Assigning Def2/J (nothing to worry about!)
================================================================================

----- Orbital basis set information -----
Your calculation utilizes the basis: def2-SVP
   F. Weigend and R. Ahlrichs, Phys. Chem. Chem. Phys. 7, 3297 (2005).

----- AuxJ basis set information -----
Your calculation utilizes the auxiliary basis: def2/J
   H-Rn: F. Weigend, Phys. Chem. Chem. Phys. 8, 1057 (2006).
   Fr-Lr: K. Eichkorn, F. Weigend, O. Treutler, R. Ahlrichs; Theor. Chem. Acc. 97, 119 (1997).

================================================================================
                                        WARNINGS
                       Please study these warnings very carefully!
================================================================================

WARNING: Functional chosen is sensitive to the integration grid.
         DEFGRID3 seems to be a minimum grid for robust results!

WARNING: Geometry Optimization
  ===> : Switching off AutoStart
         For restart on a previous wavefunction, please use MOREAD

================================================================================
                                       INPUT FILE
================================================================================
NAME = /lustre/project/xlzhang/jingyi/chemsmart/test_pka/orca/pka_scale_frag2_pka_HA_opt.inp
|  1> ! Opt Freq M062X def2-SVP defgrid2
|  2> # Number of processors
|  3> %pal nprocs 64 end
|  4> # Memory per core
|  5> %maxcore 2109
|  6> * xyz 0 1
|  7> C       -1.0965145985    0.1029667919   -0.2525080462
|  8> S        0.5912552661    0.3765235245    0.2344159351
|  9> O        0.7160790270    0.2023258597    1.6634128204
| 10> O        1.1173136015    1.5272954972   -0.4600480917
| 11> O        1.2330065759   -0.9486985593   -0.4269489026
| 12> H       -1.6987609122    0.9246101807    0.1404883285
| 13> H       -1.1504264536    0.0873956832   -1.3425718703
| 14> H       -1.4363453945   -0.8449537074    0.1686482247
| 15> H        1.7243928883   -1.4274652704    0.2751116020
| 16> *
| 17> 
| 18>                          ****END OF INPUT****
================================================================================

                       *****************************
                       * Geometry Optimization Run *
                       *****************************

Geometry optimization settings:
Update method            Update   .... BFGS
Choice of coordinates    CoordSys .... (2022) Redundant Internals
Initial Hessian          InHess   .... Almloef's Model
Max. no of cycles        MaxIter  .... 50

Convergence Tolerances:
Energy Change            TolE     ....  5.0000e-06 Eh
Max. Gradient            TolMAXG  ....  3.0000e-04 Eh/bohr
RMS Gradient             TolRMSG  ....  1.0000e-04 Eh/bohr
Max. Displacement        TolMAXD  ....  4.0000e-03 bohr
RMS Displacement         TolRMSD  ....  2.0000e-03 bohr
Strict Convergence                .... False

------------------------------------------------------------------------------
                        ORCA OPTIMIZATION COORDINATE SETUP
------------------------------------------------------------------------------

The optimization will be done in redundant internal coordinates (2022)
Making redundant internal coordinates   ...  (2022 redundants) done
Evaluating the initial hessian          ...  (Almloef) done
Evaluating the coordinates              ...  done
Calculating the B-matrix                .... done
Calculating the G-matrix                .... done
The number of degrees of freedom        ....   30

    -----------------------------------------------------------------
                    Redundant Internal Coordinates


    -----------------------------------------------------------------
         Definition                    Initial Value    Approx d2E/dq
    -----------------------------------------------------------------
      1. B(S   1,C   0)                  1.7778         0.405351   
      2. B(O   2,S   1)                  1.4450         1.232910   
      3. B(O   3,S   1)                  1.4434         1.240245   
      4. B(O   4,S   1)                  1.6141         0.662270   
      5. B(H   5,C   0)                  1.0919         0.357596   
      6. B(H   6,C   0)                  1.0915         0.358112   
      7. B(H   7,C   0)                  1.0915         0.358098   
      8. B(H   8,O   4)                  0.9816         0.480266   
      9. A(S   1,C   0,H   7)          108.8763         0.345212   
     10. A(S   1,C   0,H   6)          108.8214         0.345214   
     11. A(H   6,C   0,H   7)          110.9509         0.290332   
     12. A(H   5,C   0,H   7)          110.0537         0.290267   
     13. A(H   5,C   0,H   6)          110.0559         0.290268   
     14. A(S   1,C   0,H   5)          108.0148         0.345131   
     15. A(O   2,S   1,O   3)          122.7146         0.621675   
     16. A(C   0,S   1,O   2)          109.5316         0.505470   
     17. A(O   2,S   1,O   4)          105.7761         0.551159   
     18. A(C   0,S   1,O   4)           97.9839         0.450823   
     19. A(C   0,S   1,O   3)          109.6890         0.506030   
     20. A(O   3,S   1,O   4)          108.2119         0.551780   
     21. A(S   1,O   4,H   8)          107.8432         0.389310   
     22. D(O   2,S   1,C   0,H   6)   -171.5242         0.010000   
     23. D(O   3,S   1,C   0,H   5)    -68.3769         0.010000   
     24. D(O   2,S   1,C   0,H   5)     69.0148         0.010000   
     25. D(O   3,S   1,C   0,H   6)     51.0841         0.010000   
     26. D(O   3,S   1,C   0,H   7)    172.1336         0.010000   
     27. D(O   2,S   1,C   0,H   7)    -50.4747         0.010000   
     28. D(H   8,O   4,S   1,C   0)   -125.9579         0.010070   
     29. D(H   8,O   4,S   1,O   3)    120.1949         0.010070   
     30. D(H   8,O   4,S   1,O   2)    -12.9761         0.010070   
    -----------------------------------------------------------------

Number of atoms                         .... 9
Number of degrees of freedom            .... 30


         *************************************************************
         *                GEOMETRY OPTIMIZATION CYCLE   1            *
         *************************************************************
---------------------------------
CARTESIAN COORDINATES (ANGSTROEM)
---------------------------------
  C     -1.096515    0.102967   -0.252508
  S      0.591255    0.376524    0.234416
  O      0.716079    0.202326    1.663413
  O      1.117314    1.527295   -0.460048
  O      1.233007   -0.948699   -0.426949
  H     -1.698761    0.924610    0.140488
  H     -1.150426    0.087396   -1.342572
  H     -1.436345   -0.844954    0.168648
  H      1.724393   -1.427465    0.275112

----------------------------
CARTESIAN COORDINATES (A.U.)
----------------------------
  NO LB      ZA    FRAG     MASS         X           Y           Z
   0 C     6.0000    0    12.011   -2.072112    0.194579   -0.477171
   1 S    16.0000    0    32.060    1.117311    0.711526    0.442982
   2 O     8.0000    0    15.999    1.353193    0.382340    3.143395
   3 O     8.0000    0    15.999    2.111417    2.886170   -0.869365
   4 O     8.0000    0    15.999    2.330045   -1.792780   -0.806816
   5 H     1.0000    0     1.008   -3.210193    1.747260    0.265484
   6 H     1.0000    0     1.008   -2.173991    0.165154   -2.537093
   7 H     1.0000    0     1.008   -2.714299   -1.596731    0.318699
   8 H     1.0000    0     1.008    3.258630   -2.697518    0.519886

--------------------------------
INTERNAL COORDINATES (ANGSTROEM)
--------------------------------
 C      0   0   0     0.000000000000     0.00000000     0.00000000
 S      1   0   0     1.777778210399     0.00000000     0.00000000
 O      2   1   0     1.444976780403   109.53157972     0.00000000
 O      2   1   3     1.443361974667   109.68901457   222.60832002
 O      2   1   3     1.614144282141    97.98388796   109.94125143
 H      1   2   3     1.091899551814   108.01482880    69.01481760
 H      1   2   3     1.091507255202   108.82138642   188.47581785
 H      1   2   3     1.091517680765   108.87631488   309.52532860
 H      5   2   1     0.981614498564   107.84321173   234.04212088

---------------------------
INTERNAL COORDINATES (A.U.)
---------------------------
 C      0   0   0     0.000000000000     0.00000000     0.00000000
 S      1   0   0     3.359513944506     0.00000000     0.00000000
 O      2   1   0     2.730610384837   109.53157972     0.00000000
 O      2   1   3     2.727558844237   109.68901457   222.60832002
 O      2   1   3     3.050290633881    97.98388796   109.94125143
 H      1   2   3     2.063391118680   108.01482880    69.01481760
 H      1   2   3     2.062649785519   108.82138642   188.47581785
 H      1   2   3     2.062669486978   108.87631488   309.52532860
 H      5   2   1     1.854982571372   107.84321173   234.04212088

---------------------
BASIS SET INFORMATION
---------------------
There are 4 groups of distinct atoms

 Group   1 Type C   : 7s4p1d contracted to 3s2p1d pattern {511/31/1}
 Group   2 Type S   : 10s7p1d contracted to 4s3p1d pattern {5311/511/1}
 Group   3 Type O   : 7s4p1d contracted to 3s2p1d pattern {511/31/1}
 Group   4 Type H   : 4s1p contracted to 2s1p pattern {31/1}

Atom   0C    basis set group =>   1
Atom   1S    basis set group =>   2
Atom   2O    basis set group =>   3
Atom   3O    basis set group =>   3
Atom   4O    basis set group =>   3
Atom   5H    basis set group =>   4
Atom   6H    basis set group =>   4
Atom   7H    basis set group =>   4
Atom   8H    basis set group =>   4
---------------------------------
AUXILIARY/J BASIS SET INFORMATION
---------------------------------
There are 4 groups of distinct atoms

 Group   1 Type C   : 12s5p4d2f1g contracted to 6s4p3d1f1g pattern {711111/2111/211/2/1}
 Group   2 Type S   : 14s5p5d2f1g contracted to 8s4p3d1f1g pattern {71111111/2111/311/2/1}
 Group   3 Type O   : 12s5p4d2f1g contracted to 6s4p3d1f1g pattern {711111/2111/211/2/1}
 Group   4 Type H   : 5s2p1d contracted to 3s1p1d pattern {311/2/1}

Atom   0C    basis set group =>   1
Atom   1S    basis set group =>   2
Atom   2O    basis set group =>   3
Atom   3O    basis set group =>   3
Atom   4O    basis set group =>   3
Atom   5H    basis set group =>   4
Atom   6H    basis set group =>   4
Atom   7H    basis set group =>   4
Atom   8H    basis set group =>   4


           ************************************************************
           *        Program running with 64 parallel MPI-processes    *
           *              working on a common directory               *
           ************************************************************
------------------------------------------------------------------------------
                             ORCA STARTUP CALCULATIONS
                           -- RI-GTO INTEGRALS CHOSEN --
------------------------------------------------------------------------------
------------------------------------------------------------------------------
                   ___                                                        
                  /   \      - P O W E R E D   B Y -                         
                 /     \                                                     
                 |  |  |   _    _      __       _____    __    __             
                 |  |  |  | |  | |    /  \     |  _  \  |  |  /  |          
                  \  \/   | |  | |   /    \    | | | |  |  | /  /          
                 / \  \   | |__| |  /  /\  \   | |_| |  |  |/  /          
                |  |  |   |  __  | /  /__\  \  |    /   |      \           
                |  |  |   | |  | | |   __   |  |    \   |  |\   \          
                \     /   | |  | | |  |  |  |  | |\  \  |  | \   \       
                 \___/    |_|  |_| |__|  |__|  |_| \__\ |__|  \__/        
                                                                              
                      - O R C A' S   B I G   F R I E N D -                    
                                      &                                       
                       - I N T E G R A L  F E E D E R -                       
                                                                              
 v1 FN, 2020, v2 2021, v3 2022-2024                                           
------------------------------------------------------------------------------


----------------------
SHARK INTEGRAL PACKAGE
----------------------

Number of atoms                             ...      9
Number of basis functions                   ...     94
Number of shells                            ...     44
Maximum angular momentum                    ...      2
Integral batch strategy                     ... SHARK/LIBINT Hybrid
RI-J (if used) integral strategy            ... SPLIT-RIJ (Revised 2003 algorithm where possible)
Printlevel                                  ...      1
Contraction scheme used                     ... SEGMENTED contraction
Prescreening option                         ... SCHWARTZ
   Thresh                                   ... 2.500e-11
   Tcut                                     ... 2.500e-12
   Tpresel                                  ... 2.500e-12 
Coulomb Range Separation                    ... NOT USED
Exchange Range Separation                   ... NOT USED
Multipole approximations                    ... NOT USED
Finite Nucleus Model                        ... NOT USED
CABS basis                                  ... NOT available
Auxiliary Coulomb fitting basis             ... AVAILABLE
   # of basis functions in Aux-J            ...    291
   # of shells in Aux-J                     ...     97
   Maximum angular momentum in Aux-J        ...      4
Auxiliary J/K fitting basis                 ... NOT available
Auxiliary Correlation fitting basis         ... NOT available
Auxiliary 'external' fitting basis          ... NOT available

Checking pre-screening integrals            ... done (  0.0 sec) Dimension = 44
   => SHARK Basis and OBASIS are compatible. Storing Pre-screening
Shell pair information
Shell pair cut-off parameter TPreSel        ...   2.5e-12
Total number of shell pairs                 ...       990
Shell pairs after pre-screening             ...       977
Total number of primitive shell pairs       ...      3828
Primitive shell pairs kept                  ...      2932
          la=0 lb=0:    290 shell pairs
          la=1 lb=0:    357 shell pairs
          la=1 lb=1:    120 shell pairs
          la=2 lb=0:    120 shell pairs
          la=2 lb=1:     75 shell pairs
          la=2 lb=2:     15 shell pairs

Checking whether 4 symmetric matrices of dimension 94 fit in memory
:Max Core in MB      =   2109.00
 MB in use           =      4.64
 MB left             =   2104.36
 MB needed           =      0.14
 Data fit in memory  = YES
Calculating RI/J V-Matrix + Cholesky decomp.... done (  0.3 sec)
Calculating Nuclear repulsion               ... done (  0.0 sec) ENN=    280.152492099908 Eh

Diagonalization of the overlap matrix:
Smallest eigenvalue                        ... 4.893e-03
Time for diagonalization                   ...    0.002 sec
Threshold for overlap eigenvalues          ... 1.000e-07
Number of eigenvalues below threshold      ... 0
Time for construction of square roots      ...    0.072 sec
Total time needed                          ...    0.113 sec

-------------------
DFT GRID GENERATION
-------------------

General Integration Accuracy     IntAcc      ... 4.388
Radial Grid Type                 RadialGrid  ... OptM3 with GC (2021)
Angular Grid (max. ang.)         AngularGrid ... 4 (Lebedev-302)
Angular grid pruning method      GridPruning ... 4 (adaptive)
Weight generation scheme         WeightScheme... mBecke (2022)
Basis function cutoff            BFCut       ... 1.0000e-11
Integration weight cutoff        WCut        ... 1.0000e-14
Partially contracted basis set               ... off
Rotationally invariant grid construction     ... off
Angular grids for H and He will be reduced by one unit

Total number of grid points                  ...    44689
Total number of batches                      ...      703
Average number of points per batch           ...       63
Average number of grid points per atom       ...     4965

--------------------
COSX GRID GENERATION
--------------------

GRIDX 1
-------
General Integration Accuracy     IntAcc      ... 3.816
Radial Grid Type                 RadialGrid  ... OptM3 with GC (2021)
Angular Grid (max. ang.)         AngularGrid ... 1 (Lebedev-50)
Angular grid pruning method      GridPruning ... 4 (adaptive)
Weight generation scheme         WeightScheme... mBecke (2022)
Basis function cutoff            BFCut       ... 1.0000e-11
Integration weight cutoff        WCut        ... 1.0000e-14
Partially contracted basis set               ... on
Rotationally invariant grid construction     ... off
Angular grids for H and He will be reduced by one unit

Total number of grid points                  ...     6736
Total number of batches                      ...       58
Average number of points per batch           ...      116
Average number of grid points per atom       ...      748
UseSFitting                                  ... on

GRIDX 2
-------
General Integration Accuracy     IntAcc      ... 4.020
Radial Grid Type                 RadialGrid  ... OptM3 with GC (2021)
Angular Grid (max. ang.)         AngularGrid ... 2 (Lebedev-110)
Angular grid pruning method      GridPruning ... 4 (adaptive)
Weight generation scheme         WeightScheme... mBecke (2022)
Basis function cutoff            BFCut       ... 1.0000e-11
Integration weight cutoff        WCut        ... 1.0000e-14
Partially contracted basis set               ... on
Rotationally invariant grid construction     ... off
Angular grids for H and He will be reduced by one unit

Total number of grid points                  ...    12454
Total number of batches                      ...      100
Average number of points per batch           ...      124
Average number of grid points per atom       ...     1384
UseSFitting                                  ... on

GRIDX 3
-------
General Integration Accuracy     IntAcc      ... 4.338
Radial Grid Type                 RadialGrid  ... OptM3 with GC (2021)
Angular Grid (max. ang.)         AngularGrid ... 3 (Lebedev-194)
Angular grid pruning method      GridPruning ... 4 (adaptive)
Weight generation scheme         WeightScheme... mBecke (2022)
Basis function cutoff            BFCut       ... 1.0000e-11
Integration weight cutoff        WCut        ... 1.0000e-14
Partially contracted basis set               ... on
Rotationally invariant grid construction     ... off
Angular grids for H and He will be reduced by one unit

Total number of grid points                  ...    28118
Total number of batches                      ...      225
Average number of points per batch           ...      124
Average number of grid points per atom       ...     3124
UseSFitting                                  ... on
Grids setup in   1.1 sec
Initializing property integral containers    ... done (  0.0 sec)

SHARK setup successfully completed in   1.9 seconds

Maximum memory used throughout the entire STARTUP-calculation: 12.9 MB


           ************************************************************
           *        Program running with 64 parallel MPI-processes    *
           *              working on a common directory               *
           ************************************************************
-------------------------------------------------------------------------------
                                 ORCA GUESS
                   Start orbitals & Density for SCF / CASSCF
-------------------------------------------------------------------------------

------------
SCF SETTINGS
------------
Hamiltonian:
 Density Functional     Method          .... DFT(GTOs)
 Exchange Functional    Exchange        .... M062X
 Correlation Functional Correlation     .... M062X
 Gradients option       PostSCFGGA      .... off
 Hybrid DFT is turned on
   Fraction HF Exchange ScalHFX         ....  0.540000
   Scaling of DF-GGA-X  ScalDFX         ....  0.460000
   Scaling of DF-GGA-C  ScalDFC         ....  1.000000
   Scaling of DF-LDA-C  ScalLDAC        ....  1.000000
   Perturbative correction              ....  0.000000
 RI-approximation to the Coulomb term is turned on
   Number of AuxJ basis functions       .... 291
   RIJ-COSX (HFX calculated with COS-X)).... on


General Settings:
 Integral files         IntName         .... /lustre/project/xlzhang/jingyi/chemsmart/test_pka/orca/pka_scale_frag2_pka_HA_opt
 Hartree-Fock type      HFTyp           .... RHF
 Total Charge           Charge          ....    0
 Multiplicity           Mult            ....    1
 Number of Electrons    NEL             ....   50
 Basis Dimension        Dim             ....   94
 Nuclear Repulsion      ENuc            ....    280.1524920999 Eh

Convergence Acceleration:
 AO-DIIS                CNVDIIS         .... on
   Start iteration      DIISMaxIt       ....    12
   Startup error        DIISStart       ....  0.200000
   # of expansion vecs  DIISMaxEq       ....     5
   Bias factor          DIISBfac        ....   1.050
   Max. coefficient     DIISMaxC        ....  10.000
 MO-DIIS                CNVKDIIS        .... off
 Trust-Rad. Augm. Hess. CNVTRAH         .... auto
   Auto Start mean grad. ratio tolernc. ....  1.125000
   Auto Start start iteration           ....    50
   Auto Start num. interpolation iter.  ....    10
   Max. Number of Micro iterations      ....    24
   Max. Number of Macro iterations      .... Maxiter - #DIIS iter
   Number of Davidson start vectors     ....     2
   Converg. threshold    (grad. norm)   ....   1.000e-05
   Grad. Scal. Fac. for Micro threshold ....   0.100
   Minimum threshold for Micro iter.    ....   1.000e-02
   NR start threshold (gradient norm)   ....   1.000e-04
   Initial trust radius                 ....   0.400
   Minimum AH scaling param. (alpha)    ....   1.000
   Maximum AH scaling param. (alpha)    .... 1000.000
   Quad. conv. algorithm                .... NR
   White noise on init. David. guess    .... on
   Maximum white noise                  ....   0.010
   Pseudo random numbers                .... off
   Inactive MOs                         .... canonical
   Orbital update algorithm             .... Taylor
   Preconditioner                       .... Diag
   Full preconditioner red. dimension   ....   250
 SOSCF                 CNVSOSCF           .... on
   Start iteration     SOSCFMaxIt         ....   150
   Startup grad/error  SOSCFStart         ....  0.003300
   Hessian update      SOSCFHessUp        .... L-BFGS
   Autom. constraints  SOSCFAutoConstrain .... off
 Level Shifting         CNVShift        .... on
   Level shift para.    LevelShift      ....    0.2500
   Turn off err/grad.   ShiftErr        ....    0.0010
 Zerner damping         CNVZerner       .... off
 Static damping         CNVDamp         .... on
   Fraction old density DampFac         ....    0.7000
   Max. Damping (<1)    DampMax         ....    0.9800
   Min. Damping (>=0)   DampMin         ....    0.0000
   Turn off err/grad.   DampErr         ....    0.1000

SCF Procedure:
 Maximum # iterations   MaxIter         ....   125
 SCF integral mode      SCFMode         .... Direct
   Integral package                     .... SHARK and LIBINT hybrid scheme
 Reset frequency        DirectResetFreq ....    20
 Integral Threshold     Thresh          ....  2.500e-11 Eh
 Primitive CutOff       TCut            ....  2.500e-12 Eh

Convergence Tolerance:
 Convergence Check Mode ConvCheckMode   .... Total+1el-Energy
 Convergence forced     ConvForced      .... 0
 Energy Change          TolE            ....  1.000e-08 Eh
 1-El. energy change                    ....  1.000e-05 Eh
 Orbital Gradient       TolG            ....  1.000e-05
 Orbital Rotation angle TolX            ....  1.000e-05
 DIIS Error             TolErr          ....  5.000e-07

------------------------------
INITIAL GUESS: MODEL POTENTIAL
------------------------------
Loading Hartree-Fock densities                     ... done
Calculating cut-offs                               ... done
Initializing the effective Hamiltonian             ... done
Setting up the integral package (SHARK)            ... done
Starting the Coulomb interaction                   ... done (   0.1 sec)
Making the grid                                    ... done (   0.2 sec)
Mapping shells                                     ... done
Starting the XC term evaluation                    ... done (   0.0 sec)
  promolecular density results
     # of electrons  =     49.999314382
     EX              =    -55.760522203
     EC              =     -1.784600957
     EX+EC           =    -57.545123159
Transforming the Hamiltonian                       ... done (   0.1 sec)
Diagonalizing the Hamiltonian                      ... done (   0.0 sec)
Back transforming the eigenvectors                 ... done (   0.1 sec)
Now organizing SCF variables                       ... done
                      ------------------
                      INITIAL GUESS DONE (   0.8 sec)
                      ------------------
             **** ENERGY FILE WAS UPDATED (/lustre/project/xlzhang/jingyi/chemsmart/test_pka/orca/pka_scale_frag2_pka_HA_opt.en.tmp) ****
Finished Guess after   4.6 sec
Maximum memory used throughout the entire GUESS-calculation: 6.9 MB


           ************************************************************
           *        Program running with 64 parallel MPI-processes    *
           *              working on a common directory               *
           ************************************************************

-------------------------------------------------------------------------------------------
                                      ORCA LEAN-SCF
                              memory conserving SCF solver
-------------------------------------------------------------------------------------------

----------------------------------------D-I-I-S--------------------------------------------
Iteration    Energy (Eh)           Delta-E    RMSDP     MaxDP     DIISErr   Damp  Time(sec)
-------------------------------------------------------------------------------------------
               ***  Starting incremental Fock matrix formation  ***
    1    -663.5564573632570955     0.00e+00  5.24e-02  1.54e-01  2.68e-01  0.700   1.2
    2    -663.6904497321811505    -1.34e-01  3.15e-02  7.98e-02  1.23e-01  0.700   0.7
                               ***Turning on AO-DIIS***
    3    -663.7428922355009036    -5.24e-02  9.39e-03  2.01e-02  4.22e-02  0.700   0.5
    4    -663.7748310585773197    -3.19e-02  1.46e-02  2.87e-02  2.34e-02  0.000   0.4
    5    -663.8453109561517067    -7.05e-02  2.87e-03  7.77e-03  7.60e-03  0.000   0.4
                              *** Initializing SOSCF ***
---------------------------------------S-O-S-C-F--------------------------------------
Iteration    Energy (Eh)           Delta-E    RMSDP     MaxDP     MaxGrad    Time(sec)
--------------------------------------------------------------------------------------
    6    -663.8454663415996038    -1.55e-04  7.63e-04  1.39e-03  7.31e-04     0.5
               *** Restarting incremental Fock matrix formation ***
    7    -663.8455122978796226    -4.60e-05  4.42e-04  7.02e-04  2.31e-04     0.7
    8    -663.8455131400905884    -8.42e-07  2.38e-04  3.73e-04  1.60e-04     0.7
    9    -663.8455139762038471    -8.36e-07  6.94e-05  1.96e-04  2.87e-05     1.1
   10    -663.8455140051689796    -2.90e-08  1.91e-05  6.07e-05  1.41e-05     0.8
   11    -663.8455140112566824    -6.09e-09  9.25e-06  1.44e-05  4.90e-06     0.6
                 **** Energy Check signals convergence ****

               *****************************************************
               *                     SUCCESS                       *
               *           SCF CONVERGED AFTER  11 CYCLES          *
               *****************************************************

Recomputing exchange energy using gridx3       ... done (    0.073 sec)
Old exchange energy                            :    -30.456812558 Eh
New exchange energy                            :    -30.456724775 Eh
Exchange energy change after final integration :      0.000087783 Eh
Total energy after final integration           :   -663.845426229 Eh
             **** ENERGY FILE WAS UPDATED (/lustre/project/xlzhang/jingyi/chemsmart/test_pka/orca/pka_scale_frag2_pka_HA_opt.en.tmp) ****

----------------
TOTAL SCF ENERGY
----------------

Total Energy       :       -663.84542622859681 Eh          -18064.15241 eV

Components:
Nuclear Repulsion  :        280.15249209990844 Eh            7623.33687 eV
Electronic Energy  :       -943.99800611162038 Eh          -25687.49167 eV
One Electron Energy:      -1469.07414510807348 Eh          -39975.53981 eV
Two Electron Energy:        525.07613899645310 Eh           14288.04813 eV

Virial components:
Potential Energy   :      -1324.99449800429784 Eh          -36054.93329 eV
Kinetic Energy     :        661.14907177570103 Eh           17990.78088 eV
Virial Ratio       :          2.00407828516745

DFT components:
N(Alpha)           :       25.000000710885 electrons
N(Beta)            :       25.000000710885 electrons
N(Total)           :       50.000001421771 electrons
E(XC)              :      -27.923720114022 Eh       

---------------
SCF CONVERGENCE
---------------

  Last Energy change         ...    6.0877e-09  Tolerance :   1.0000e-08
  Last MAX-Density change    ...    1.4372e-05  Tolerance :   1.0000e-07
  Last RMS-Density change    ...    9.2516e-06  Tolerance :   5.0000e-09
  Last DIIS Error            ...    7.3093e-04  Tolerance :   5.0000e-07
  Last Orbital Gradient      ...    4.9043e-06  Tolerance :   1.0000e-05
  Last Orbital Rotation      ...    5.9077e-06  Tolerance :   1.0000e-05


----------------
ORBITAL ENERGIES
----------------

  NO   OCC          E(Eh)            E(eV) 
   0   2.0000     -90.155036     -2453.2433 
   1   2.0000     -19.689570      -535.7805 
   2   2.0000     -19.634663      -534.2864 
   3   2.0000     -19.633195      -534.2464 
   4   2.0000     -10.603447      -288.5345 
   5   2.0000      -8.487406      -230.9541 
   6   2.0000      -6.413630      -174.5237 
   7   2.0000      -6.410764      -174.4458 
   8   2.0000      -6.409794      -174.4194 
   9   2.0000      -1.274872       -34.6910 
  10   2.0000      -1.151681       -31.3388 
  11   2.0000      -1.128401       -30.7054 
  12   2.0000      -0.880829       -23.9686 
  13   2.0000      -0.734454       -19.9855 
  14   2.0000      -0.629234       -17.1223 
  15   2.0000      -0.596684       -16.2366 
  16   2.0000      -0.574118       -15.6225 
  17   2.0000      -0.534394       -14.5416 
  18   2.0000      -0.521624       -14.1941 
  19   2.0000      -0.508134       -13.8270 
  20   2.0000      -0.459715       -12.5095 
  21   2.0000      -0.424314       -11.5462 
  22   2.0000      -0.403107       -10.9691 
  23   2.0000      -0.394541       -10.7360 
  24   2.0000      -0.382483       -10.4079 
  25   0.0000       0.067901         1.8477 
  26   0.0000       0.094511         2.5718 
  27   0.0000       0.119307         3.2465 
  28   0.0000       0.131514         3.5787 
  29   0.0000       0.133947         3.6449 
  30   0.0000       0.156443         4.2570 
  31   0.0000       0.165863         4.5134 
  32   0.0000       0.208451         5.6722 
  33   0.0000       0.445766        12.1299 
  34   0.0000       0.450664        12.2632 
  35   0.0000       0.467503        12.7214 
*Only the first 10 virtual orbitals were printed.

                    ********************************
                    * MULLIKEN POPULATION ANALYSIS *
                    ********************************

-----------------------
MULLIKEN ATOMIC CHARGES
-----------------------
   0 C :   -0.110806
   1 S :    0.927150
   2 O :   -0.497301
   3 O :   -0.466053
   4 O :   -0.395339
   5 H :    0.109249
   6 H :    0.105582
   7 H :    0.093483
   8 H :    0.234036
Sum of atomic charges:    0.0000000

--------------------------------
MULLIKEN REDUCED ORBITAL CHARGES
--------------------------------
  0 C s       :     3.073270  s :     3.073270
      pz      :     1.056680  p :     3.014874
      px      :     0.891102
      py      :     1.067093
      dz2     :     0.006241  d :     0.022661
      dxz     :     0.002750
      dyz     :     0.003596
      dx2y2   :     0.006488
      dxy     :     0.003585

  1 S s       :     5.320400  s :     5.320400
      pz      :     2.936215  p :     8.975354
      px      :     3.095945
      py      :     2.943193
      dz2     :     0.173533  d :     0.777096
      dxz     :     0.147002
      dyz     :     0.190849
      dx2y2   :     0.151306
      dxy     :     0.114407

  2 O s       :     3.850311  s :     3.850311
      pz      :     1.263817  p :     4.627286
      px      :     1.692620
      py      :     1.670849
      dz2     :     0.008515  d :     0.019705
      dxz     :     0.005448
      dyz     :     0.005438
      dx2y2   :     0.000140
      dxy     :     0.000163

  3 O s       :     3.849441  s :     3.849441
      pz      :     1.566753  p :     4.596646
      px      :     1.635730
      py      :     1.394163
      dz2     :     0.003041  d :     0.019966
      dxz     :     0.002295
      dyz     :     0.005475
      dx2y2   :     0.004607
      dxy     :     0.004548

  4 O s       :     3.751525  s :     3.751525
      pz      :     1.561468  p :     4.630292
      px      :     1.662377
      py      :     1.406447
      dz2     :     0.002620  d :     0.013522
      dxz     :     0.003227
      dyz     :     0.004574
      dx2y2   :     0.001621
      dxy     :     0.001481

  5 H s       :     0.867217  s :     0.867217
      pz      :     0.005627  p :     0.023534
      px      :     0.007242
      py      :     0.010664

  6 H s       :     0.871320  s :     0.871320
      pz      :     0.015907  p :     0.023098
      px      :     0.003248
      py      :     0.003943

  7 H s       :     0.883651  s :     0.883651
      pz      :     0.005592  p :     0.022867
      px      :     0.004330
      py      :     0.012944

  8 H s       :     0.701460  s :     0.701460
      pz      :     0.024036  p :     0.064504
      px      :     0.021297
      py      :     0.019171



                     *******************************
                     * LOEWDIN POPULATION ANALYSIS *
                     *******************************

----------------------
LOEWDIN ATOMIC CHARGES
----------------------
   0 C :   -0.171430
   1 S :    1.219462
   2 O :   -0.523294
   3 O :   -0.498623
   4 O :   -0.276107
   5 H :    0.051025
   6 H :    0.050897
   7 H :    0.046834
   8 H :    0.101236

-------------------------------
LOEWDIN REDUCED ORBITAL CHARGES
-------------------------------
  0 C s       :     2.900909  s :     2.900909
      pz      :     1.100903  p :     3.209601
      px      :     1.003494
      py      :     1.105204
      dz2     :     0.017451  d :     0.060921
      dxz     :     0.007270
      dyz     :     0.008672
      dx2y2   :     0.016656
      dxy     :     0.010872

  1 S s       :     5.021669  s :     5.021669
      pz      :     2.902135  p :     8.750743
      px      :     2.976598
      py      :     2.872010
      dz2     :     0.234635  d :     1.008127
      dxz     :     0.178779
      dyz     :     0.247539
      dx2y2   :     0.201730
      dxy     :     0.145445

  2 O s       :     3.677923  s :     3.677923
      pz      :     1.421169  p :     4.815004
      px      :     1.701675
      py      :     1.692160
      dz2     :     0.016806  d :     0.030367
      dxz     :     0.006401
      dyz     :     0.006766
      dx2y2   :     0.000194
      dxy     :     0.000199

  3 O s       :     3.679553  s :     3.679553
      pz      :     1.618269  p :     4.788397
      px      :     1.663833
      py      :     1.506295
      dz2     :     0.003803  d :     0.030672
      dxz     :     0.003341
      dyz     :     0.009697
      dx2y2   :     0.006639
      dxy     :     0.007192

  4 O s       :     3.524566  s :     3.524566
      pz      :     1.618979  p :     4.729143
      px      :     1.660998
      py      :     1.449166
      dz2     :     0.003357  d :     0.022398
      dxz     :     0.005081
      dyz     :     0.007740
      dx2y2   :     0.002990
      dxy     :     0.003231

  5 H s       :     0.878708  s :     0.878708
      pz      :     0.016249  p :     0.070268
      px      :     0.023941
      py      :     0.030077

  6 H s       :     0.878087  s :     0.878087
      pz      :     0.045819  p :     0.071016
      px      :     0.012895
      py      :     0.012302

  7 H s       :     0.882628  s :     0.882628
      pz      :     0.016756  p :     0.070538
      px      :     0.016739
      py      :     0.037043

  8 H s       :     0.721645  s :     0.721645
      pz      :     0.067800  p :     0.177118
      px      :     0.058471
      py      :     0.050848



                      *****************************
                      * MAYER POPULATION ANALYSIS *
                      *****************************

  NA   - Mulliken gross atomic population
  ZA   - Total nuclear charge
  QA   - Mulliken gross atomic charge
  VA   - Mayer's total valence
  BVA  - Mayer's bonded valence
  FA   - Mayer's free valence

  ATOM       NA         ZA         QA         VA         BVA        FA
  0 C      6.1108     6.0000    -0.1108     3.8781     3.8781     0.0000
  1 S     15.0729    16.0000     0.9271     5.4272     5.4272     0.0000
  2 O      8.4973     8.0000    -0.4973     1.8983     1.8983     0.0000
  3 O      8.4661     8.0000    -0.4661     1.9383     1.9383     0.0000
  4 O      8.3953     8.0000    -0.3953     1.9699     1.9699     0.0000
  5 H      0.8908     1.0000     0.1092     0.9897     0.9897     0.0000
  6 H      0.8944     1.0000     0.1056     0.9899     0.9899     0.0000
  7 H      0.9065     1.0000     0.0935     0.9961     0.9961     0.0000
  8 H      0.7660     1.0000     0.2340     0.9990     0.9990     0.0000

  Mayer bond orders larger than 0.100000
B(  0-C ,  1-S ) :   0.9223 B(  0-C ,  5-H ) :   0.9551 B(  0-C ,  6-H ) :   0.9490 
B(  0-C ,  7-H ) :   0.9501 B(  1-S ,  2-O ) :   1.7097 B(  1-S ,  3-O ) :   1.7656 
B(  1-S ,  4-O ) :   0.9415 B(  4-O ,  8-H ) :   0.9292 

-------
TIMINGS
-------

Total SCF time: 0 days 0 hours 0 min 11 sec 

Total time                  ....      11.059 sec
Sum of individual times     ....      10.197 sec  ( 92.2%)

SCF preparation             ....       2.365 sec  ( 21.4%)
Fock matrix formation       ....       6.595 sec  ( 59.6%)
  Startup                   ....       0.095 sec  (  1.4% of F)
  Split-RI-J                ....       0.624 sec  (  9.5% of F)
  Chain of spheres X        ....       0.840 sec  ( 12.7% of F)
  XC integration            ....       4.109 sec  ( 62.3% of F)
    XC Preparation          ....       0.000 sec  (  0.0% of XC)
    Basis function eval.    ....       0.014 sec  (  0.4% of XC)
    Density eval.           ....       0.016 sec  (  0.4% of XC)
    XC-Functional eval.     ....       0.008 sec  (  0.2% of XC)
    XC-Potential eval.      ....       0.018 sec  (  0.4% of XC)
Diagonalization             ....       0.000 sec  (  0.0%)
Density matrix formation    ....       0.161 sec  (  1.5%)
Total Energy calculation    ....       0.211 sec  (  1.9%)
Population analysis         ....       0.223 sec  (  2.0%)
Orbital Transformation      ....       0.128 sec  (  1.2%)
Orbital Orthonormalization  ....       0.000 sec  (  0.0%)
DIIS solution               ....       0.164 sec  (  1.5%)
SOSCF solution              ....       0.351 sec  (  3.2%)
Finished LeanSCF after  11.3 sec

Maximum memory used throughout the entire LEANSCF-calculation: 7.9 MB


           ************************************************************
           *        Program running with 64 parallel MPI-processes    *
           *              working on a common directory               *
           ************************************************************

------------------------------------------------------------------------------
                         ORCA PROPERTY INTEGRAL CALCULATIONS
------------------------------------------------------------------------------

GBWName                                   ... /lustre/project/xlzhang/jingyi/chemsmart/test_pka/orca/pka_scale_frag2_pka_HA_opt.gbw
Number of atoms                           ...      9
Number of basis functions                 ...     94
Max core memory                           ...   2109 MB

Dipole integrals                          ... YES
Quadrupole integrals                      ...  NO
Linear momentum integrals                 ...  NO
Angular momentum integrals                ...  NO
Higher moments length integrals           ...  NO
Higher moments velocity integrals         ...  NO
Kinetic energy integrals                  ...  NO
GIAO right hand sides                     ...  NO
GIAO dipole derivative integrals          ...  NO
SOC integrals                             ...  NO
EPR diamagnetic integrals (GIAO)          ...  NO
EPR gauge integrals                       ...  NO
Field gradient integrals                  ...  NO (   0 nuclei)
Spin-dipole/Fermi contact integrals       ...  NO (   0 nuclei)
Contact density integrals                 ...  NO (   0 nuclei)
Nucleus-orbit integrals                   ...  NO (   0 nuclei)
Geometric perturbations                   ...  NO (   9 nuclei)

Choice of electric origin   ... Center of mass
Position of electric origin ... (  1.0277,  0.4824,  0.3174) 
Choice of magnetic origin   ... GIAO
Position of magnetic origin ... (  0.0000,  0.0000,  0.0000) 

Calculating integrals                     ... Electric Dipole (Length)     done (  0.0 sec)

Property integrals calculated in   0.0 sec

Maximum memory used throughout the entire PROPINT-calculation: 7.0 MB

-------------------------   --------------------
FINAL SINGLE POINT ENERGY      -663.845426228597
-------------------------   --------------------



           ************************************************************
           *        Program running with 64 parallel MPI-processes    *
           *              working on a common directory               *
           ************************************************************
------------------------------------------------------------------------------
                         ORCA SCF GRADIENT CALCULATION
------------------------------------------------------------------------------

Nuc. rep. gradient        (SHARK) ... done (  0.0 sec)
HCore & Overlap gradient  (SHARK) ... done (  0.0 sec)
Split-RIJ-J gradient      (SHARK) ... done (  0.4 sec)
done (  0.6 sec)
XC gradient                       ... done (  0.1 sec)

------------------
CARTESIAN GRADIENT
------------------

   1   C   :    0.000532528   -0.002632857   -0.000077688
   2   S   :    0.003570638    0.001272211    0.007120728
   3   O   :   -0.001041574   -0.004341884   -0.004618112
   4   O   :    0.003973160    0.004003324   -0.005334042
   5   O   :   -0.009810328    0.008795241   -0.004089366
   6   H   :    0.000013422   -0.003575802   -0.001619229
   7   H   :   -0.001694188   -0.000241627    0.002895047
   8   H   :   -0.001265758    0.002289728   -0.001778459
   9   H   :    0.005722099   -0.005568333    0.007501121

Difference to translation invariance:
           :    0.0000000002    0.0000000001   -0.0000000002

Difference to rotation invariance:
           :    0.0003826958    0.0001359316   -0.0000384488

Norm of the Cartesian gradient     ...    0.0228229334
RMS gradient                       ...    0.0043922756
MAX gradient                       ...    0.0098103283

-------
TIMINGS
-------

Total SCF gradient time     ....        1.070 sec

Densities                   ....       0.014 sec  (  1.3%)
One electron gradient       ....       0.018 sec  (  1.7%)
RI-J Coulomb gradient       ....       0.380 sec  ( 35.5%)
COSX gradient               ....       0.553 sec  ( 51.7%)
XC gradient                 ....       0.103 sec  (  9.6%)

Maximum memory used throughout the entire SCFGRAD-calculation: 10.3 MB
------------------------------------------------------------------------------
                         ORCA GEOMETRY RELAXATION STEP
------------------------------------------------------------------------------

Reading the OPT-File                    .... done
Getting information on internals        .... done
Copying old internal coords+grads       .... done
Making the new internal coordinates     .... (2022 redundants) done
Validating the new internal coordinates .... (2022 redundants) done
Calculating the B-matrix                .... done
Calculating the G,G- and P matrices     .... done
Transforming gradient to internals      .... done
Projecting the internal gradient        .... done
Number of atoms                         ....   9
Number of internal coordinates          ....  30
Current Energy                          ....  -663.845426229 Eh
Current gradient norm                   ....     0.022822933 Eh/bohr
Maximum allowed component of the step   ....  0.300
Current trust radius                    ....  0.300
Evaluating the initial hessian          ....  (Almloef) done
Projecting the Hessian                  .... done
Forming the augmented Hessian           .... done
Diagonalizing the augmented Hessian     .... done
Last element of RFO vector              ....  0.997827878
Lowest eigenvalues of augmented Hessian:
 -0.000980551  0.010009967  0.010072275  0.140252287  0.142562476
Length of the computed step             ....  0.066018480
The final length of the internal step   ....  0.066018480
Converting the step to Cartesian space:
 Initial RMS(Int)=    0.0120532703
Transforming coordinates:
 Iter   0:  RMS(Cart)=    0.0165327613 RMS(Int)=    0.0120431658
done
Storing new coordinates                 .... done

                                .--------------------.
          ----------------------|Geometry convergence|-------------------------
          Item                value                   Tolerance       Converged
          ---------------------------------------------------------------------
          RMS gradient        0.0036019449            0.0001000000      NO
          MAX gradient        0.0109618096            0.0003000000      NO
          RMS step            0.0120532703            0.0020000000      NO
          MAX step            0.0273717023            0.0040000000      NO
          -------------------------------------------------------------------------
          ........................................................
          Max(Bonds)      0.0121      Max(Angles)    1.07
          Max(Dihed)        1.57      Max(Improp)    0.00
          ---------------------------------------------------------------------

The optimization has not yet converged - more geometry cycles are needed


    ---------------------------------------------------------------------------
                         Redundant Internal Coordinates
                            (Angstroem and degrees)

        Definition                    Value    dE/dq     Step     New-Value
    ----------------------------------------------------------------------------
     1. B(S   1,C   0)                1.7778  0.003095 -0.0040    1.7737   
     2. B(O   2,S   1)                1.4450 -0.004139  0.0018    1.4468   
     3. B(O   3,S   1)                1.4434  0.007211 -0.0031    1.4403   
     4. B(O   4,S   1)                1.6141 -0.005688  0.0045    1.6187   
     5. B(H   5,C   0)                1.0919 -0.003285  0.0048    1.0967   
     6. B(H   6,C   0)                1.0915 -0.002800  0.0041    1.0956   
     7. B(H   7,C   0)                1.0915 -0.002279  0.0034    1.0949   
     8. B(H   8,O   4)                0.9816  0.010962 -0.0121    0.9696   
     9. A(S   1,C   0,H   7)          108.88  0.002349   -0.41    108.47   
    10. A(S   1,C   0,H   6)          108.82  0.001904   -0.36    108.47   
    11. A(H   6,C   0,H   7)          110.95 -0.002110    0.38    111.33   
    12. A(H   5,C   0,H   7)          110.05 -0.002367    0.45    110.51   
    13. A(H   5,C   0,H   6)          110.06 -0.001862    0.30    110.36   
    14. A(S   1,C   0,H   5)          108.01  0.002310   -0.41    107.60   
    15. A(O   2,S   1,O   3)          122.71  0.002247   -0.74    121.98   
    16. A(C   0,S   1,O   2)          109.53 -0.001489    0.09    109.62   
    17. A(O   2,S   1,O   4)          105.78 -0.003053    0.69    106.47   
    18. A(C   0,S   1,O   4)           97.98 -0.005217    1.07     99.05   
    19. A(C   0,S   1,O   3)          109.69  0.003396   -0.71    108.98   
    20. A(O   3,S   1,O   4)          108.21  0.002186    0.09    108.30   
    21. A(S   1,O   4,H   8)          107.84  0.000780   -0.11    107.73   
    22. D(O   2,S   1,C   0,H   6)   -171.52  0.002364   -0.11   -171.63   
    23. D(O   3,S   1,C   0,H   5)    -68.38 -0.002698    1.57    -66.81   
    24. D(O   2,S   1,C   0,H   5)     69.01  0.002190   -0.03     68.98   
    25. D(O   3,S   1,C   0,H   6)     51.08 -0.002524    1.50     52.58   
    26. D(O   3,S   1,C   0,H   7)    172.13 -0.002523    1.49    173.63   
    27. D(O   2,S   1,C   0,H   7)    -50.47  0.002365   -0.11    -50.58   
    28. D(H   8,O   4,S   1,C   0)   -125.96  0.002081    0.14   -125.82   
    29. D(H   8,O   4,S   1,O   3)    120.19 -0.000089    0.44    120.64   
    30. D(H   8,O   4,S   1,O   2)    -12.98 -0.002260    0.81    -12.17   
    ----------------------------------------------------------------------------

Geometry step timings:
Preparation and reading OPT file:      0.000 s ( 0.510 %)
Internal coordinates            :      0.001 s ( 7.078 %)
B/P matrices and projection     :      0.001 s ( 4.668 %)
Hessian update/contruction      :      0.007 s (49.847 %)
Making the step                 :      0.001 s (10.224 %)
Converting the step to Cartesian:      0.001 s ( 9.256 %)
Storing new data                :      0.001 s ( 7.166 %)
Checking convergence            :      0.000 s ( 0.306 %)
Final printing                  :      0.001 s ( 7.115 %)
Total time                      :      0.014 s

Time for energy+gradient        :     34.125 s
Time for complete geometry iter :     43.491 s

         *************************************************************
         *                GEOMETRY OPTIMIZATION CYCLE   2            *
         *************************************************************
---------------------------------
CARTESIAN COORDINATES (ANGSTROEM)
---------------------------------
  C     -1.098987    0.104182   -0.252468
  S      0.586806    0.364042    0.234106
  O      0.708629    0.204791    1.666896
  O      1.098384    1.523291   -0.450627
  O      1.250054   -0.953704   -0.432061
  H     -1.689191    0.943355    0.135220
  H     -1.144437    0.079661   -1.346884
  H     -1.443621   -0.840028    0.181640
  H      1.732363   -1.425590    0.264179

----------------------------
CARTESIAN COORDINATES (A.U.)
----------------------------
  NO LB      ZA    FRAG     MASS         X           Y           Z
   0 C     6.0000    0    12.011   -2.076784    0.196875   -0.477095
   1 S    16.0000    0    32.060    1.108903    0.687940    0.442395
   2 O     8.0000    0    15.999    1.339115    0.386998    3.149977
   3 O     8.0000    0    15.999    2.075645    2.878603   -0.851562
   4 O     8.0000    0    15.999    2.362261   -1.802240   -0.816478
   5 H     1.0000    0     1.008   -3.192109    1.782683    0.255529
   6 H     1.0000    0     1.008   -2.162673    0.150537   -2.545242
   7 H     1.0000    0     1.008   -2.728049   -1.587424    0.343249
   8 H     1.0000    0     1.008    3.273691   -2.693974    0.499226

--------------------------------
INTERNAL COORDINATES (ANGSTROEM)
--------------------------------
 C      0   0   0     0.000000000000     0.00000000     0.00000000
 S      1   0   0     1.773747270946     0.00000000     0.00000000
 O      2   1   0     1.446751857655   109.60751633     0.00000000
 O      2   1   3     1.440287505251   108.97044417   224.20522415
 O      2   1   3     1.618682265363    99.04820812   111.18827295
 H      1   2   3     1.096747755427   107.60122704    68.98418722
 H      1   2   3     1.095633916099   108.46463850   188.37229665
 H      1   2   3     1.094876667649   108.46588211   309.41970027
 H      5   2   1     0.969560936691   107.72875730   234.17480868

---------------------------
INTERNAL COORDINATES (A.U.)
---------------------------
 C      0   0   0     0.000000000000     0.00000000     0.00000000
 S      1   0   0     3.351896572877     0.00000000     0.00000000
 O      2   1   0     2.733964794709   109.60751633     0.00000000
 O      2   1   3     2.721748939034   108.97044417   224.20522415
 O      2   1   3     3.058866179371    99.04820812   111.18827295
 H      1   2   3     2.072552895750   107.60122704    68.98418722
 H      1   2   3     2.070448044462   108.46463850   188.37229665
 H      1   2   3     2.069017052277   108.46588211   309.41970027
 H      5   2   1     1.832204640494   107.72875730   234.17480868



           ************************************************************
           *        Program running with 64 parallel MPI-processes    *
           *              working on a common directory               *
           ************************************************************
------------------------------------------------------------------------------
                   ___                                                        
                  /   \      - P O W E R E D   B Y -                         
                 /     \                                                     
                 |  |  |   _    _      __       _____    __    __             
                 |  |  |  | |  | |    /  \     |  _  \  |  |  /  |          
                  \  \/   | |  | |   /    \    | | | |  |  | /  /          
                 / \  \   | |__| |  /  /\  \   | |_| |  |  |/  /          
                |  |  |   |  __  | /  /__\  \  |    /   |      \           
                |  |  |   | |  | | |   __   |  |    \   |  |\   \          
                \     /   | |  | | |  |  |  |  | |\  \  |  | \   \       
                 \___/    |_|  |_| |__|  |__|  |_| \__\ |__|  \__/        
                                                                              
                      - O R C A' S   B I G   F R I E N D -                    
                                      &                                       
                       - I N T E G R A L  F E E D E R -                       
                                                                              
 v1 FN, 2020, v2 2021, v3 2022-2024                                           
------------------------------------------------------------------------------


----------------------
SHARK INTEGRAL PACKAGE
----------------------

Number of atoms                             ...      9
Number of basis functions                   ...     94
Number of shells                            ...     44
Maximum angular momentum                    ...      2
Integral batch strategy                     ... SHARK/LIBINT Hybrid
RI-J (if used) integral strategy            ... SPLIT-RIJ (Revised 2003 algorithm where possible)
Printlevel                                  ...      1
Contraction scheme used                     ... SEGMENTED contraction
Prescreening option                         ... SCHWARTZ
   Thresh                                   ... 2.500e-11
   Tcut                                     ... 2.500e-12
   Tpresel                                  ... 2.500e-12 
Coulomb Range Separation                    ... NOT USED
Exchange Range Separation                   ... NOT USED
Multipole approximations                    ... NOT USED
Finite Nucleus Model                        ... NOT USED
CABS basis                                  ... NOT available
Auxiliary Coulomb fitting basis             ... AVAILABLE
   # of basis functions in Aux-J            ...    291
   # of shells in Aux-J                     ...     97
   Maximum angular momentum in Aux-J        ...      4
Auxiliary J/K fitting basis                 ... NOT available
Auxiliary Correlation fitting basis         ... NOT available
Auxiliary 'external' fitting basis          ... NOT available

Checking pre-screening integrals            ... done (  0.0 sec) Dimension = 44
   => SHARK Basis and OBASIS are compatible. Storing Pre-screening
Shell pair information
Shell pair cut-off parameter TPreSel        ...   2.5e-12
Total number of shell pairs                 ...       990
Shell pairs after pre-screening             ...       977
Total number of primitive shell pairs       ...      3828
Primitive shell pairs kept                  ...      2935
          la=0 lb=0:    290 shell pairs
          la=1 lb=0:    357 shell pairs
          la=1 lb=1:    120 shell pairs
          la=2 lb=0:    120 shell pairs
          la=2 lb=1:     75 shell pairs
          la=2 lb=2:     15 shell pairs

Checking whether 4 symmetric matrices of dimension 94 fit in memory
:Max Core in MB      =   2109.00
 MB in use           =      4.63
 MB left             =   2104.37
 MB needed           =      0.14
 Data fit in memory  = YES
Calculating RI/J V-Matrix + Cholesky decomp.... done (  0.3 sec)
Calculating Nuclear repulsion               ... done (  0.0 sec) ENN=    280.127011183952 Eh

Diagonalization of the overlap matrix:
Smallest eigenvalue                        ... 4.925e-03
Time for diagonalization                   ...    0.003 sec
Threshold for overlap eigenvalues          ... 1.000e-07
Number of eigenvalues below threshold      ... 0
Time for construction of square roots      ...    0.044 sec
Total time needed                          ...    0.091 sec

-------------------
DFT GRID GENERATION
-------------------

General Integration Accuracy     IntAcc      ... 4.388
Radial Grid Type                 RadialGrid  ... OptM3 with GC (2021)
Angular Grid (max. ang.)         AngularGrid ... 4 (Lebedev-302)
Angular grid pruning method      GridPruning ... 4 (adaptive)
Weight generation scheme         WeightScheme... mBecke (2022)
Basis function cutoff            BFCut       ... 1.0000e-11
Integration weight cutoff        WCut        ... 1.0000e-14
Partially contracted basis set               ... off
Rotationally invariant grid construction     ... off
Angular grids for H and He will be reduced by one unit

Total number of grid points                  ...    44691
Total number of batches                      ...      703
Average number of points per batch           ...       63
Average number of grid points per atom       ...     4966

--------------------
COSX GRID GENERATION
--------------------

GRIDX 1
-------
General Integration Accuracy     IntAcc      ... 3.816
Radial Grid Type                 RadialGrid  ... OptM3 with GC (2021)
Angular Grid (max. ang.)         AngularGrid ... 1 (Lebedev-50)
Angular grid pruning method      GridPruning ... 4 (adaptive)
Weight generation scheme         WeightScheme... mBecke (2022)
Basis function cutoff            BFCut       ... 1.0000e-11
Integration weight cutoff        WCut        ... 1.0000e-14
Partially contracted basis set               ... on
Rotationally invariant grid construction     ... off
Angular grids for H and He will be reduced by one unit

Total number of grid points                  ...     6738
Total number of batches                      ...       57
Average number of points per batch           ...      118
Average number of grid points per atom       ...      749
UseSFitting                                  ... on

GRIDX 2
-------
General Integration Accuracy     IntAcc      ... 4.020
Radial Grid Type                 RadialGrid  ... OptM3 with GC (2021)
Angular Grid (max. ang.)         AngularGrid ... 2 (Lebedev-110)
Angular grid pruning method      GridPruning ... 4 (adaptive)
Weight generation scheme         WeightScheme... mBecke (2022)
Basis function cutoff            BFCut       ... 1.0000e-11
Integration weight cutoff        WCut        ... 1.0000e-14
Partially contracted basis set               ... on
Rotationally invariant grid construction     ... off
Angular grids for H and He will be reduced by one unit

Total number of grid points                  ...    12452
Total number of batches                      ...      100
Average number of points per batch           ...      124
Average number of grid points per atom       ...     1384
UseSFitting                                  ... on

GRIDX 3
-------
General Integration Accuracy     IntAcc      ... 4.338
Radial Grid Type                 RadialGrid  ... OptM3 with GC (2021)
Angular Grid (max. ang.)         AngularGrid ... 3 (Lebedev-194)
Angular grid pruning method      GridPruning ... 4 (adaptive)
Weight generation scheme         WeightScheme... mBecke (2022)
Basis function cutoff            BFCut       ... 1.0000e-11
Integration weight cutoff        WCut        ... 1.0000e-14
Partially contracted basis set               ... on
Rotationally invariant grid construction     ... off
Angular grids for H and He will be reduced by one unit

Total number of grid points                  ...    28127
Total number of batches                      ...      225
Average number of points per batch           ...      125
Average number of grid points per atom       ...     3125
UseSFitting                                  ... on
Grids setup in   1.2 sec
Initializing property integral containers    ... done (  0.2 sec)

SHARK setup successfully completed in   2.1 seconds

Maximum memory used throughout the entire STARTUP-calculation: 12.9 MB


           ************************************************************
           *        Program running with 64 parallel MPI-processes    *
           *              working on a common directory               *
           ************************************************************
Occupation numbers will be reassigned to an Aufbau configuration
             **** ENERGY FILE WAS UPDATED (/lustre/project/xlzhang/jingyi/chemsmart/test_pka/orca/pka_scale_frag2_pka_HA_opt.en.tmp) ****
Finished Guess after   2.2 sec
Maximum memory used throughout the entire GUESS-calculation: 6.9 MB


           ************************************************************
           *        Program running with 64 parallel MPI-processes    *
           *              working on a common directory               *
           ************************************************************
----------------------------------------D-I-I-S--------------------------------------------
Iteration    Energy (Eh)           Delta-E    RMSDP     MaxDP     DIISErr   Damp  Time(sec)
-------------------------------------------------------------------------------------------
               ***  Starting incremental Fock matrix formation  ***
    1    -663.8456409289287876     0.00e+00  1.21e-03  1.88e-03  5.16e-03  0.700   1.1
    2    -663.8457499277235456    -1.09e-04  1.09e-03  1.59e-03  4.19e-03  0.700   0.7
                               ***Turning on AO-DIIS***
                              *** Initializing SOSCF ***
---------------------------------------S-O-S-C-F--------------------------------------
Iteration    Energy (Eh)           Delta-E    RMSDP     MaxDP     MaxGrad    Time(sec)
--------------------------------------------------------------------------------------
    3    -663.8458373946973552    -8.75e-05  3.15e-03  4.02e-03  3.28e-03     0.6
               *** Restarting incremental Fock matrix formation ***
    4    -663.8460810503015637    -2.44e-04  6.97e-04  1.08e-03  3.79e-04     1.6
    5    -663.8460844775179339    -3.43e-06  3.83e-04  6.22e-04  2.44e-04     0.7
    6    -663.8460864970356852    -2.02e-06  1.20e-04  1.56e-04  5.64e-05     0.9
    7    -663.8460866207592517    -1.24e-07  4.55e-05  9.38e-05  2.90e-05     0.8
    8    -663.8460866371995053    -1.64e-08  2.48e-05  4.19e-05  1.86e-05     0.7
    9    -663.8460866477134914    -1.05e-08  6.36e-06  1.28e-05  3.01e-06     0.7
   10    -663.8460866470065866     7.07e-10  3.68e-06  8.13e-06  3.23e-06     0.9
                 **** Energy Check signals convergence ****

               *****************************************************
               *                     SUCCESS                       *
               *           SCF CONVERGED AFTER  10 CYCLES          *
               *****************************************************

Recomputing exchange energy using gridx3       ... done (    0.068 sec)
Old exchange energy                            :    -30.457601344 Eh
New exchange energy                            :    -30.457517919 Eh
Exchange energy change after final integration :      0.000083425 Eh
Total energy after final integration           :   -663.846003224 Eh
             **** ENERGY FILE WAS UPDATED (/lustre/project/xlzhang/jingyi/chemsmart/test_pka/orca/pka_scale_frag2_pka_HA_opt.en.tmp) ****

----------------
TOTAL SCF ENERGY
----------------

Total Energy       :       -663.84600322383551 Eh          -18064.16811 eV

Components:
Nuclear Repulsion  :        280.12701118395233 Eh            7622.64350 eV
Electronic Energy  :       -943.97309783283708 Eh          -25686.81388 eV
One Electron Energy:      -1469.01501778090346 Eh          -39973.93087 eV
Two Electron Energy:        525.04191994806638 Eh           14287.11698 eV

Virial components:
Potential Energy   :      -1324.99880120133594 Eh          -36055.05038 eV
Kinetic Energy     :        661.15279797750043 Eh           17990.88227 eV
Virial Ratio       :          2.00407349897720

DFT components:
N(Alpha)           :       25.000001508965 electrons
N(Beta)            :       25.000001508965 electrons
N(Total)           :       50.000003017930 electrons
E(XC)              :      -27.924051109578 Eh       

---------------
SCF CONVERGENCE
---------------

  Last Energy change         ...   -7.0690e-10  Tolerance :   1.0000e-08
[...]
      1       0.046928  -0.027026   0.105579   0.062765   0.142187   0.002394
      2       0.105288  -0.098836   0.102539  -0.135794   0.045797  -0.018268
      3       0.148563   0.169484  -0.214845  -0.020879   0.044010   0.016401
      4       0.067010   0.085841   0.132141   0.003201  -0.051585  -0.024730
      5       0.048539   0.079482   0.044226   0.018937  -0.020148  -0.018609
      6      -0.271717  -0.050707   0.033156   0.029672  -0.018755  -0.000051
      7      -0.170084  -0.044346  -0.013390   0.000298   0.021202   0.007107
      8       0.074380   0.139768   0.004323   0.038635  -0.029885   0.102497
      9      -0.229217  -0.010779   0.042028  -0.023839  -0.038708  -0.002478
     10       0.088272   0.128245  -0.001041  -0.030795  -0.030190   0.000576
     11      -0.236269  -0.106139  -0.008658   0.001530   0.028882  -0.009302
     12      -0.161691   0.073137   0.224315   0.009069  -0.006776  -0.011615
     13      -0.084181  -0.203980  -0.318692  -0.004003   0.036040  -0.001181
     14      -0.024147  -0.086082  -0.169819  -0.000861   0.019169  -0.083916
     15       0.342879  -0.532097  -0.308238   0.044854  -0.704415   0.014414
     16       0.019826  -0.100423  -0.073586  -0.102258  -0.199081  -0.013259
     17       0.090771  -0.144237  -0.132307   0.251386  -0.203180   0.028908
     18       0.385034  -0.374760   0.590308  -0.641347   0.278230  -0.063072
     19       0.032138  -0.095861  -0.039890  -0.192206  -0.226966  -0.026786
     20       0.110158  -0.103275   0.096256  -0.102066   0.045147  -0.016260
     21       0.440911  -0.306488   0.451106   0.532458   0.491680   0.030523
     22       0.040579  -0.067852  -0.063475   0.104592  -0.100505   0.011722
     23       0.121412  -0.107791   0.000388   0.343624  -0.037426   0.023615
     24      -0.005043   0.169241   0.054648   0.041486   0.034192  -0.337919
     25      -0.148381  -0.238138   0.003437  -0.112217   0.043637   0.683148
     26      -0.167976  -0.162419   0.171394  -0.101021   0.002243   0.626015
                 18         19         20         21         22         23    
      0      -0.037730  -0.139681  -0.015843  -0.014895   0.007748   0.043377
      1       0.026225  -0.021991  -0.037218   0.047502   0.018367   0.003085
      2       0.022907  -0.043803   0.053758   0.028887  -0.026819   0.010473
      3      -0.107373   0.018280   0.011883  -0.001587   0.021350  -0.000572
      4      -0.150850   0.010614   0.046956   0.007855   0.093130  -0.000085
      5      -0.128960   0.012514  -0.064939   0.002436  -0.133035  -0.000179
      6       0.045277  -0.006753   0.007843   0.000688   0.012394  -0.000045
      7      -0.025878   0.003029  -0.010282  -0.002106  -0.023495  -0.000063
      8       0.337049  -0.032382   0.082439   0.000280   0.149128   0.000083
      9       0.132374  -0.013683  -0.034563  -0.000329  -0.058500  -0.000018
     10       0.295011  -0.025269  -0.080909  -0.004802  -0.138927   0.000041
     11      -0.144970   0.012235   0.047824   0.000106   0.088043  -0.000077
     12      -0.000527  -0.004155   0.001078  -0.000193   0.000582  -0.000043
     13       0.041636   0.002087  -0.001398  -0.000038  -0.005154  -0.000078
     14       0.065682  -0.003656   0.007826  -0.000280   0.020954   0.000067
     15       0.115269   0.459935   0.120229   0.296905  -0.103304  -0.309119
     16       0.101994   0.236551   0.353832   0.201319  -0.306439   0.471098
     17       0.051272   0.264381  -0.623521   0.128730   0.540764   0.209236
     18       0.417665   0.565404  -0.287798  -0.123926   0.386926  -0.011936
     19      -0.017481   0.068226   0.385548  -0.621374  -0.295211  -0.018464
     20       0.011844  -0.063894   0.040383   0.050379  -0.026026  -0.561617
     21       0.345433   0.475413   0.352964   0.055803  -0.420921  -0.175914
     22      -0.097381  -0.100089  -0.247045  -0.284412   0.226983  -0.485327
     23       0.056570   0.264252  -0.119051  -0.602758   0.078645   0.233121
     24       0.174940  -0.027456   0.032443  -0.003451   0.088487  -0.000008
     25      -0.434307   0.039641  -0.072739  -0.001133  -0.146456   0.000238
     26      -0.382187   0.036985  -0.064710   0.000284  -0.139535  -0.001016
                 24         25         26    
      0      -0.022748  -0.015268   0.000356
      1       0.079082  -0.053752  -0.000225
      2       0.049147   0.079017  -0.000101
      3      -0.000165   0.000006  -0.000259
      4       0.000352  -0.000296   0.000464
      5       0.000187   0.000411   0.000053
      6      -0.000127  -0.000136   0.000135
      7      -0.000095   0.000131  -0.000203
      8      -0.000272  -0.000425  -0.000741
      9      -0.000115   0.000241  -0.000028
     10      -0.000233   0.000335  -0.000680
     11       0.000008  -0.000246   0.000041
     12       0.000306  -0.000002  -0.028278
     13      -0.000309   0.000165   0.033328
     14      -0.000061  -0.000083  -0.044597
     15       0.413149  -0.031057   0.001443
     16      -0.617728   0.040734   0.000438
     17      -0.271840   0.026662   0.000530
     18      -0.016220  -0.020420   0.000073
     19      -0.008535  -0.026044  -0.000063
     20      -0.472932  -0.673517  -0.000756
     21      -0.122084   0.232066  -0.000467
     22      -0.316848   0.625451  -0.000628
     23       0.159178  -0.295861   0.000345
     24       0.000454  -0.000481   0.450076
     25      -0.000291  -0.000265  -0.526798
     26      -0.000827   0.000078   0.718339


-----------
IR SPECTRUM
-----------

 Mode   freq       eps      Int      T**2         TX        TY        TZ
       cm**-1   L/(mol*cm) km/mol    a.u.
----------------------------------------------------------------------------
  6:    187.48   0.015995   80.83  0.026624  ( 0.136806  0.078743 -0.041320)
  7:    228.92   0.000947    4.79  0.001291  ( 0.029573  0.020407 -0.000530)
  8:    316.03   0.000150    0.76  0.000148  ( 0.003947 -0.011147 -0.002852)
  9:    321.77   0.004392   22.20  0.004260  (-0.049578 -0.042414  0.001646)
 10:    430.41   0.003167   16.00  0.002296  (-0.025028  0.036538 -0.018294)
 11:    491.87   0.006863   34.68  0.004354  ( 0.022255 -0.059282 -0.018566)
 12:    526.71   0.012773   64.55  0.007568  ( 0.083086  0.017962  0.018485)
 13:    761.33   0.007084   35.80  0.002904  ( 0.040226  0.028792  0.021364)
 14:    853.98   0.044078  222.75  0.016107  (-0.095966  0.078465  0.027219)
 15:    970.65   0.000716    3.62  0.000230  (-0.011890 -0.004644  0.008210)
 16:    989.16   0.010880   54.98  0.003432  ( 0.039395 -0.040622 -0.015176)
 17:   1126.34   0.007180   36.29  0.001989  (-0.022979  0.037213  0.008748)
 18:   1225.40   0.043065  217.63  0.010967  (-0.030948 -0.081294 -0.058316)
 19:   1336.23   0.007009   35.42  0.001637  ( 0.032305  0.015612  0.018695)
 20:   1423.75   0.030351  153.38  0.006652  ( 0.014645  0.042346 -0.068153)
 21:   1434.03   0.001804    9.12  0.000393  ( 0.007500 -0.014921 -0.010664)
 22:   1447.99   0.025875  130.76  0.005576  ( 0.014646  0.035957 -0.063789)
 23:   3100.78   0.000149    0.75  0.000015  (-0.003483  0.000477 -0.001626)
 24:   3231.19   0.000696    3.52  0.000067  ( 0.003022 -0.006083 -0.004590)
 25:   3239.91   0.000602    3.04  0.000058  ( 0.000577  0.003223 -0.006877)
 26:   3825.26   0.036765  185.80  0.002999  ( 0.031007 -0.037284  0.025452)

* The epsilon (eps) is given for a Dirac delta lineshape.
** The dipole moment derivative (T) already includes vibrational overlap.

The first frequency considered to be a vibration is 6
The total number of vibrations considered is 21


--------------------------
THERMOCHEMISTRY AT 298.15K
--------------------------

Temperature         ...   298.15 K
Pressure            ...     1.00 atm
Total Mass          ...    96.10 AMU
Quasi RRHO          ...     True
Cut-Off Frequency   ...     1.00 cm^-1

Throughout the following assumptions are being made:
  (1) The electronic state is orbitally nondegenerate
  (2) There are no thermally accessible electronically excited states
  (3) Hindered rotations indicated by low frequency modes are not
      treated as such but are treated as vibrations and this may
      cause some error
  (4) All equations used are the standard statistical mechanics
      equations for an ideal gas
  (5) All vibrations are strictly harmonic

freq.     187.48  E(vib)   ...       0.36 
freq.     228.92  E(vib)   ...       0.32 
freq.     316.03  E(vib)   ...       0.25 
freq.     321.77  E(vib)   ...       0.25 
freq.     430.41  E(vib)   ...       0.18 
freq.     491.87  E(vib)   ...       0.14 
freq.     526.71  E(vib)   ...       0.13 
freq.     761.33  E(vib)   ...       0.06 
freq.     853.98  E(vib)   ...       0.04 
freq.     970.65  E(vib)   ...       0.03 
freq.     989.16  E(vib)   ...       0.02 
freq.    1126.34  E(vib)   ...       0.01 
freq.    1225.40  E(vib)   ...       0.01 
freq.    1336.23  E(vib)   ...       0.01 
freq.    1423.75  E(vib)   ...       0.00 
freq.    1434.03  E(vib)   ...       0.00 
freq.    1447.99  E(vib)   ...       0.00 
freq.    3100.78  E(vib)   ...       0.00 
freq.    3231.19  E(vib)   ...       0.00 
freq.    3239.91  E(vib)   ...       0.00 
freq.    3825.26  E(vib)   ...       0.00 

------------
INNER ENERGY
------------

The inner energy is: U= E(el) + E(ZPE) + E(vib) + E(rot) + E(trans)
    E(el)   - is the total energy from the electronic structure calculation
              = E(kin-el) + E(nuc-el) + E(el-el) + E(nuc-nuc)
    E(ZPE)  - the the zero temperature vibrational energy from the frequency calculation
    E(vib)  - the the finite temperature correction to E(ZPE) due to population
              of excited vibrational states
    E(rot)  - is the rotational thermal energy
    E(trans)- is the translational thermal energy

Summary of contributions to the inner energy U:
Electronic energy                ...   -663.84612898 Eh
Zero point energy                ...      0.06257943 Eh      39.27 kcal/mol
Thermal vibrational correction   ...      0.00290864 Eh       1.83 kcal/mol
Thermal rotational correction    ...      0.00141627 Eh       0.89 kcal/mol
Thermal translational correction ...      0.00141627 Eh       0.89 kcal/mol
-----------------------------------------------------------------------
Total thermal energy                   -663.77780837 Eh


Summary of corrections to the electronic energy:
(perhaps to be used in another calculation)
Total thermal correction                  0.00574118 Eh       3.60 kcal/mol
Non-thermal (ZPE) correction              0.06257943 Eh      39.27 kcal/mol
-----------------------------------------------------------------------
Total correction                          0.06832061 Eh      42.87 kcal/mol


--------
ENTHALPY
--------

The enthalpy is H = U + kB*T
                kB is Boltzmann's constant
Total thermal energy              ...   -663.77780837 Eh 
Thermal Enthalpy correction       ...      0.00094421 Eh       0.59 kcal/mol
-----------------------------------------------------------------------
Total Enthalpy                    ...   -663.77686416 Eh


Note: Only C1 symmetry has been detected, increase convergence thresholds 
      if your molecule has a higher symmetry. Symmetry factor of 1.0 is   
      used for the rotational entropy correction. 
 

Note: Rotational entropy computed according to Herzberg 
Infrared and Raman Spectra, Chapter V,1, Van Nostrand Reinhold, 1945 
Point Group:  C1, Symmetry Number:   1  
Rotational constants in cm-1:     0.159973     0.150897     0.147047 

Vibrational entropy computed according to the QRRHO of S. Grimme
Chem.Eur.J. 2012 18 9955 using a reference frequency of 100.0 cm-1


-------
ENTROPY
-------

The entropy contributions are T*S = T*(S(el)+S(vib)+S(rot)+S(trans))
     S(el)   - electronic entropy
     S(vib)  - vibrational entropy
     S(rot)  - rotational entropy
     S(trans)- translational entropy
The entropies will be listed as multiplied by the temperature to get
units of energy

Electronic entropy                ...      0.00000000 Eh      0.00 kcal/mol
Vibrational entropy               ...      0.00460505 Eh      2.89 kcal/mol
Rotational entropy                ...      0.01217383 Eh      7.64 kcal/mol
Translational entropy             ...      0.01881490 Eh     11.81 kcal/mol
-----------------------------------------------------------------------
Final entropy term                ...      0.03559378 Eh     22.34 kcal/mol

In case the symmetry of your molecule has not been determined correctly
or in case you have a reason to use a different symmetry number we print 
out the resulting rotational entropy values for sn=1,12:

 non-linear molecules -----------------------------------
|  sn= 1 | S(rot)=       0.01217383 Eh      7.64 kcal/mol|
|  sn= 2 | S(rot)=       0.01151937 Eh      7.23 kcal/mol|
|  sn= 3 | S(rot)=       0.01113654 Eh      6.99 kcal/mol|
|  sn= 4 | S(rot)=       0.01086492 Eh      6.82 kcal/mol|
|  sn= 5 | S(rot)=       0.01065423 Eh      6.69 kcal/mol|
|  sn= 6 | S(rot)=       0.01048208 Eh      6.58 kcal/mol|
|  sn= 7 | S(rot)=       0.01033654 Eh      6.49 kcal/mol|
|  sn= 8 | S(rot)=       0.01021046 Eh      6.41 kcal/mol|
|  sn= 9 | S(rot)=       0.01009925 Eh      6.34 kcal/mol|
|  sn=10 | S(rot)=       0.00999977 Eh      6.27 kcal/mol|
|  sn=11 | S(rot)=       0.00990978 Eh      6.22 kcal/mol|
|  sn=12 | S(rot)=       0.00982763 Eh      6.17 kcal/mol|
 linear molecules ---------------------------------------
|  Dinfh | S(rot)=       0.00713580 Eh      4.48 kcal/mol|
|  Cinfv | S(rot)=       0.00779026 Eh      4.89 kcal/mol|
 --------------------------------------------------------


-------------------
GIBBS FREE ENERGY
-------------------

The Gibbs free energy is G = H - T*S

Total enthalpy                    ...   -663.77686416 Eh 
Total entropy correction          ...     -0.03559378 Eh    -22.34 kcal/mol
-----------------------------------------------------------------------
Final Gibbs free energy         ...   -663.81245794 Eh

For completeness - the Gibbs free energy minus the electronic energy
G-E(el)                           ...      0.03367104 Eh     21.13 kcal/mol


Maximum memory used throughout the entire PROP-calculation: 19.9 MB

--------------------------------
SUGGESTED CITATIONS FOR THIS RUN
--------------------------------

Below you find a list of papers that are relevant to this ORCA run
We neither can nor want to force you to cite these papers, but we appreciate if you do
You receive ORCA, which is the product of decades of hard work by many enthusiastic individuals, for free
The only thing we kindly ask in return is that you cite our papers,
We deeply appreciate it, if you show your appreciation for ORCA by not just citing the generic ORCA reference.

Please note that relegating all ORCA citations to the supporting information does *not* help us.
SI sections are not indexed - citations you put there will not count into any citation statistics
But we need these citations in order to attract the funding resources that allow us to do what we are doing

Therefore, if you are a happy ORCA user, please consider citing a few of the papers listed below in the main body of your paper

In addition to the list printed below, the program has created the file /lustre/project/xlzhang/jingyi/chemsmart/test_pka/orca/pka_scale_frag2_pka_HA_opt.bibtex that contains the list in bibtex format
You can import this file easily into all common literature databanks and citation aid programs


List of essential papers. We consider these as the minimum necessary citations

  1. Neese, F.
     Software update: the ORCA program system, version 6.0
     WIRES Comput. Molec. Sci. 2025 15(1), e70019
     doi.org/10.1002/wcms.7019

List of papers to cite with high priority. The work reported in these papers was absolutely
necessary for this run to complete.
Our perspective: the developers of density functionals and basis sets usually get cited in chemistry papers
Good! But without the algorithms to do something with them, the functionals or basis sets would not do anything.
Hence, in our opinion, the algorithm design and method developments papers are equally worthy of getting cited

  1. Neese, F.
     An improvement of the resolution of the identity approximation for the formation of the Coulomb matrix
     J. Comp. Chem. 2003 24(14), 1740-1747
     doi.org/10.1002/jcc.10318
  2. Neese, F.; Wennmohs, F.; Hansen, A.; Becker, U.
     Efficient, approximate and parallel Hartree-Fock and hybrid DFT calculations. A 'chain-of-spheres' algorithm for the Hartree-Fock exchange
     Chem. Phys. 2009 356(1-3), 98-109
     doi.org/10.1016/j.chemphys.2008.10.036
  3. Bykov, D.; Petrenko, T.; Izsak, R.; Kossmann, S.; Becker, U.; Valeev, E.; Neese, F.
     Efficient implementation of the analytic second derivatives of Hartree-Fock and hybrid DFT energies: a detailed analysis of different approximations
     Molec. Phys. 2015 113 , 1961-1977
     doi.org/10.1080/00268976.2015.1025114
  4. Helmich-Paris, B.; de Souza, B.; Neese, F.; Izsák, R.
     An improved chain of spheres for exchange algorithm
     J. Chem. Phys. 2021 155(10), 104109
     doi.org/10.1063/5.0058766
  5. Helmich-Paris, B.
     A trust-region augmented Hessian implementation for restricted and unrestricted Hartree–Fock and Kohn–Sham methods
     J. Chem. Phys. 2021 154 , 164104
     doi.org/10.1063/5.0040798
  6. Neese, F.
     The SHARK Integral Generation and Digestion System
     J. Comp. Chem. 2022 44(3), 381
     doi.org/10.1002/jcc.26942

List of suggested additional citations. These are papers that are important in the 'surrounding' of 
of this run, or papers that preceded the highly important papers. If you like your results we are grateful for a citation.

  1. Izsak, R.; Neese, F.
     An overlap fitted chain of spheres exchange method
     J. Chem. Phys. 2011 135 , 144105
     doi.org/10.1063/1.3646921
  2. Izsak, R.; Hansen, A.; Neese, F.
     The resolution of identity and chain of spheres approximations for the LPNO-CCSD singles Fock term
     Molec. Phys. 2012 110 , 2413-2417
     doi.org/10.1080/00268976.2012.687466
  3. Neese, F.
     The ORCA program system
     WIRES Comput. Molec. Sci. 2012 2(1), 73-78
     doi.org/10.1002/wcms.81
  4. Izsak, R.; Neese, F.; Klopper, W.
     Robust fitting techniques in the chain of spheres approximation to the Fock exchange: The role of the complementary space
     J. Chem. Phys. 2013 139 , 
     doi.org/10.1063/1.4819264
  5. Neese, F.
     Software update: the ORCA program system, version 4.0
     WIRES Comput. Molec. Sci. 2018 8(1), 1-6
     doi.org/10.1002/wcms.1327
  6. Neese, F.; Wennmohs, F.; Becker, U.; Riplinger, C.
     The ORCA quantum chemistry program package
     J. Chem. Phys. 2020 152(22), 224108
     doi.org/10.1063/5.0004608
  7. Neese, F.
     Software update: The ORCA program system—Version 5.0
     WIRES Comput. Molec. Sci. 2022 12(1), e1606
     doi.org/10.1002/wcms.1606

List of optional additional citations

  1. Neese, F.
     Approximate second-order SCF convergence for spin unrestricted wavefunctions
     Chem. Phys. Lett. 2000 325(1-3), 93-98
     doi.org/10.1016/s0009-2614(00)00662-x

Timings for individual modules:

Sum of individual times          ...      250.115 sec (=   4.169 min)
Startup calculation              ...       50.701 sec (=   0.845 min)  20.3 %
SCF iterations                   ...      119.313 sec (=   1.989 min)  47.7 %
Property integrals               ...       33.021 sec (=   0.550 min)  13.2 %
SCF Response                     ...        8.323 sec (=   0.139 min)   3.3 %
Property calculations            ...        9.515 sec (=   0.159 min)   3.8 %
SCF Gradient evaluation          ...       29.054 sec (=   0.484 min)  11.6 %
Geometry relaxation              ...        0.188 sec (=   0.003 min)   0.1 %
                             ****ORCA TERMINATED NORMALLY****
TOTAL RUN TIME: 0 days 0 hours 5 minutes 48 seconds 198 msec
