 Entering Gaussian System, Link 0=/project/xlzhang/shared/bin/g16/g16
 Input=/lustre/project/xlzhang/jingyi/chemsmart/test_pka/gaussian/pka_scale_frag3_pka_HA_opt.com
 Output=/lustre/project/xlzhang/jingyi/chemsmart/test_pka/gaussian/pka_scale_frag3_pka_HA_opt.log
 Initial command:
 /project/xlzhang/shared/bin/g16/l1.exe "/lustre/project/xlzhang/jingyi/chemsmart/test_pka/gaussian/Gau-769763.inp" -scrdir="/lustre/project/xlzhang/jingyi/chemsmart/test_pka/gaussian/"
 Entering Link 1 = /project/xlzhang/shared/bin/g16/l1.exe PID=    769764.
  
 Copyright (c) 1988-2017, Gaussian, Inc.  All Rights Reserved.
  
 This is part of the Gaussian(R) 16 program.  It is based on
 the Gaussian(R) 09 system (copyright 2009, Gaussian, Inc.),
 the Gaussian(R) 03 system (copyright 2003, Gaussian, Inc.),
 the Gaussian(R) 98 system (copyright 1998, Gaussian, Inc.),
 the Gaussian(R) 94 system (copyright 1995, Gaussian, Inc.),
 the Gaussian 92(TM) system (copyright 1992, Gaussian, Inc.),
 the Gaussian 90(TM) system (copyright 1990, Gaussian, Inc.),
 the Gaussian 88(TM) system (copyright 1988, Gaussian, Inc.),
 the Gaussian 86(TM) system (copyright 1986, Carnegie Mellon
 University), and the Gaussian 82(TM) system (copyright 1983,
 Carnegie Mellon University). Gaussian is a federally registered
 trademark of Gaussian, Inc.
  
 This software contains proprietary and confidential information,
 including trade secrets, belonging to Gaussian, Inc.
  
 This software is provided under written license and may be
 used, copied, transmitted, or stored only in accord with that
 written license.
  
 The following legend is applicable only to US Government
 contracts under FAR:
  
                    RESTRICTED RIGHTS LEGEND
  
 Use, reproduction and disclosure by the US Government is
 subject to restrictions as set forth in subparagraphs (a)
 and (c) of the Commercial Computer Software - Restricted
 Rights clause in FAR 52.227-19.
  
 Gaussian, Inc.
 340 Quinnipiac St., Bldg. 40, Wallingford CT 06492
  
  
 ---------------------------------------------------------------
 Warning -- This program may not be used in any manner that
 competes with the business of Gaussian, Inc. or will provide
 assistance to any competitor of Gaussian, Inc.  The licensee
 of this program is prohibited from giving any competitor of
 Gaussian, Inc. access to this program.  By using this program,
 the user acknowledges that Gaussian, Inc. is engaged in the
 business of creating and licensing software in the field of
 computational chemistry and represents and warrants to the
 licensee that it is not a competitor of Gaussian, Inc. and that
 it will not use this program in any manner prohibited above.
 ---------------------------------------------------------------
  

 Cite this work as:
 Gaussian 16, Revision B.01,
 M. J. Frisch, G. W. Trucks, H. B. Schlegel, G. E. Scuseria, 
 M. A. Robb, J. R. Cheeseman, G. Scalmani, V. Barone, 
 G. A. Petersson, H. Nakatsuji, X. Li, M. Caricato, A. V. Marenich, 
 J. Bloino, B. G. Janesko, R. Gomperts, B. Mennucci, H. P. Hratchian, 
 J. V. Ortiz, A. F. Izmaylov, J. L. Sonnenberg, D. Williams-Young, 
 F. Ding, F. Lipparini, F. Egidi, J. Goings, B. Peng, A. Petrone, 
 T. Henderson, D. Ranasinghe, V. G. Zakrzewski, J. Gao, N. Rega, 
 G. Zheng, W. Liang, M. Hada, M. Ehara, K. Toyota, R. Fukuda, 
 J. Hasegawa, M. Ishida, T. Nakajima, Y. Honda, O. Kitao, H. Nakai, 
 T. Vreven, K. Throssell, J. A. Montgomery, Jr., J. E. Peralta, 
 F. Ogliaro, M. J. Bearpark, J. J. Heyd, E. N. Brothers, K. N. Kudin, 
 V. N. Staroverov, T. A. Keith, R. Kobayashi, J. Normand, 
 K. Raghavachari, A. P. Rendell, J. C. Burant, S. S. Iyengar, 
 J. Tomasi, M. Cossi, J. M. Millam, M. Klene, C. Adamo, R. Cammi, 
 J. W. Ochterski, R. L. Martin, K. Morokuma, O. Farkas, 
 J. B. Foresman, and D. J. Fox, Gaussian, Inc., Wallingford CT, 2016.
 
 ******************************************
 Gaussian 16:  ES64L-G16RevB.01 20-Dec-2017
                10-Jun-2026 
 ******************************************
 %chk=pka_scale_frag3_pka_HA_opt.chk
 %nprocshared=64
 Will use up to   64 processors via shared memory.
 %mem=180GB
 -----------------------
 # opt freq mn15 def2svp
 -----------------------
 1/18=20,19=15,26=3,38=1/1,3;
 2/9=110,12=2,17=6,18=5,40=1/2;
 3/5=43,7=101,11=2,25=1,30=1,71=1,74=-73/1,2,3;
 4//1;
 5/5=2,38=5/2;
 6/7=2,8=2,9=2,10=2,28=1/1;
 7//1,2,3,16;
 1/18=20,19=15,26=3/3(2);
 2/9=110/2;
 99//99;
 2/9=110/2;
 3/5=43,7=101,11=2,25=1,30=1,71=1,74=-73/1,2,3;
 4/5=5,16=3,69=1/1;
 5/5=2,38=5/2;
 7//1,2,3,16;
 1/18=20,19=15,26=3/3(-5);
 2/9=110/2;
 6/7=2,8=2,9=2,10=2,19=2,28=1/1;
 99/9=1/99;
 ----------------------------
 Gaussian pKa calculation job
 ----------------------------
 Symbolic Z-matrix:
 Charge =  0 Multiplicity = 1
 C                    -0.93354  -0.06006  -0.23038 
 C                     0.49361   0.27893   0.04691 
 O                     1.03253   1.35663  -0.13614 
 O                     1.1814   -0.76447   0.54621 
 H                    -1.44269   0.8203   -0.63271 
 H                    -1.43046  -0.35758   0.69627 
 H                    -0.98673  -0.86255  -0.97018 
 H                     2.08588  -0.4112    0.68 
 

 GradGradGradGradGradGradGradGradGradGradGradGradGradGradGradGradGradGrad
 Berny optimization.
 Initialization pass.
                           ----------------------------
                           !    Initial Parameters    !
                           ! (Angstroms and Degrees)  !
 --------------------------                            --------------------------
 ! Name  Definition              Value          Derivative Info.                !
 --------------------------------------------------------------------------------
 ! R1    R(1,2)                  1.4928         estimate D2E/DX2                !
 ! R2    R(1,5)                  1.0937         estimate D2E/DX2                !
 ! R3    R(1,6)                  1.0928         estimate D2E/DX2                !
 ! R4    R(1,7)                  1.0928         estimate D2E/DX2                !
 ! R5    R(2,3)                  1.2188         estimate D2E/DX2                !
 ! R6    R(2,4)                  1.3458         estimate D2E/DX2                !
 ! R7    R(4,8)                  0.9802         estimate D2E/DX2                !
 ! A1    A(2,1,5)              109.3045         estimate D2E/DX2                !
 ! A2    A(2,1,6)              109.8184         estimate D2E/DX2                !
 ! A3    A(2,1,7)              109.8186         estimate D2E/DX2                !
 ! A4    A(5,1,6)              108.6277         estimate D2E/DX2                !
 ! A5    A(5,1,7)              108.628          estimate D2E/DX2                !
 ! A6    A(6,1,7)              110.6108         estimate D2E/DX2                !
 ! A7    A(1,2,3)              126.5575         estimate D2E/DX2                !
 ! A8    A(1,2,4)              112.4235         estimate D2E/DX2                !
 ! A9    A(3,2,4)              121.019          estimate D2E/DX2                !
 ! A10   A(2,4,8)              104.0525         estimate D2E/DX2                !
 ! D1    D(5,1,2,3)              0.0003         estimate D2E/DX2                !
 ! D2    D(5,1,2,4)           -179.9998         estimate D2E/DX2                !
 ! D3    D(6,1,2,3)           -119.0771         estimate D2E/DX2                !
 ! D4    D(6,1,2,4)             60.9228         estimate D2E/DX2                !
 ! D5    D(7,1,2,3)            119.0783         estimate D2E/DX2                !
 ! D6    D(7,1,2,4)            -60.9218         estimate D2E/DX2                !
 ! D7    D(1,2,4,8)            179.9998         estimate D2E/DX2                !
 ! D8    D(3,2,4,8)             -0.0003         estimate D2E/DX2                !
 --------------------------------------------------------------------------------
 Trust Radius=3.00D-01 FncErr=1.00D-07 GrdErr=1.00D-06 EigMax=2.50D+02 EigMin=1.00D-04
 Number of steps in this run=     35 maximum allowed number of steps=    100.
 GradGradGradGradGradGradGradGradGradGradGradGradGradGradGradGradGradGrad

                          Input orientation:                          
 ---------------------------------------------------------------------
 Center     Atomic      Atomic             Coordinates (Angstroms)
 Number     Number       Type             X           Y           Z
 ---------------------------------------------------------------------
      1          6           0       -0.933543   -0.060063   -0.230376
      2          6           0        0.493608    0.278933    0.046914
      3          8           0        1.032525    1.356629   -0.136136
      4          8           0        1.181401   -0.764470    0.546212
      5          1           0       -1.442687    0.820299   -0.632706
      6          1           0       -1.430457   -0.357583    0.696271
      7          1           0       -0.986731   -0.862547   -0.970180
      8          1           0        2.085884   -0.411198    0.680001
 ---------------------------------------------------------------------
                    Distance matrix (angstroms):
                    1          2          3          4          5
     1  C    0.000000
     2  C    1.492839   0.000000
     3  O    2.425144   1.218758   0.000000
     4  O    2.360566   1.345752   2.233120   0.000000
     5  H    1.093679   2.122309   2.580873   3.284384   0.000000
     6  H    1.092756   2.128107   3.114114   2.647617   1.775876
     7  H    1.092758   2.128112   3.114124   2.647615   1.775881
     8  H    3.173173   1.847275   2.213788   0.980199   3.961136
                    6          7          8
     6  H    0.000000
     7  H    1.796925   0.000000
     8  H    3.516787   3.516785   0.000000
 Stoichiometry    C2H4O2
 Framework group  C1[X(C2H4O2)]
 Deg. of freedom    18
 Full point group                 C1      NOp   1
 Largest Abelian subgroup         C1      NOp   1
 Largest concise Abelian subgroup C1      NOp   1
                         Standard orientation:                         
 ---------------------------------------------------------------------
 Center     Atomic      Atomic             Coordinates (Angstroms)
 Number     Number       Type             X           Y           Z
 ---------------------------------------------------------------------
      1          6           0       -1.394347   -0.104283   -0.000000
      2          6           0        0.082616    0.112858   -0.000000
      3          8           0        0.658425    1.187015   -0.000000
      4          8           0        0.771438   -1.043243    0.000001
      5          1           0       -1.902197    0.864335   -0.000006
      6          1           0       -1.688223   -0.652470    0.898467
      7          1           0       -1.688226   -0.652488   -0.898458
      8          1           0        1.710124   -0.761006   -0.000003
 ---------------------------------------------------------------------
 Rotational constants (GHZ):          11.4909778           9.4165166           5.3538337
 Standard basis: def2SVP (5D, 7F)
 There are    80 symmetry adapted cartesian basis functions of A   symmetry.
 There are    76 symmetry adapted basis functions of A   symmetry.
    76 basis functions,   128 primitive gaussians,    80 cartesian basis functions
    16 alpha electrons       16 beta electrons
       nuclear repulsion energy       121.1929641155 Hartrees.
 NAtoms=    8 NActive=    8 NUniq=    8 SFac= 1.00D+00 NAtFMM=   60 NAOKFM=F Big=F
 Integral buffers will be    131072 words long.
 Raffenetti 2 integral format.
 Two-electron integral symmetry is turned on.
 One-electron integrals computed using PRISM.
   1 Symmetry operations used in ECPInt.
 ECPInt:  NShTT=     666 NPrTT=    2410 LenC2=     666 LenP2D=    2114.
 LDataN:  DoStor=T MaxTD1= 4 Len=   56
 NBasis=    76 RedAO= T EigKep=  3.33D-03  NBF=    76
 NBsUse=    76 1.00D-06 EigRej= -1.00D+00 NBFU=    76
 ExpMin= 1.22D-01 ExpMax= 2.27D+03 ExpMxC= 3.41D+02 IAcc=3 IRadAn=         5 AccDes= 0.00D+00
 Harris functional with IExCor= 1009 and IRadAn=       5 diagonalized for initial guess.
 HarFok:  IExCor= 1009 AccDes= 0.00D+00 IRadAn=         5 IDoV= 1 UseB2=F ITyADJ=14
 ICtDFT=  3500011 ScaDFX=  1.000000  1.000000  1.000000  1.000000
 FoFCou: FMM=F IPFlag=           0 FMFlag=      100000 FMFlg1=           0
         NFxFlg=           0 DoJE=T BraDBF=F KetDBF=T FulRan=T
         wScrn=  0.000000 ICntrl=       500 IOpCl=  0 I1Cent=   200000004 NGrid=           0
         NMat0=    1 NMatS0=      1 NMatT0=    0 NMatD0=    1 NMtDS0=    0 NMtDT0=    0
 Petite list used in FoFCou.
 Keep R1 ints in memory in canonical form, NReq=62306637.
 Requested convergence on RMS density matrix=1.00D-08 within 128 cycles.
 Requested convergence on MAX density matrix=1.00D-06.
 Requested convergence on             energy=1.00D-06.
 No special actions if energy rises.
 Integral accuracy reduced to 1.0D-05 until final iterations.
 Initial convergence to 1.0D-05 achieved.  Increase integral accuracy.
 SCF Done:  E(RMN15) =  -228.643628199     A.U. after   14 cycles
            NFock= 14  Conv=0.31D-08     -V/T= 2.0096

 **********************************************************************

            Population analysis using the SCF Density.

 **********************************************************************

 Orbital symmetries:
       Occupied  (A) (A) (A) (A) (A) (A) (A) (A) (A) (A) (A) (A)
                 (A) (A) (A) (A)
       Virtual   (A) (A) (A) (A) (A) (A) (A) (A) (A) (A) (A) (A)
                 (A) (A) (A) (A) (A) (A) (A) (A) (A) (A) (A) (A)
                 (A) (A) (A) (A) (A) (A) (A) (A) (A) (A) (A) (A)
                 (A) (A) (A) (A) (A) (A) (A) (A) (A) (A) (A) (A)
                 (A) (A) (A) (A) (A) (A) (A) (A) (A) (A) (A) (A)
 The electronic state is 1-A.
 Alpha  occ. eigenvalues --  -18.85967 -18.80198 -10.18681 -10.06512  -1.13704
 Alpha  occ. eigenvalues --   -1.03329  -0.79848  -0.64636  -0.52777  -0.52442
 Alpha  occ. eigenvalues --   -0.52169  -0.44656  -0.43835  -0.43686  -0.36176
 Alpha  occ. eigenvalues --   -0.32270
 Alpha virt. eigenvalues --    0.03993   0.10419   0.12923   0.16887   0.18202
 Alpha virt. eigenvalues --    0.25099   0.29823   0.34520   0.47636   0.47806
 Alpha virt. eigenvalues --    0.52231   0.55917   0.55976   0.61159   0.65321
 Alpha virt. eigenvalues --    0.69277   0.69527   0.70224   0.71543   0.85217
 Alpha virt. eigenvalues --    0.93334   0.98715   1.00449   1.05507   1.15747
 Alpha virt. eigenvalues --    1.21918   1.23062   1.31328   1.40701   1.44488
 Alpha virt. eigenvalues --    1.53041   1.56174   1.62414   1.63317   1.67460
 Alpha virt. eigenvalues --    1.74123   1.77582   1.79688   1.91747   1.95340
 Alpha virt. eigenvalues --    2.02698   2.07729   2.16395   2.27597   2.34667
 Alpha virt. eigenvalues --    2.41833   2.48602   2.64169   2.67360   2.72614
 Alpha virt. eigenvalues --    2.80814   2.83496   2.87750   2.94720   3.07013
 Alpha virt. eigenvalues --    3.15742   3.20195   3.45056   3.56994   3.70916
          Condensed to atoms (all electrons):
               1          2          3          4          5          6
     1  C    4.759645   0.336123  -0.089373  -0.120361   0.356908   0.358156
     2  C    0.336123   4.530775   0.715535   0.370434   0.000781   0.003509
     3  O   -0.089373   0.715535   7.671184  -0.086160   0.006660   0.001572
     4  O   -0.120361   0.370434  -0.086160   7.710409   0.005079   0.003759
     5  H    0.356908   0.000781   0.006660   0.005079   0.611743  -0.012152
     6  H    0.358156   0.003509   0.001572   0.003759  -0.012152   0.599926
     7  H    0.358156   0.003509   0.001572   0.003759  -0.012152  -0.010097
     8  H    0.014965  -0.009705   0.008817   0.307938  -0.000664  -0.000483
               7          8
     1  C    0.358156   0.014965
     2  C    0.003509  -0.009705
     3  O    0.001572   0.008817
     4  O    0.003759   0.307938
     5  H   -0.012152  -0.000664
     6  H   -0.010097  -0.000483
     7  H    0.599926  -0.000483
     8  H   -0.000483   0.485185
 Mulliken charges:
               1
     1  C    0.025780
     2  C    0.049039
     3  O   -0.229807
     4  O   -0.194858
     5  H    0.043797
     6  H    0.055809
     7  H    0.055810
     8  H    0.194430
 Sum of Mulliken charges =  -0.00000
 Mulliken charges with hydrogens summed into heavy atoms:
               1
     1  C    0.181196
     2  C    0.049039
     3  O   -0.229807
     4  O   -0.000428
 Electronic spatial extent (au):  <R**2>=            252.0635
 Charge=             -0.0000 electrons
 Dipole moment (field-independent basis, Debye):
    X=             -0.6903    Y=             -1.4976    Z=             -0.0000  Tot=              1.6490
 Quadrupole moment (field-independent basis, Debye-Ang):
   XX=            -18.9019   YY=            -28.0995   ZZ=            -22.6156
   XY=             -2.1420   XZ=             -0.0000   YZ=              0.0000
 Traceless Quadrupole moment (field-independent basis, Debye-Ang):
   XX=              4.3038   YY=             -4.8938   ZZ=              0.5901
   XY=             -2.1420   XZ=             -0.0000   YZ=              0.0000
 Octapole moment (field-independent basis, Debye-Ang**2):
  XXX=             12.4464  YYY=             -1.7214  ZZZ=              0.0000  XYY=             -1.2290
  XXY=             -4.2972  XXZ=             -0.0000  XZZ=              1.1074  YZZ=             -0.5712
  YYZ=             -0.0000  XYZ=             -0.0000
 Hexadecapole moment (field-independent basis, Debye-Ang**3):
 XXXX=           -145.4334 YYYY=           -118.7659 ZZZZ=            -25.4849 XXXY=            -10.3266
 XXXZ=             -0.0001 YYYX=             -3.5710 YYYZ=              0.0000 ZZZX=             -0.0000
 ZZZY=              0.0000 XXYY=            -43.1631 XXZZ=            -29.9673 YYZZ=            -22.5594
 XXYZ=              0.0000 YYXZ=              0.0000 ZZXY=              1.0153
 N-N= 1.211929641155D+02 E-N=-7.784764315341D+02  KE= 2.264717922437D+02
   1 Symmetry operations used in ECPInt.
 ECPInt:  NShTT=     666 NPrTT=    2410 LenC2=     666 LenP2D=    2114.
 LDataN:  DoStor=T MaxTD1= 5 Len=  102
 Calling FoFJK, ICntrl=      2127 FMM=F ISym2X=0 I1Cent= 0 IOpClX= 0 NMat=1 NMatS=1 NMatT=0.
 ***** Axes restored to original set *****
 -------------------------------------------------------------------
 Center     Atomic                   Forces (Hartrees/Bohr)
 Number     Number              X              Y              Z
 -------------------------------------------------------------------
      1        6          -0.002436384    0.009451334   -0.003513406
      2        6           0.014811535    0.016109040   -0.000937333
      3        8          -0.011506476   -0.017774399    0.002321847
      4        8           0.004408812    0.006305165   -0.000736807
      5        1           0.000477364    0.001769445   -0.000409309
      6        1          -0.001127423   -0.005211154    0.002158613
      7        1          -0.000724316   -0.005668417    0.000646222
      8        1          -0.003903113   -0.004981014    0.000470174
 -------------------------------------------------------------------
 Cartesian Forces:  Max     0.017774399 RMS     0.007102746

 GradGradGradGradGradGradGradGradGradGradGradGradGradGradGradGradGradGrad
 Berny optimization.
 FormGI is forming the generalized inverse of G from B-inverse, IUseBI=4.
 Internal  Forces:  Max     0.021154053 RMS     0.004958997
 Search for a local minimum.
 Step number   1 out of a maximum of   35
 All quantities printed in internal units (Hartrees-Bohrs-Radians)
 Mixed Optimization -- RFO/linear search
 Second derivative matrix not updated -- first step.
 ITU=  0
     Eigenvalues ---    0.00861   0.01211   0.02409   0.07473   0.07634
     Eigenvalues ---    0.16000   0.16000   0.16000   0.16000   0.25000
     Eigenvalues ---    0.25000   0.33140   0.34391   0.34496   0.34496
     Eigenvalues ---    0.51346   0.55935   0.95936
 RFO step:  Lambda=-1.39064387D-03 EMin= 8.60677041D-03
 Linear search not attempted -- first point.
 Iteration  1 RMS(Cart)=  0.01797970 RMS(Int)=  0.00038069
 Iteration  2 RMS(Cart)=  0.00036628 RMS(Int)=  0.00006523
 Iteration  3 RMS(Cart)=  0.00000007 RMS(Int)=  0.00006523
 Variable       Old X    -DE/DX   Delta X   Delta X   Delta X     New X
                                 (Linear)    (Quad)   (Total)
    R1        2.82106   0.00377   0.00000   0.01134   0.01134   2.83239
    R2        2.06675   0.00135   0.00000   0.00392   0.00392   2.07067
    R3        2.06501   0.00376   0.00000   0.01086   0.01086   2.07587
    R4        2.06501   0.00376   0.00000   0.01086   0.01086   2.07587
    R5        2.30312  -0.02115   0.00000  -0.02202  -0.02202   2.28110
    R6        2.54310  -0.00087   0.00000  -0.00154  -0.00154   2.54156
    R7        1.85231  -0.00533   0.00000  -0.01036  -0.01036   1.84195
    A1        1.90772  -0.00083   0.00000   0.00385   0.00380   1.91152
    A2        1.91669   0.00035   0.00000  -0.00241  -0.00254   1.91415
    A3        1.91670   0.00035   0.00000  -0.00241  -0.00254   1.91415
    A4        1.89591   0.00187   0.00000   0.02066   0.02061   1.91652
    A5        1.89592   0.00187   0.00000   0.02065   0.02060   1.91652
    A6        1.93052  -0.00356   0.00000  -0.03944  -0.03966   1.89086
    A7        2.20885  -0.00268   0.00000  -0.01067  -0.01067   2.19817
    A8        1.96216  -0.00038   0.00000  -0.00151  -0.00151   1.96065
    A9        2.11218   0.00306   0.00000   0.01219   0.01219   2.12437
   A10        1.81606   0.00637   0.00000   0.03948   0.03948   1.85554
    D1        0.00001   0.00000   0.00000   0.00000   0.00000   0.00001
    D2       -3.14159   0.00000   0.00000   0.00000   0.00000  -3.14159
    D3       -2.07829  -0.00199   0.00000  -0.02611  -0.02605  -2.10434
    D4        1.06330  -0.00199   0.00000  -0.02611  -0.02605   1.03726
    D5        2.07831   0.00199   0.00000   0.02611   0.02605   2.10435
    D6       -1.06329   0.00199   0.00000   0.02611   0.02605  -1.03724
    D7        3.14159   0.00000   0.00000   0.00000   0.00000  -3.14159
    D8       -0.00001   0.00000   0.00000   0.00001   0.00001  -0.00000
         Item               Value     Threshold  Converged?
 Maximum Force            0.021154     0.000450     NO 
 RMS     Force            0.004959     0.000300     NO 
 Maximum Displacement     0.051119     0.001800     NO 
 RMS     Displacement     0.017939     0.001200     NO 
 Predicted change in Energy=-6.998210D-04
 GradGradGradGradGradGradGradGradGradGradGradGradGradGradGradGradGradGrad

                          Input orientation:                          
 ---------------------------------------------------------------------
 Center     Atomic      Atomic             Coordinates (Angstroms)
 Number     Number       Type             X           Y           Z
 ---------------------------------------------------------------------
      1          6           0       -0.935238   -0.048495   -0.234332
      2          6           0        0.497778    0.291099    0.044338
      3          8           0        1.020975    1.362997   -0.141143
      4          8           0        1.182871   -0.753236    0.543198
      5          1           0       -1.448371    0.831669   -0.637666
      6          1           0       -1.425680   -0.372618    0.693634
      7          1           0       -0.985831   -0.873167   -0.958256
      8          1           0        2.093497   -0.438249    0.690227
 ---------------------------------------------------------------------
                    Distance matrix (angstroms):
                    1          2          3          4          5
     1  C    0.000000
     2  C    1.498838   0.000000
     3  O    2.414076   1.207106   0.000000
     4  O    2.363810   1.344934   2.230017   0.000000
     5  H    1.095752   2.131864   2.574202   3.290866   0.000000
     6  H    1.098503   2.135837   3.113733   2.640462   1.795322
     7  H    1.098503   2.135838   3.113739   2.640457   1.795323
     8  H    3.190603   1.869609   2.255209   0.974717   3.990090
                    6          7          8
     6  H    0.000000
     7  H    1.781223   0.000000
     8  H    3.519791   3.519788   0.000000
 Stoichiometry    C2H4O2
 Framework group  C1[X(C2H4O2)]
 Deg. of freedom    18
 Full point group                 C1      NOp   1
 Largest Abelian subgroup         C1      NOp   1
 Largest concise Abelian subgroup C1      NOp   1
                         Standard orientation:                         
 ---------------------------------------------------------------------
 Center     Atomic      Atomic             Coordinates (Angstroms)
 Number     Number       Type             X           Y           Z
 ---------------------------------------------------------------------
      1          6           0       -1.392475   -0.121110   -0.000000
      2          6           0        0.087099    0.118423   -0.000000
      3          8           0        0.630413    1.196344    0.000000
      4          8           0        0.790480   -1.027921    0.000000
      5          1           0       -1.918985    0.839858   -0.000007
      6          1           0       -1.673460   -0.699521    0.890616
      7          1           0       -1.673459   -0.699536   -0.890607
      8          1           0        1.731018   -0.772066    0.000000
 ---------------------------------------------------------------------
 Rotational constants (GHZ):          11.4921278           9.4445994           5.3599299
 Standard basis: def2SVP (5D, 7F)
 There are    80 symmetry adapted cartesian basis functions of A   symmetry.
 There are    76 symmetry adapted basis functions of A   symmetry.
    76 basis functions,   128 primitive gaussians,    80 cartesian basis functions
    16 alpha electrons       16 beta electrons
       nuclear repulsion energy       121.3242858452 Hartrees.
 NAtoms=    8 NActive=    8 NUniq=    8 SFac= 1.00D+00 NAtFMM=   60 NAOKFM=F Big=F
 Integral buffers will be    131072 words long.
 Raffenetti 2 integral format.
 Two-electron integral symmetry is turned on.
 One-electron integrals computed using PRISM.
   1 Symmetry operations used in ECPInt.
 ECPInt:  NShTT=     666 NPrTT=    2410 LenC2=     666 LenP2D=    2115.
 LDataN:  DoStor=T MaxTD1= 4 Len=   56
 NBasis=    76 RedAO= T EigKep=  3.44D-03  NBF=    76
 NBsUse=    76 1.00D-06 EigRej= -1.00D+00 NBFU=    76
 Initial guess from the checkpoint file:  "pka_scale_frag3_pka_HA_opt.chk"
 B after Tr=    -0.000000   -0.000000    0.000000
         Rot=    0.999962   -0.000000    0.000000   -0.008686 Ang=  -1.00 deg.
 ExpMin= 1.22D-01 ExpMax= 2.27D+03 ExpMxC= 3.41D+02 IAcc=3 IRadAn=         5 AccDes= 0.00D+00
 Harris functional with IExCor= 1009 and IRadAn=       5 diagonalized for initial guess.
 HarFok:  IExCor= 1009 AccDes= 0.00D+00 IRadAn=         5 IDoV= 1 UseB2=F ITyADJ=14
 ICtDFT=  3500011 ScaDFX=  1.000000  1.000000  1.000000  1.000000
 FoFCou: FMM=F IPFlag=           0 FMFlag=      100000 FMFlg1=           0
         NFxFlg=           0 DoJE=T BraDBF=F KetDBF=T FulRan=T
         wScrn=  0.000000 ICntrl=       500 IOpCl=  0 I1Cent=   200000004 NGrid=           0
         NMat0=    1 NMatS0=      1 NMatT0=    0 NMatD0=    1 NMtDS0=    0 NMtDT0=    0
 Petite list used in FoFCou.
 Keep R1 ints in memory in canonical form, NReq=62306637.
 Requested convergence on RMS density matrix=1.00D-08 within 128 cycles.
 Requested convergence on MAX density matrix=1.00D-06.
 Requested convergence on             energy=1.00D-06.
 No special actions if energy rises.
 Integral accuracy reduced to 1.0D-05 until final iterations.
 Initial convergence to 1.0D-05 achieved.  Increase integral accuracy.
 SCF Done:  E(RMN15) =  -228.644467730     A.U. after   12 cycles
            NFock= 12  Conv=0.26D-08     -V/T= 2.0095
   1 Symmetry operations used in ECPInt.
 ECPInt:  NShTT=     666 NPrTT=    2410 LenC2=     666 LenP2D=    2115.
 LDataN:  DoStor=T MaxTD1= 5 Len=  102
 Calling FoFJK, ICntrl=      2127 FMM=F ISym2X=0 I1Cent= 0 IOpClX= 0 NMat=1 NMatS=1 NMatT=0.
 ***** Axes restored to original set *****
 -------------------------------------------------------------------
 Center     Atomic                   Forces (Hartrees/Bohr)
 Number     Number              X              Y              Z
 -------------------------------------------------------------------
      1        6          -0.001417821    0.002063217   -0.001002475
      2        6           0.004017038    0.003072367    0.000138669
      3        8          -0.002025733   -0.001902208    0.000036975
      4        8          -0.000053790    0.000344165   -0.000118628
      5        1           0.000802398   -0.000257643    0.000291666
      6        1           0.000082643   -0.001461023   -0.000302387
      7        1          -0.000268708   -0.001061265    0.001016976
      8        1          -0.001136027   -0.000797610   -0.000060795
 -------------------------------------------------------------------
 Cartesian Forces:  Max     0.004017038 RMS     0.001412996

 GradGradGradGradGradGradGradGradGradGradGradGradGradGradGradGradGradGrad
 Berny optimization.
 Using GEDIIS/GDIIS optimizer.
 FormGI is forming the generalized inverse of G from B-inverse, IUseBI=4.
 Internal  Forces:  Max     0.002573053 RMS     0.000954626
 Search for a local minimum.
 Step number   2 out of a maximum of   35
 All quantities printed in internal units (Hartrees-Bohrs-Radians)
 Mixed Optimization -- En-DIIS/RFO-DIIS
 Update second derivatives using D2CorX and points    1    2
 DE= -8.40D-04 DEPred=-7.00D-04 R= 1.20D+00
 TightC=F SS=  1.41D+00  RLast= 8.92D-02 DXNew= 5.0454D-01 2.6767D-01
 Trust test= 1.20D+00 RLast= 8.92D-02 DXMaxT set to 3.00D-01
 ITU=  1  0
 Use linear search instead of GDIIS.
     Eigenvalues ---    0.00861   0.01220   0.02409   0.06491   0.07532
     Eigenvalues ---    0.15179   0.16000   0.16000   0.16247   0.24021
     Eigenvalues ---    0.25396   0.32897   0.34332   0.34496   0.35261
     Eigenvalues ---    0.50790   0.55911   0.95260
 RFO step:  Lambda=-6.12471788D-05 EMin= 8.60677041D-03
 Quartic linear search produced a step of  0.25261.
 Iteration  1 RMS(Cart)=  0.00857350 RMS(Int)=  0.00006176
 Iteration  2 RMS(Cart)=  0.00006079 RMS(Int)=  0.00002454
 Iteration  3 RMS(Cart)=  0.00000000 RMS(Int)=  0.00002454
 Variable       Old X    -DE/DX   Delta X   Delta X   Delta X     New X
                                 (Linear)    (Quad)   (Total)
    R1        2.83239   0.00093   0.00286   0.00111   0.00397   2.83637
    R2        2.07067  -0.00069   0.00099  -0.00334  -0.00235   2.06832
    R3        2.07587   0.00014   0.00274  -0.00179   0.00095   2.07682
    R4        2.07587   0.00014   0.00274  -0.00179   0.00095   2.07682
    R5        2.28110  -0.00257  -0.00556   0.00125  -0.00431   2.27679
    R6        2.54156  -0.00032  -0.00039  -0.00039  -0.00078   2.54078
    R7        1.84195  -0.00133  -0.00262  -0.00106  -0.00368   1.83827
    A1        1.91152  -0.00052   0.00096  -0.00130  -0.00036   1.91116
    A2        1.91415   0.00026  -0.00064   0.00077   0.00008   1.91423
    A3        1.91415   0.00026  -0.00064   0.00077   0.00008   1.91424
    A4        1.91652   0.00065   0.00521   0.00419   0.00938   1.92589
    A5        1.91652   0.00065   0.00520   0.00419   0.00938   1.92590
    A6        1.89086  -0.00130  -0.01002  -0.00867  -0.01877   1.87210
    A7        2.19817  -0.00029  -0.00270   0.00082  -0.00188   2.19629
    A8        1.96065  -0.00182  -0.00038  -0.00878  -0.00916   1.95148
    A9        2.12437   0.00211   0.00308   0.00796   0.01104   2.13541
   A10        1.85554   0.00075   0.00997  -0.00256   0.00741   1.86296
    D1        0.00001   0.00000   0.00000  -0.00000   0.00000   0.00001
    D2       -3.14159   0.00000   0.00000   0.00000   0.00000  -3.14159
    D3       -2.10434  -0.00063  -0.00658  -0.00483  -0.01139  -2.11573
    D4        1.03726  -0.00063  -0.00658  -0.00483  -0.01139   1.02587
    D5        2.10435   0.00063   0.00658   0.00483   0.01139   2.11574
    D6       -1.03724   0.00063   0.00658   0.00483   0.01139  -1.02585
    D7       -3.14159   0.00000   0.00000  -0.00000   0.00000  -3.14159
    D8       -0.00000   0.00000   0.00000  -0.00000   0.00000   0.00000
         Item               Value     Threshold  Converged?
 Maximum Force            0.002573     0.000450     NO 
 RMS     Force            0.000955     0.000300     NO 
 Maximum Displacement     0.020807     0.001800     NO 
 RMS     Displacement     0.008584     0.001200     NO 
 Predicted change in Energy=-6.750186D-05
 GradGradGradGradGradGradGradGradGradGradGradGradGradGradGradGradGradGrad

                          Input orientation:                          
 ---------------------------------------------------------------------
 Center     Atomic      Atomic             Coordinates (Angstroms)
 Number     Number       Type             X           Y           Z
 ---------------------------------------------------------------------
      1          6           0       -0.934067   -0.044416   -0.235255
      2          6           0        0.500467    0.298543    0.042798
      3          8           0        1.018556    1.370138   -0.143950
      4          8           0        1.177465   -0.750828    0.541028
      5          1           0       -1.448200    0.833769   -0.638257
      6          1           0       -1.420540   -0.380292    0.691216
      7          1           0       -0.983489   -0.877654   -0.950161
      8          1           0        2.089808   -0.449259    0.692581
 ---------------------------------------------------------------------
                    Distance matrix (angstroms):
                    1          2          3          4          5
     1  C    0.000000
     2  C    1.500941   0.000000
     3  O    2.412889   1.204826   0.000000
     4  O    2.358008   1.344522   2.234489   0.000000
     5  H    1.094510   2.132512   2.572336   3.285693   0.000000
     6  H    1.099008   2.138114   3.116199   2.628590   1.800612
     7  H    1.099007   2.138115   3.116204   2.628584   1.800613
     8  H    3.188824   1.872814   2.271029   0.972770   3.991841
                    6          7          8
     6  H    0.000000
     7  H    1.769887   0.000000
     8  H    3.511026   3.511023   0.000000
 Stoichiometry    C2H4O2
 Framework group  C1[X(C2H4O2)]
 Deg. of freedom    18
 Full point group                 C1      NOp   1
 Largest Abelian subgroup         C1      NOp   1
 Largest concise Abelian subgroup C1      NOp   1
                         Standard orientation:                         
 ---------------------------------------------------------------------
 Center     Atomic      Atomic             Coordinates (Angstroms)
 Number     Number       Type             X           Y           Z
 ---------------------------------------------------------------------
      1          6           0       -1.390695   -0.114340   -0.000000
      2          6           0        0.091620    0.121388   -0.000000
      3          8           0        0.634894    1.196776    0.000000
      4          8           0        0.781032   -1.032929   -0.000000
      5          1           0       -1.913577    0.847193   -0.000007
      6          1           0       -1.671921   -0.702214    0.884948
      7          1           0       -1.671920   -0.702228   -0.884939
      8          1           0        1.724461   -0.795814    0.000001
 ---------------------------------------------------------------------
 Rotational constants (GHZ):          11.4397317           9.4915628           5.3612247
 Standard basis: def2SVP (5D, 7F)
 There are    80 symmetry adapted cartesian basis functions of A   symmetry.
 There are    76 symmetry adapted basis functions of A   symmetry.
    76 basis functions,   128 primitive gaussians,    80 cartesian basis functions
    16 alpha electrons       16 beta electrons
       nuclear repulsion energy       121.3600117543 Hartrees.
 NAtoms=    8 NActive=    8 NUniq=    8 SFac= 1.00D+00 NAtFMM=   60 NAOKFM=F Big=F
 Integral buffers will be    131072 words long.
 Raffenetti 2 integral format.
 Two-electron integral symmetry is turned on.
 One-electron integrals computed using PRISM.
   1 Symmetry operations used in ECPInt.
 ECPInt:  NShTT=     666 NPrTT=    2410 LenC2=     666 LenP2D=    2114.
 LDataN:  DoStor=T MaxTD1= 4 Len=   56
 NBasis=    76 RedAO= T EigKep=  3.50D-03  NBF=    76
 NBsUse=    76 1.00D-06 EigRej= -1.00D+00 NBFU=    76
 Initial guess from the checkpoint file:  "pka_scale_frag3_pka_HA_opt.chk"
 B after Tr=     0.000000   -0.000000   -0.000000
         Rot=    0.999997   -0.000000    0.000000    0.002392 Ang=  -0.27 deg.
 ExpMin= 1.22D-01 ExpMax= 2.27D+03 ExpMxC= 3.41D+02 IAcc=3 IRadAn=         5 AccDes= 0.00D+00
 Harris functional with IExCor= 1009 and IRadAn=       5 diagonalized for initial guess.
 HarFok:  IExCor= 1009 AccDes= 0.00D+00 IRadAn=         5 IDoV= 1 UseB2=F ITyADJ=14
 ICtDFT=  3500011 ScaDFX=  1.000000  1.000000  1.000000  1.000000
 FoFCou: FMM=F IPFlag=           0 FMFlag=      100000 FMFlg1=           0
         NFxFlg=           0 DoJE=T BraDBF=F KetDBF=T FulRan=T
         wScrn=  0.000000 ICntrl=       500 IOpCl=  0 I1Cent=   200000004 NGrid=           0
         NMat0=    1 NMatS0=      1 NMatT0=    0 NMatD0=    1 NMtDS0=    0 NMtDT0=    0
 Petite list used in FoFCou.
 Keep R1 ints in memory in canonical form, NReq=62306637.
 Requested convergence on RMS density matrix=1.00D-08 within 128 cycles.
 Requested convergence on MAX density matrix=1.00D-06.
 Requested convergence on             energy=1.00D-06.
 No special actions if energy rises.
 Integral accuracy reduced to 1.0D-05 until final iterations.
 Initial convergence to 1.0D-05 achieved.  Increase integral accuracy.
 SCF Done:  E(RMN15) =  -228.644530794     A.U. after   10 cycles
            NFock= 10  Conv=0.96D-08     -V/T= 2.0095
   1 Symmetry operations used in ECPInt.
 ECPInt:  NShTT=     666 NPrTT=    2410 LenC2=     666 LenP2D=    2114.
 LDataN:  DoStor=T MaxTD1= 5 Len=  102
 Calling FoFJK, ICntrl=      2127 FMM=F ISym2X=0 I1Cent= 0 IOpClX= 0 NMat=1 NMatS=1 NMatT=0.
 ***** Axes restored to original set *****
 -------------------------------------------------------------------
 Center     Atomic                   Forces (Hartrees/Bohr)
 Number     Number              X              Y              Z
 -------------------------------------------------------------------
      1        6          -0.000338630    0.000179766   -0.000144567
      2        6          -0.000810961   -0.000418156   -0.000089288
      3        8           0.000560832    0.000133357    0.000108940
      4        8          -0.000035682    0.000229356   -0.000078974
      5        1          -0.000077726   -0.000052535   -0.000004781
      6        1           0.000107082   -0.000063811   -0.000071574
      7        1           0.000052391   -0.000001587    0.000133807
      8        1           0.000542694   -0.000006389    0.000146437
 -------------------------------------------------------------------
 Cartesian Forces:  Max     0.000810961 RMS     0.000272244

 GradGradGradGradGradGradGradGradGradGradGradGradGradGradGradGradGradGrad
 Berny optimization.
 Using GEDIIS/GDIIS optimizer.
 FormGI is forming the generalized inverse of G from B-inverse, IUseBI=4.
 Internal  Forces:  Max     0.000708494 RMS     0.000241131
 Search for a local minimum.
 Step number   3 out of a maximum of   35
 All quantities printed in internal units (Hartrees-Bohrs-Radians)
 Mixed Optimization -- En-DIIS/RFO-DIIS
 Swapping is turned off.
 Update second derivatives using D2CorX and points    1    2    3
 DE= -6.31D-05 DEPred=-6.75D-05 R= 9.34D-01
 TightC=F SS=  1.41D+00  RLast= 3.70D-02 DXNew= 5.0454D-01 1.1093D-01
 Trust test= 9.34D-01 RLast= 3.70D-02 DXMaxT set to 3.00D-01
 ITU=  1  1  0
     Eigenvalues ---    0.00861   0.01224   0.02409   0.05863   0.07493
     Eigenvalues ---    0.15072   0.16000   0.16001   0.16349   0.25267
     Eigenvalues ---    0.27329   0.32602   0.34412   0.34496   0.35254
     Eigenvalues ---    0.51995   0.55967   0.96374
 En-DIIS/RFO-DIIS/Sim-DIIS IScMMF=       -3 using points:     3    2
 RFO step:  Lambda=-5.14904397D-06.
 DidBck=F Rises=F RFO-DIIS coefs:    1.05391   -0.05391
 Iteration  1 RMS(Cart)=  0.00130312 RMS(Int)=  0.00000136
 Iteration  2 RMS(Cart)=  0.00000099 RMS(Int)=  0.00000087
 Variable       Old X    -DE/DX   Delta X   Delta X   Delta X     New X
                                 (Linear)    (Quad)   (Total)
    R1        2.83637   0.00025   0.00021   0.00059   0.00081   2.83717
    R2        2.06832  -0.00000  -0.00013   0.00004  -0.00009   2.06824
    R3        2.07682  -0.00009   0.00005  -0.00029  -0.00024   2.07658
    R4        2.07682  -0.00009   0.00005  -0.00029  -0.00024   2.07658
    R5        2.27679   0.00034  -0.00023   0.00049   0.00026   2.27705
    R6        2.54078   0.00011  -0.00004   0.00021   0.00016   2.54094
    R7        1.83827   0.00053  -0.00020   0.00110   0.00090   1.83917
    A1        1.91116   0.00021  -0.00002   0.00159   0.00157   1.91273
    A2        1.91423  -0.00011   0.00000  -0.00080  -0.00080   1.91343
    A3        1.91424  -0.00011   0.00000  -0.00080  -0.00080   1.91344
    A4        1.92589   0.00001   0.00051   0.00016   0.00066   1.92656
    A5        1.92590   0.00001   0.00051   0.00016   0.00066   1.92656
    A6        1.87210  -0.00003  -0.00101  -0.00037  -0.00138   1.87071
    A7        2.19629   0.00038  -0.00010   0.00151   0.00141   2.19771
    A8        1.95148   0.00033  -0.00049   0.00149   0.00100   1.95248
    A9        2.13541  -0.00071   0.00060  -0.00301  -0.00241   2.13300
   A10        1.86296   0.00035   0.00040   0.00182   0.00222   1.86518
    D1        0.00001   0.00000   0.00000   0.00000   0.00000   0.00001
    D2       -3.14159  -0.00000   0.00000  -0.00000  -0.00000  -3.14159
    D3       -2.11573  -0.00008  -0.00061  -0.00070  -0.00131  -2.11703
    D4        1.02587  -0.00008  -0.00061  -0.00070  -0.00131   1.02456
    D5        2.11574   0.00008   0.00061   0.00070   0.00131   2.11705
    D6       -1.02585   0.00008   0.00061   0.00069   0.00131  -1.02454
    D7       -3.14159   0.00000   0.00000   0.00000   0.00000  -3.14159
    D8        0.00000  -0.00000   0.00000  -0.00000  -0.00000  -0.00000
         Item               Value     Threshold  Converged?
 Maximum Force            0.000708     0.000450     NO 
 RMS     Force            0.000241     0.000300     YES
 Maximum Displacement     0.003709     0.001800     NO 
 RMS     Displacement     0.001303     0.001200     NO 
 Predicted change in Energy=-2.574174D-06
 GradGradGradGradGradGradGradGradGradGradGradGradGradGradGradGradGradGrad

                          Input orientation:                          
 ---------------------------------------------------------------------
 Center     Atomic      Atomic             Coordinates (Angstroms)
 Number     Number       Type             X           Y           Z
 ---------------------------------------------------------------------
      1          6           0       -0.934914   -0.043782   -0.235673
      2          6           0        0.500111    0.298796    0.042626
      3          8           0        1.020093    1.369750   -0.143424
      4          8           0        1.177883   -0.750150    0.540934
      5          1           0       -1.450163    0.833659   -0.638746
      6          1           0       -1.420415   -0.380703    0.690778
      7          1           0       -0.983638   -0.877754   -0.949574
      8          1           0        2.091042   -0.449816    0.693078
 ---------------------------------------------------------------------
                    Distance matrix (angstroms):
                    1          2          3          4          5
     1  C    0.000000
     2  C    1.501368   0.000000
     3  O    2.414256   1.204964   0.000000
     4  O    2.359234   1.344608   2.233208   0.000000
     5  H    1.094464   2.133990   2.575831   3.287357   0.000000
     6  H    1.098881   2.137812   3.117059   2.628706   1.800886
     7  H    1.098881   2.137812   3.117064   2.628701   1.800887
     8  H    3.191214   1.874718   2.271009   0.973246   3.995146
                    6          7          8
     6  H    0.000000
     7  H    1.768782   0.000000
     8  H    3.512138   3.512135   0.000000
 Stoichiometry    C2H4O2
 Framework group  C1[X(C2H4O2)]
 Deg. of freedom    18
 Full point group                 C1      NOp   1
 Largest Abelian subgroup         C1      NOp   1
 Largest concise Abelian subgroup C1      NOp   1
                         Standard orientation:                         
 ---------------------------------------------------------------------
 Center     Atomic      Atomic             Coordinates (Angstroms)
 Number     Number       Type             X           Y           Z
 ---------------------------------------------------------------------
      1          6           0       -1.391862   -0.113174   -0.000000
      2          6           0        0.091060    0.121452   -0.000001
      3          8           0        0.636762    1.195764    0.000000
      4          8           0        0.780758   -1.032796    0.000000
      5          1           0       -1.915473    0.847910   -0.000007
      6          1           0       -1.672498   -0.701924    0.884395
      7          1           0       -1.672497   -0.701938   -0.884387
      8          1           0        1.725123   -0.797462    0.000001
 ---------------------------------------------------------------------
 Rotational constants (GHZ):          11.4514912           9.4772379           5.3590044
 Standard basis: def2SVP (5D, 7F)
 There are    80 symmetry adapted cartesian basis functions of A   symmetry.
 There are    76 symmetry adapted basis functions of A   symmetry.
    76 basis functions,   128 primitive gaussians,    80 cartesian basis functions
    16 alpha electrons       16 beta electrons
       nuclear repulsion energy       121.3416186291 Hartrees.
 NAtoms=    8 NActive=    8 NUniq=    8 SFac= 1.00D+00 NAtFMM=   60 NAOKFM=F Big=F
 Integral buffers will be    131072 words long.
 Raffenetti 2 integral format.
 Two-electron integral symmetry is turned on.
 One-electron integrals computed using PRISM.
   1 Symmetry operations used in ECPInt.
 ECPInt:  NShTT=     666 NPrTT=    2410 LenC2=     666 LenP2D=    2114.
 LDataN:  DoStor=T MaxTD1= 4 Len=   56
 NBasis=    76 RedAO= T EigKep=  3.50D-03  NBF=    76
 NBsUse=    76 1.00D-06 EigRej= -1.00D+00 NBFU=    76
 Initial guess from the checkpoint file:  "pka_scale_frag3_pka_HA_opt.chk"
 B after Tr=    -0.000000    0.000000   -0.000000
         Rot=    1.000000   -0.000000   -0.000000    0.000352 Ang=  -0.04 deg.
 Keep R1 ints in memory in canonical form, NReq=62306637.
 Requested convergence on RMS density matrix=1.00D-08 within 128 cycles.
 Requested convergence on MAX density matrix=1.00D-06.
 Requested convergence on             energy=1.00D-06.
 No special actions if energy rises.
 SCF Done:  E(RMN15) =  -228.644532969     A.U. after    8 cycles
            NFock=  8  Conv=0.36D-08     -V/T= 2.0095
   1 Symmetry operations used in ECPInt.
 ECPInt:  NShTT=     666 NPrTT=    2410 LenC2=     666 LenP2D=    2114.
 LDataN:  DoStor=T MaxTD1= 5 Len=  102
 Calling FoFJK, ICntrl=      2127 FMM=F ISym2X=0 I1Cent= 0 IOpClX= 0 NMat=1 NMatS=1 NMatT=0.
 ***** Axes restored to original set *****
 -------------------------------------------------------------------
 Center     Atomic                   Forces (Hartrees/Bohr)
 Number     Number              X              Y              Z
 -------------------------------------------------------------------
      1        6           0.000102031    0.000031755    0.000017499
      2        6          -0.000068387   -0.000133900    0.000022536
      3        8           0.000049145    0.000203003   -0.000048493
      4        8          -0.000075669   -0.000150451    0.000025395
      5        1           0.000000589   -0.000009776    0.000003114
      6        1           0.000025718    0.000000287    0.000026187
      7        1           0.000034595   -0.000009836   -0.000007241
      8        1          -0.000068021    0.000068918   -0.000038996
 -------------------------------------------------------------------
 Cartesian Forces:  Max     0.000203003 RMS     0.000071740

 GradGradGradGradGradGradGradGradGradGradGradGradGradGradGradGradGradGrad
 Berny optimization.
 Using GEDIIS/GDIIS optimizer.
 FormGI is forming the generalized inverse of G from B-inverse, IUseBI=4.
 Internal  Forces:  Max     0.000208909 RMS     0.000075536
 Search for a local minimum.
 Step number   4 out of a maximum of   35
 All quantities printed in internal units (Hartrees-Bohrs-Radians)
 Mixed Optimization -- En-DIIS/RFO-DIIS
 Swapping is turned off.
 Update second derivatives using D2CorX and points    1    2    3    4
 DE= -2.18D-06 DEPred=-2.57D-06 R= 8.45D-01
 TightC=F SS=  1.41D+00  RLast= 5.37D-03 DXNew= 5.0454D-01 1.6095D-02
 Trust test= 8.45D-01 RLast= 5.37D-03 DXMaxT set to 3.00D-01
 ITU=  1  1  1  0
     Eigenvalues ---    0.00861   0.01223   0.02409   0.05616   0.07482
     Eigenvalues ---    0.15451   0.15876   0.16000   0.16784   0.24577
     Eigenvalues ---    0.28905   0.34211   0.34496   0.35154   0.36900
     Eigenvalues ---    0.52712   0.56026   0.95873
 En-DIIS/RFO-DIIS/Sim-DIIS IScMMF=       -3 using points:     4    3    2
 RFO step:  Lambda=-3.65707891D-07.
 DidBck=F Rises=F RFO-DIIS coefs:    0.93888    0.06458   -0.00346
 Iteration  1 RMS(Cart)=  0.00040871 RMS(Int)=  0.00000007
 Iteration  2 RMS(Cart)=  0.00000007 RMS(Int)=  0.00000003
 Variable       Old X    -DE/DX   Delta X   Delta X   Delta X     New X
                                 (Linear)    (Quad)   (Total)
    R1        2.83717  -0.00017  -0.00004  -0.00037  -0.00041   2.83677
    R2        2.06824  -0.00001  -0.00000   0.00000   0.00000   2.06824
    R3        2.07658   0.00001   0.00002   0.00001   0.00002   2.07661
    R4        2.07658   0.00001   0.00002   0.00001   0.00002   2.07661
    R5        2.27705   0.00021  -0.00003   0.00023   0.00020   2.27725
    R6        2.54094  -0.00001  -0.00001   0.00001  -0.00001   2.54093
    R7        1.83917  -0.00005  -0.00007   0.00004  -0.00003   1.83914
    A1        1.91273   0.00002  -0.00010   0.00034   0.00024   1.91298
    A2        1.91343  -0.00005   0.00005  -0.00036  -0.00031   1.91313
    A3        1.91344  -0.00005   0.00005  -0.00036  -0.00031   1.91313
    A4        1.92656   0.00002  -0.00001   0.00011   0.00011   1.92666
    A5        1.92656   0.00002  -0.00001   0.00011   0.00010   1.92666
    A6        1.87071   0.00003   0.00002   0.00013   0.00015   1.87086
    A7        2.19771   0.00002  -0.00009   0.00021   0.00012   2.19782
    A8        1.95248  -0.00014  -0.00009  -0.00025  -0.00035   1.95214
    A9        2.13300   0.00012   0.00019   0.00004   0.00023   2.13323
   A10        1.86518  -0.00017  -0.00011  -0.00068  -0.00079   1.86439
    D1        0.00001  -0.00000  -0.00000  -0.00000  -0.00000   0.00001
    D2       -3.14159   0.00000   0.00000   0.00000   0.00000  -3.14158
    D3       -2.11703  -0.00001   0.00004  -0.00013  -0.00009  -2.11713
    D4        1.02456  -0.00001   0.00004  -0.00013  -0.00009   1.02447
    D5        2.11705   0.00001  -0.00004   0.00013   0.00009   2.11714
    D6       -1.02454   0.00001  -0.00004   0.00013   0.00009  -1.02445
    D7       -3.14159  -0.00000  -0.00000  -0.00000  -0.00000   3.14159
    D8       -0.00000   0.00000   0.00000   0.00000   0.00000   0.00000
         Item               Value     Threshold  Converged?
 Maximum Force            0.000209     0.000450     YES
 RMS     Force            0.000076     0.000300     YES
 Maximum Displacement     0.001080     0.001800     YES
 RMS     Displacement     0.000409     0.001200     YES
 Predicted change in Energy=-1.828461D-07
 Optimization completed.
    -- Stationary point found.
                           ----------------------------
                           !   Optimized Parameters   !
                           ! (Angstroms and Degrees)  !
 --------------------------                            --------------------------
 ! Name  Definition              Value          Derivative Info.                !
 --------------------------------------------------------------------------------
 ! R1    R(1,2)                  1.5014         -DE/DX =   -0.0002              !
 ! R2    R(1,5)                  1.0945         -DE/DX =    0.0                 !
 ! R3    R(1,6)                  1.0989         -DE/DX =    0.0                 !
 ! R4    R(1,7)                  1.0989         -DE/DX =    0.0                 !
 ! R5    R(2,3)                  1.205          -DE/DX =    0.0002              !
 ! R6    R(2,4)                  1.3446         -DE/DX =    0.0                 !
 ! R7    R(4,8)                  0.9732         -DE/DX =    0.0                 !
 ! A1    A(2,1,5)              109.5914         -DE/DX =    0.0                 !
 ! A2    A(2,1,6)              109.6317         -DE/DX =    0.0                 !
 ! A3    A(2,1,7)              109.6318         -DE/DX =    0.0                 !
 ! A4    A(5,1,6)              110.3837         -DE/DX =    0.0                 !
 ! A5    A(5,1,7)              110.3837         -DE/DX =    0.0                 !
 ! A6    A(6,1,7)              107.184          -DE/DX =    0.0                 !
 ! A7    A(1,2,3)              125.9192         -DE/DX =    0.0                 !
 ! A8    A(1,2,4)              111.8689         -DE/DX =   -0.0001              !
 ! A9    A(3,2,4)              122.2119         -DE/DX =    0.0001              !
 ! A10   A(2,4,8)              106.8667         -DE/DX =   -0.0002              !
 ! D1    D(5,1,2,3)              0.0004         -DE/DX =    0.0                 !
 ! D2    D(5,1,2,4)           -179.9997         -DE/DX =    0.0                 !
 ! D3    D(6,1,2,3)           -121.2971         -DE/DX =    0.0                 !
 ! D4    D(6,1,2,4)             58.7028         -DE/DX =    0.0                 !
 ! D5    D(7,1,2,3)            121.2981         -DE/DX =    0.0                 !
 ! D6    D(7,1,2,4)            -58.702          -DE/DX =    0.0                 !
 ! D7    D(1,2,4,8)            180.0001         -DE/DX =    0.0                 !
 ! D8    D(3,2,4,8)              0.0            -DE/DX =    0.0                 !
 --------------------------------------------------------------------------------
 GradGradGradGradGradGradGradGradGradGradGradGradGradGradGradGradGradGrad

                          Input orientation:                          
 ---------------------------------------------------------------------
 Center     Atomic      Atomic             Coordinates (Angstroms)
 Number     Number       Type             X           Y           Z
 ---------------------------------------------------------------------
      1          6           0       -0.934914   -0.043782   -0.235673
      2          6           0        0.500111    0.298796    0.042626
      3          8           0        1.020093    1.369750   -0.143424
      4          8           0        1.177883   -0.750150    0.540934
      5          1           0       -1.450163    0.833659   -0.638746
      6          1           0       -1.420415   -0.380703    0.690778
      7          1           0       -0.983638   -0.877754   -0.949574
      8          1           0        2.091042   -0.449816    0.693078
 ---------------------------------------------------------------------
                    Distance matrix (angstroms):
                    1          2          3          4          5
     1  C    0.000000
     2  C    1.501368   0.000000
     3  O    2.414256   1.204964   0.000000
     4  O    2.359234   1.344608   2.233208   0.000000
     5  H    1.094464   2.133990   2.575831   3.287357   0.000000
     6  H    1.098881   2.137812   3.117059   2.628706   1.800886
     7  H    1.098881   2.137812   3.117064   2.628701   1.800887
     8  H    3.191214   1.874718   2.271009   0.973246   3.995146
                    6          7          8
     6  H    0.000000
     7  H    1.768782   0.000000
     8  H    3.512138   3.512135   0.000000
 Stoichiometry    C2H4O2
 Framework group  C1[X(C2H4O2)]
 Deg. of freedom    18
 Full point group                 C1      NOp   1
 Largest Abelian subgroup         C1      NOp   1
 Largest concise Abelian subgroup C1      NOp   1
                         Standard orientation:                         
 ---------------------------------------------------------------------
 Center     Atomic      Atomic             Coordinates (Angstroms)
 Number     Number       Type             X           Y           Z
 ---------------------------------------------------------------------
      1          6           0       -1.391862   -0.113174   -0.000000
      2          6           0        0.091060    0.121452   -0.000001
      3          8           0        0.636762    1.195764    0.000000
      4          8           0        0.780758   -1.032796    0.000000
      5          1           0       -1.915473    0.847910   -0.000007
      6          1           0       -1.672498   -0.701924    0.884395
      7          1           0       -1.672497   -0.701938   -0.884387
      8          1           0        1.725123   -0.797462    0.000001
 ---------------------------------------------------------------------
 Rotational constants (GHZ):          11.4514912           9.4772379           5.3590044

 **********************************************************************

            Population analysis using the SCF Density.

 **********************************************************************

 Orbital symmetries:
       Occupied  (A) (A) (A) (A) (A) (A) (A) (A) (A) (A) (A) (A)
                 (A) (A) (A) (A)
       Virtual   (A) (A) (A) (A) (A) (A) (A) (A) (A) (A) (A) (A)
                 (A) (A) (A) (A) (A) (A) (A) (A) (A) (A) (A) (A)
                 (A) (A) (A) (A) (A) (A) (A) (A) (A) (A) (A) (A)
                 (A) (A) (A) (A) (A) (A) (A) (A) (A) (A) (A) (A)
                 (A) (A) (A) (A) (A) (A) (A) (A) (A) (A) (A) (A)
 The electronic state is 1-A.
 Alpha  occ. eigenvalues --  -18.85831 -18.80176 -10.18545 -10.06439  -1.13767
 Alpha  occ. eigenvalues --   -1.03914  -0.79480  -0.65023  -0.52872  -0.52281
 Alpha  occ. eigenvalues --   -0.51972  -0.44988  -0.43491  -0.43298  -0.36430
 Alpha  occ. eigenvalues --   -0.32276
 Alpha virt. eigenvalues --    0.04424   0.10452   0.13016   0.17090   0.18161
 Alpha virt. eigenvalues --    0.25076   0.29748   0.34931   0.46945   0.48578
 Alpha virt. eigenvalues --    0.53004   0.55581   0.55583   0.62086   0.65695
 Alpha virt. eigenvalues --    0.69250   0.69475   0.70227   0.72061   0.84423
 Alpha virt. eigenvalues --    0.92829   0.98674   1.00726   1.06130   1.15343
 Alpha virt. eigenvalues --    1.23278   1.23607   1.31024   1.40577   1.44424
 Alpha virt. eigenvalues --    1.52973   1.56393   1.61581   1.64170   1.68268
 Alpha virt. eigenvalues --    1.73167   1.77687   1.79524   1.92167   1.95743
 Alpha virt. eigenvalues --    2.03579   2.06022   2.17081   2.30067   2.33883
 Alpha virt. eigenvalues --    2.40406   2.48742   2.64055   2.67055   2.72149
 Alpha virt. eigenvalues --    2.81331   2.82325   2.88604   2.94163   3.07936
 Alpha virt. eigenvalues --    3.17723   3.19211   3.47539   3.58887   3.71287
          Condensed to atoms (all electrons):
               1          2          3          4          5          6
     1  C    4.775966   0.339639  -0.092175  -0.122792   0.358833   0.355871
     2  C    0.339639   4.517324   0.727317   0.372270  -0.000721   0.002262
     3  O   -0.092175   0.727317   7.645793  -0.084838   0.006888   0.001663
     4  O   -0.122792   0.372270  -0.084838   7.706801   0.005009   0.004355
     5  H    0.358833  -0.000721   0.006888   0.005009   0.607741  -0.012041
     6  H    0.355871   0.002262   0.001663   0.004355  -0.012041   0.606026
     7  H    0.355871   0.002262   0.001663   0.004355  -0.012041  -0.011156
     8  H    0.014515  -0.008209   0.007212   0.309808  -0.000622  -0.000495
               7          8
     1  C    0.355871   0.014515
     2  C    0.002262  -0.008209
     3  O    0.001663   0.007212
     4  O    0.004355   0.309808
     5  H   -0.012041  -0.000622
     6  H   -0.011156  -0.000495
     7  H    0.606027  -0.000495
     8  H   -0.000495   0.485904
 Mulliken charges:
               1
     1  C    0.014272
     2  C    0.047856
     3  O   -0.213523
     4  O   -0.194968
     5  H    0.046953
     6  H    0.053514
     7  H    0.053514
     8  H    0.192381
 Sum of Mulliken charges =  -0.00000
 Mulliken charges with hydrogens summed into heavy atoms:
               1
     1  C    0.168254
     2  C    0.047856
     3  O   -0.213523
     4  O   -0.002587
 Electronic spatial extent (au):  <R**2>=            251.8646
 Charge=             -0.0000 electrons
 Dipole moment (field-independent basis, Debye):
    X=             -0.5321    Y=             -1.5563    Z=              0.0000  Tot=              1.6447
 Quadrupole moment (field-independent basis, Debye-Ang):
   XX=            -18.8246   YY=            -27.8848   ZZ=            -22.7150
   XY=             -2.1759   XZ=             -0.0000   YZ=             -0.0000
 Traceless Quadrupole moment (field-independent basis, Debye-Ang):
   XX=              4.3169   YY=             -4.7434   ZZ=              0.4265
   XY=             -2.1759   XZ=             -0.0000   YZ=             -0.0000
 Octapole moment (field-independent basis, Debye-Ang**2):
  XXX=             13.1949  YYY=             -1.9196  ZZZ=              0.0000  XYY=             -1.0766
  XXY=             -4.5408  XXZ=              0.0000  XZZ=              1.3925  YZZ=             -0.5248
  YYZ=             -0.0000  XYZ=             -0.0000
 Hexadecapole moment (field-independent basis, Debye-Ang**3):
 XXXX=           -144.5839 YYYY=           -119.1251 ZZZZ=            -25.5993 XXXY=            -11.0405
 XXXZ=              0.0000 YYYX=             -3.7954 YYYZ=              0.0000 ZZZX=             -0.0000
 ZZZY=             -0.0000 XXYY=            -42.4193 XXZZ=            -30.2709 YYZZ=            -22.5523
 XXYZ=             -0.0000 YYXZ=              0.0000 ZZXY=              0.9591
 N-N= 1.213416186291D+02 E-N=-7.787970396510D+02  KE= 2.264942782558D+02
 1\1\GINC-CHPC-CN078\FOpt\RMN15\def2SVP\C2H4O2\S1155246976\10-Jun-2026\
 0\\# opt freq mn15 def2svp\\Gaussian pKa calculation job\\0,1\C,-0.934
 9137039,-0.0437818404,-0.2356731056\C,0.5001110528,0.2987956076,0.0426
 262894\O,1.0200934945,1.3697495535,-0.1434236564\O,1.1778830621,-0.750
 1496163,0.5409342988\H,-1.4501628811,0.8336586286,-0.6387457356\H,-1.4
 204151146,-0.3807026574,0.6907779135\H,-0.9836377528,-0.8777540339,-0.
 9495743054\H,2.0910418441,-0.449815643,0.6930782974\\Version=ES64L-G16
 RevB.01\State=1-A\HF=-228.644533\RMSD=3.580e-09\RMSF=7.174e-05\Dipole=
 -0.1978193,-0.6022696,0.1298195\Quadrupole=3.0583599,-3.4268959,0.3685
 36,-1.2446468,1.1070529,0.8030385\PG=C01 [X(C2H4O2)]\\@


 REFRAIN FROM ILLUSIONS, INSIST ON WORK AND NOT WORDS,
 PATIENTLY SEEK DIVINE AND SCIENTIFIC TRUTH.
 LAST WORDS OF MARIA MENDELEEVA TO HER SON DMITRI, C. 1850
 Job cpu time:       0 days  0 hours  4 minutes 34.1 seconds.
 Elapsed time:       0 days  0 hours  0 minutes  5.0 seconds.
 File lengths (MBytes):  RWF=      6 Int=      0 D2E=      0 Chk=      2 Scr=      1
 Normal termination of Gaussian 16 at Wed Jun 10 15:26:59 2026.
 Link1:  Proceeding to internal job step number  2.
 ------------------------------------------------------------------
 #N Geom=AllCheck Guess=TCheck SCRF=Check GenChk RMN15/def2SVP Freq
 ------------------------------------------------------------------
 1/10=4,29=7,30=1,38=1,40=1/1,3;
 2/12=2,40=1/2;
 3/5=43,7=101,11=2,14=-4,25=1,30=1,70=2,71=2,74=-73,116=1,140=1/1,2,3;
 4/5=101/1;
 5/5=2,38=6,98=1/2;
 8/6=4,10=90,11=11/1;
 11/6=1,8=1,9=11,15=111,16=1/1,2,10;
 10/6=1/2;
 6/7=2,8=2,9=2,10=2,28=1/1;
 7/8=1,10=1,25=1/1,2,3,16;
 1/10=4,30=1/3;
 99//99;
 Structure from the checkpoint file:  "pka_scale_frag3_pka_HA_opt.chk"
 ----------------------------
 Gaussian pKa calculation job
 ----------------------------
 Charge =  0 Multiplicity = 1
 Redundant internal coordinates found in file.  (old form).
 C,0,-0.9349137039,-0.0437818404,-0.2356731056
 C,0,0.5001110528,0.2987956076,0.0426262894
 O,0,1.0200934945,1.3697495535,-0.1434236564
 O,0,1.1778830621,-0.7501496163,0.5409342988
 H,0,-1.4501628811,0.8336586286,-0.6387457356
 H,0,-1.4204151146,-0.3807026574,0.6907779135
 H,0,-0.9836377528,-0.8777540339,-0.9495743054
 H,0,2.0910418441,-0.449815643,0.6930782974
 Recover connectivity data from disk.

 GradGradGradGradGradGradGradGradGradGradGradGradGradGradGradGradGradGrad
 Berny optimization.
 Initialization pass.
                           ----------------------------
                           !    Initial Parameters    !
                           ! (Angstroms and Degrees)  !
 --------------------------                            --------------------------
 ! Name  Definition              Value          Derivative Info.                !
 --------------------------------------------------------------------------------
 ! R1    R(1,2)                  1.5014         calculate D2E/DX2 analytically  !
 ! R2    R(1,5)                  1.0945         calculate D2E/DX2 analytically  !
 ! R3    R(1,6)                  1.0989         calculate D2E/DX2 analytically  !
 ! R4    R(1,7)                  1.0989         calculate D2E/DX2 analytically  !
 ! R5    R(2,3)                  1.205          calculate D2E/DX2 analytically  !
 ! R6    R(2,4)                  1.3446         calculate D2E/DX2 analytically  !
 ! R7    R(4,8)                  0.9732         calculate D2E/DX2 analytically  !
 ! A1    A(2,1,5)              109.5914         calculate D2E/DX2 analytically  !
 ! A2    A(2,1,6)              109.6317         calculate D2E/DX2 analytically  !
 ! A3    A(2,1,7)              109.6318         calculate D2E/DX2 analytically  !
 ! A4    A(5,1,6)              110.3837         calculate D2E/DX2 analytically  !
 ! A5    A(5,1,7)              110.3837         calculate D2E/DX2 analytically  !
 ! A6    A(6,1,7)              107.184          calculate D2E/DX2 analytically  !
 ! A7    A(1,2,3)              125.9192         calculate D2E/DX2 analytically  !
 ! A8    A(1,2,4)              111.8689         calculate D2E/DX2 analytically  !
 ! A9    A(3,2,4)              122.2119         calculate D2E/DX2 analytically  !
 ! A10   A(2,4,8)              106.8667         calculate D2E/DX2 analytically  !
 ! D1    D(5,1,2,3)              0.0004         calculate D2E/DX2 analytically  !
 ! D2    D(5,1,2,4)           -179.9997         calculate D2E/DX2 analytically  !
 ! D3    D(6,1,2,3)           -121.2971         calculate D2E/DX2 analytically  !
 ! D4    D(6,1,2,4)             58.7028         calculate D2E/DX2 analytically  !
 ! D5    D(7,1,2,3)            121.2981         calculate D2E/DX2 analytically  !
 ! D6    D(7,1,2,4)            -58.702          calculate D2E/DX2 analytically  !
 ! D7    D(1,2,4,8)           -179.9999         calculate D2E/DX2 analytically  !
 ! D8    D(3,2,4,8)              0.0            calculate D2E/DX2 analytically  !
 --------------------------------------------------------------------------------
 Trust Radius=3.00D-01 FncErr=1.00D-07 GrdErr=1.00D-07 EigMax=2.50D+02 EigMin=1.00D-04
 Number of steps in this run=      2 maximum allowed number of steps=      2.
 GradGradGradGradGradGradGradGradGradGradGradGradGradGradGradGradGradGrad

                          Input orientation:                          
 ---------------------------------------------------------------------
 Center     Atomic      Atomic             Coordinates (Angstroms)
 Number     Number       Type             X           Y           Z
 ---------------------------------------------------------------------
      1          6           0       -0.934914   -0.043782   -0.235673
      2          6           0        0.500111    0.298796    0.042626
      3          8           0        1.020093    1.369750   -0.143424
      4          8           0        1.177883   -0.750150    0.540934
      5          1           0       -1.450163    0.833659   -0.638746
      6          1           0       -1.420415   -0.380703    0.690778
      7          1           0       -0.983638   -0.877754   -0.949574
      8          1           0        2.091042   -0.449816    0.693078
 ---------------------------------------------------------------------
                    Distance matrix (angstroms):
                    1          2          3          4          5
     1  C    0.000000
     2  C    1.501368   0.000000
     3  O    2.414256   1.204964   0.000000
     4  O    2.359234   1.344608   2.233208   0.000000
     5  H    1.094464   2.133990   2.575831   3.287357   0.000000
     6  H    1.098881   2.137812   3.117059   2.628706   1.800886
     7  H    1.098881   2.137812   3.117064   2.628701   1.800887
     8  H    3.191214   1.874718   2.271009   0.973246   3.995146
                    6          7          8
     6  H    0.000000
     7  H    1.768782   0.000000
     8  H    3.512138   3.512135   0.000000
 Stoichiometry    C2H4O2
 Framework group  C1[X(C2H4O2)]
 Deg. of freedom    18
 Full point group                 C1      NOp   1
 Largest Abelian subgroup         C1      NOp   1
 Largest concise Abelian subgroup C1      NOp   1
                         Standard orientation:                         
 ---------------------------------------------------------------------
 Center     Atomic      Atomic             Coordinates (Angstroms)
 Number     Number       Type             X           Y           Z
 ---------------------------------------------------------------------
      1          6           0       -1.391862   -0.113174   -0.000000
      2          6           0        0.091060    0.121452   -0.000001
      3          8           0        0.636762    1.195764    0.000000
      4          8           0        0.780758   -1.032796    0.000000
      5          1           0       -1.915473    0.847910   -0.000007
      6          1           0       -1.672498   -0.701924    0.884395
      7          1           0       -1.672497   -0.701938   -0.884387
      8          1           0        1.725123   -0.797462    0.000001
 ---------------------------------------------------------------------
 Rotational constants (GHZ):          11.4514912           9.4772379           5.3590044
 Standard basis: def2SVP (5D, 7F)
 There are    80 symmetry adapted cartesian basis functions of A   symmetry.
 There are    76 symmetry adapted basis functions of A   symmetry.
    76 basis functions,   128 primitive gaussians,    80 cartesian basis functions
    16 alpha electrons       16 beta electrons
       nuclear repulsion energy       121.3416186291 Hartrees.
 NAtoms=    8 NActive=    8 NUniq=    8 SFac= 1.00D+00 NAtFMM=   60 NAOKFM=F Big=F
 Integral buffers will be    131072 words long.
 Raffenetti 2 integral format.
 Two-electron integral symmetry is turned on.
 One-electron integrals computed using PRISM.
   1 Symmetry operations used in ECPInt.
 ECPInt:  NShTT=     666 NPrTT=    2410 LenC2=     666 LenP2D=    2114.
 LDataN:  DoStor=T MaxTD1= 4 Len=   56
 NBasis=    76 RedAO= T EigKep=  3.50D-03  NBF=    76
 NBsUse=    76 1.00D-06 EigRej= -1.00D+00 NBFU=    76
 Initial guess from the checkpoint file:  "pka_scale_frag3_pka_HA_opt.chk"
 B after Tr=    -0.000000   -0.000000    0.000000
         Rot=    1.000000    0.000000    0.000000   -0.000000 Ang=   0.00 deg.
 Keep R1 ints in memory in canonical form, NReq=62306637.
 Requested convergence on RMS density matrix=1.00D-08 within 128 cycles.
 Requested convergence on MAX density matrix=1.00D-06.
 Requested convergence on             energy=1.00D-06.
 No special actions if energy rises.
 SCF Done:  E(RMN15) =  -228.644532969     A.U. after    1 cycles
            NFock=  1  Conv=0.99D-09     -V/T= 2.0095
 DoSCS=F DFT=T ScalE2(SS,OS)=  1.000000  1.000000
 Range of M.O.s used for correlation:     1    76
 NBasis=    76 NAE=    16 NBE=    16 NFC=     0 NFV=     0
 NROrb=     76 NOA=    16 NOB=    16 NVA=    60 NVB=    60
   1 Symmetry operations used in ECPInt.
 ECPInt:  NShTT=     666 NPrTT=    2410 LenC2=     666 LenP2D=    2114.
 LDataN:  DoStor=T MaxTD1= 5 Len=  102
 Symmetrizing basis deriv contribution to polar:
 IMax=3 JMax=2 DiffMx= 0.00D+00
 G2DrvN: will do     9 centers at a time, making    1 passes.
 Calling FoFCou, ICntrl=  3107 FMM=F I1Cent=   0 AccDes= 0.00D+00.
 End of G2Drv F.D. properties file   721 does not exist.
 End of G2Drv F.D. properties file   722 does not exist.
 End of G2Drv F.D. properties file   788 does not exist.
          IDoAtm=11111111
          Differentiating once with respect to electric field.
                with respect to dipole field.
          Differentiating once with respect to nuclear coordinates.
 Keep R1 ints in memory in canonical form, NReq=62089502.
          There are    27 degrees of freedom in the 1st order CPHF.  IDoFFX=6 NUNeed=     3.
     24 vectors produced by pass  0 Test12= 3.56D-15 3.70D-09 XBig12= 1.69D+01 2.76D+00.
 AX will form    24 AO Fock derivatives at one time.
     24 vectors produced by pass  1 Test12= 3.56D-15 3.70D-09 XBig12= 2.44D+00 3.41D-01.
     24 vectors produced by pass  2 Test12= 3.56D-15 3.70D-09 XBig12= 3.59D-02 5.50D-02.
     24 vectors produced by pass  3 Test12= 3.56D-15 3.70D-09 XBig12= 2.60D-04 4.84D-03.
     24 vectors produced by pass  4 Test12= 3.56D-15 3.70D-09 XBig12= 1.20D-06 1.93D-04.
     23 vectors produced by pass  5 Test12= 3.56D-15 3.70D-09 XBig12= 2.79D-09 1.01D-05.
     12 vectors produced by pass  6 Test12= 3.56D-15 3.70D-09 XBig12= 4.06D-12 3.18D-07.
      3 vectors produced by pass  7 Test12= 3.56D-15 3.70D-09 XBig12= 6.23D-15 1.53D-08.
 InvSVY:  IOpt=1 It=  1 EMax= 2.66D-15
 Solved reduced A of dimension   158 with    27 vectors.
 Isotropic polarizability for W=    0.000000       26.53 Bohr**3.
 End of Minotr F.D. properties file   721 does not exist.
 End of Minotr F.D. properties file   722 does not exist.
 End of Minotr F.D. properties file   788 does not exist.

 **********************************************************************

            Population analysis using the SCF Density.

 **********************************************************************

 Orbital symmetries:
       Occupied  (A) (A) (A) (A) (A) (A) (A) (A) (A) (A) (A) (A)
                 (A) (A) (A) (A)
       Virtual   (A) (A) (A) (A) (A) (A) (A) (A) (A) (A) (A) (A)
                 (A) (A) (A) (A) (A) (A) (A) (A) (A) (A) (A) (A)
                 (A) (A) (A) (A) (A) (A) (A) (A) (A) (A) (A) (A)
                 (A) (A) (A) (A) (A) (A) (A) (A) (A) (A) (A) (A)
                 (A) (A) (A) (A) (A) (A) (A) (A) (A) (A) (A) (A)
 The electronic state is 1-A.
 Alpha  occ. eigenvalues --  -18.85831 -18.80176 -10.18545 -10.06439  -1.13767
 Alpha  occ. eigenvalues --   -1.03914  -0.79480  -0.65023  -0.52872  -0.52281
 Alpha  occ. eigenvalues --   -0.51972  -0.44988  -0.43491  -0.43298  -0.36430
 Alpha  occ. eigenvalues --   -0.32276
 Alpha virt. eigenvalues --    0.04424   0.10452   0.13016   0.17090   0.18161
 Alpha virt. eigenvalues --    0.25076   0.29748   0.34931   0.46945   0.48578
 Alpha virt. eigenvalues --    0.53004   0.55581   0.55583   0.62086   0.65695
 Alpha virt. eigenvalues --    0.69250   0.69475   0.70227   0.72061   0.84423
 Alpha virt. eigenvalues --    0.92829   0.98674   1.00726   1.06130   1.15343
 Alpha virt. eigenvalues --    1.23278   1.23607   1.31024   1.40577   1.44424
 Alpha virt. eigenvalues --    1.52973   1.56393   1.61581   1.64170   1.68268
 Alpha virt. eigenvalues --    1.73167   1.77687   1.79524   1.92167   1.95743
 Alpha virt. eigenvalues --    2.03579   2.06022   2.17081   2.30067   2.33883
 Alpha virt. eigenvalues --    2.40406   2.48742   2.64055   2.67055   2.72149
 Alpha virt. eigenvalues --    2.81331   2.82325   2.88604   2.94163   3.07936
 Alpha virt. eigenvalues --    3.17723   3.19211   3.47539   3.58887   3.71287
          Condensed to atoms (all electrons):
               1          2          3          4          5          6
     1  C    4.775966   0.339639  -0.092175  -0.122792   0.358833   0.355871
     2  C    0.339639   4.517324   0.727317   0.372270  -0.000721   0.002262
     3  O   -0.092175   0.727317   7.645793  -0.084838   0.006888   0.001663
     4  O   -0.122792   0.372270  -0.084838   7.706801   0.005009   0.004355
     5  H    0.358833  -0.000721   0.006888   0.005009   0.607741  -0.012041
     6  H    0.355871   0.002262   0.001663   0.004355  -0.012041   0.606026
     7  H    0.355871   0.002262   0.001663   0.004355  -0.012041  -0.011156
     8  H    0.014515  -0.008209   0.007212   0.309808  -0.000622  -0.000495
               7          8
     1  C    0.355871   0.014515
     2  C    0.002262  -0.008209
     3  O    0.001663   0.007212
     4  O    0.004355   0.309808
     5  H   -0.012041  -0.000622
     6  H   -0.011156  -0.000495
     7  H    0.606027  -0.000495
     8  H   -0.000495   0.485904
 Mulliken charges:
               1
     1  C    0.014272
     2  C    0.047856
     3  O   -0.213523
     4  O   -0.194968
     5  H    0.046953
     6  H    0.053514
     7  H    0.053514
     8  H    0.192381
 Sum of Mulliken charges =  -0.00000
 Mulliken charges with hydrogens summed into heavy atoms:
               1
     1  C    0.168254
     2  C    0.047856
     3  O   -0.213523
     4  O   -0.002587
 APT charges:
               1
     1  C   -0.115914
     2  C    1.169973
     3  O   -0.734551
     4  O   -0.735627
     5  H    0.034347
     6  H    0.039259
     7  H    0.039259
     8  H    0.303253
 Sum of APT charges =  -0.00000
 APT charges with hydrogens summed into heavy atoms:
               1
     1  C   -0.003048
     2  C    1.169973
     3  O   -0.734551
     4  O   -0.432374
 Electronic spatial extent (au):  <R**2>=            251.8646
 Charge=             -0.0000 electrons
 Dipole moment (field-independent basis, Debye):
    X=             -0.5321    Y=             -1.5563    Z=              0.0000  Tot=              1.6447
 Quadrupole moment (field-independent basis, Debye-Ang):
   XX=            -18.8246   YY=            -27.8848   ZZ=            -22.7150
   XY=             -2.1759   XZ=             -0.0000   YZ=             -0.0000
 Traceless Quadrupole moment (field-independent basis, Debye-Ang):
   XX=              4.3169   YY=             -4.7434   ZZ=              0.4265
   XY=             -2.1759   XZ=             -0.0000   YZ=             -0.0000
 Octapole moment (field-independent basis, Debye-Ang**2):
  XXX=             13.1949  YYY=             -1.9196  ZZZ=              0.0000  XYY=             -1.0766
  XXY=             -4.5408  XXZ=              0.0000  XZZ=              1.3925  YZZ=             -0.5248
  YYZ=             -0.0000  XYZ=             -0.0000
 Hexadecapole moment (field-independent basis, Debye-Ang**3):
 XXXX=           -144.5839 YYYY=           -119.1251 ZZZZ=            -25.5993 XXXY=            -11.0405
 XXXZ=              0.0000 YYYX=             -3.7954 YYYZ=              0.0000 ZZZX=             -0.0000
 ZZZY=             -0.0000 XXYY=            -42.4194 XXZZ=            -30.2709 YYZZ=            -22.5523
 XXYZ=             -0.0000 YYXZ=              0.0000 ZZXY=              0.9591
 N-N= 1.213416186291D+02 E-N=-7.787970396224D+02  KE= 2.264942782921D+02
  Exact polarizability:  30.754   0.914  29.354   0.000  -0.000  19.483
 Approx polarizability:  32.907   3.239  40.440  -0.000   0.000  23.166
   1 Symmetry operations used in ECPInt.
[...]
     8   1    -0.00   0.00   0.00     0.00   0.00   0.00     0.98   0.21   0.00

 -------------------
 - Thermochemistry -
 -------------------
 Temperature   298.150 Kelvin.  Pressure   1.00000 Atm.
 Atom     1 has atomic number  6 and mass  12.00000
 Atom     2 has atomic number  6 and mass  12.00000
 Atom     3 has atomic number  8 and mass  15.99491
 Atom     4 has atomic number  8 and mass  15.99491
 Atom     5 has atomic number  1 and mass   1.00783
 Atom     6 has atomic number  1 and mass   1.00783
 Atom     7 has atomic number  1 and mass   1.00783
 Atom     8 has atomic number  1 and mass   1.00783
 Molecular mass:    60.02113 amu.
 Principal axes and moments of inertia in atomic units:
                           1         2         3
     Eigenvalues --   157.59879 190.42903 336.76800
           X            0.99808  -0.06199  -0.00000
           Y            0.06199   0.99808  -0.00000
           Z            0.00000   0.00000   1.00000
 This molecule is an asymmetric top.
 Rotational symmetry number  1.
 Rotational temperatures (Kelvin)      0.54958     0.45484     0.25719
 Rotational constants (GHZ):          11.45149     9.47724     5.35900
 Zero-point vibrational energy     163287.9 (Joules/Mol)
                                   39.02674 (Kcal/Mol)
 Warning -- explicit consideration of   4 degrees of freedom as
           vibrations may cause significant error
 Vibrational temperatures:    121.32   592.12   773.90   847.62   975.05
          (Kelvin)           1282.36  1414.72  1500.76  1736.87  1903.54
                             2033.74  2053.62  2063.44  2759.69  4461.65
                             4595.15  4664.77  5497.72
 
 Zero-point correction=                           0.062193 (Hartree/Particle)
 Thermal correction to Energy=                    0.066748
 Thermal correction to Enthalpy=                  0.067692
 Thermal correction to Gibbs Free Energy=         0.035125
 Sum of electronic and zero-point Energies=           -228.582340
 Sum of electronic and thermal Energies=              -228.577785
 Sum of electronic and thermal Enthalpies=            -228.576841
 Sum of electronic and thermal Free Energies=         -228.609408
 
                     E (Thermal)             CV                S
                      KCal/Mol        Cal/Mol-Kelvin    Cal/Mol-Kelvin
 Total                   41.885             14.346             68.545
 Electronic               0.000              0.000              0.000
 Translational            0.889              2.981             38.196
 Rotational               0.889              2.981             23.828
 Vibrational             40.108              8.385              6.520
 Vibration     1          0.601              1.960              3.788
 Vibration     2          0.776              1.445              0.921
 Vibration     3          0.893              1.166              0.570
 Vibration     4          0.946              1.055              0.469
                       Q            Log10(Q)             Ln(Q)
 Total Bot       0.697854D-16        -16.156235        -37.201107
 Total V=0       0.282208D+13         12.450569         28.668494
 Vib (Bot)       0.106096D-27        -27.974300        -64.413205
 Vib (Bot)    1  0.244069D+01          0.387512          0.892280
 Vib (Bot)    2  0.429401D+00         -0.367137         -0.845364
 Vib (Bot)    3  0.295137D+00         -0.529976         -1.220315
 Vib (Bot)    4  0.256291D+00         -0.591266         -1.361441
 Vib (V=0)       0.429047D+01          0.632505          1.456396
 Vib (V=0)    1  0.299138D+01          0.475871          1.095734
 Vib (V=0)    2  0.115908D+01          0.064113          0.147626
 Vib (V=0)    3  0.108061D+01          0.033668          0.077524
 Vib (V=0)    4  0.106186D+01          0.026067          0.060021
 Electronic      0.100000D+01          0.000000          0.000000
 Translational   0.182772D+08          7.261910         16.721166
 Rotational      0.359877D+05          4.556154         10.490932
 ***** Axes restored to original set *****
 -------------------------------------------------------------------
 Center     Atomic                   Forces (Hartrees/Bohr)
 Number     Number              X              Y              Z
 -------------------------------------------------------------------
      1        6           0.000102039    0.000031753    0.000017502
      2        6          -0.000068399   -0.000133956    0.000022549
      3        8           0.000049156    0.000203028   -0.000048497
      4        8          -0.000075672   -0.000150424    0.000025386
      5        1           0.000000585   -0.000009773    0.000003112
      6        1           0.000025722    0.000000288    0.000026181
      7        1           0.000034595   -0.000009831   -0.000007236
      8        1          -0.000068026    0.000068915   -0.000038997
 -------------------------------------------------------------------
 Cartesian Forces:  Max     0.000203028 RMS     0.000071746
 FormGI is forming the generalized inverse of G from B-inverse, IUseBI=4.

 GradGradGradGradGradGradGradGradGradGradGradGradGradGradGradGradGradGrad
 Berny optimization.
 Internal  Forces:  Max     0.000208936 RMS     0.000075539
 Search for a local minimum.
 Step number   1 out of a maximum of    2
 All quantities printed in internal units (Hartrees-Bohrs-Radians)
 Second derivative matrix not updated -- analytic derivatives used.
 ITU=  0
     Eigenvalues ---    0.00047   0.02136   0.04538   0.05122   0.05319
     Eigenvalues ---    0.11745   0.11966   0.12971   0.14093   0.21166
     Eigenvalues ---    0.26827   0.35393   0.35423   0.35780   0.36572
     Eigenvalues ---    0.45500   0.53184   0.95967
 Angle between quadratic step and forces=  39.43 degrees.
 Linear search not attempted -- first point.
 Iteration  1 RMS(Cart)=  0.00053957 RMS(Int)=  0.00000012
 Iteration  2 RMS(Cart)=  0.00000013 RMS(Int)=  0.00000005
 Variable       Old X    -DE/DX   Delta X   Delta X   Delta X     New X
                                 (Linear)    (Quad)   (Total)
    R1        2.83717  -0.00017   0.00000  -0.00049  -0.00049   2.83669
    R2        2.06824  -0.00001   0.00000  -0.00004  -0.00004   2.06820
    R3        2.07658   0.00001   0.00000   0.00003   0.00003   2.07661
    R4        2.07658   0.00001   0.00000   0.00003   0.00003   2.07661
    R5        2.27705   0.00021   0.00000   0.00021   0.00021   2.27726
    R6        2.54094  -0.00001   0.00000   0.00007   0.00007   2.54101
    R7        1.83917  -0.00005   0.00000  -0.00003  -0.00003   1.83914
    A1        1.91273   0.00002   0.00000   0.00043   0.00043   1.91316
    A2        1.91343  -0.00005   0.00000  -0.00043  -0.00043   1.91301
    A3        1.91344  -0.00005   0.00000  -0.00043  -0.00043   1.91300
    A4        1.92656   0.00002   0.00000   0.00016   0.00016   1.92671
    A5        1.92656   0.00002   0.00000   0.00016   0.00016   1.92671
    A6        1.87071   0.00003   0.00000   0.00009   0.00009   1.87081
    A7        2.19771   0.00002   0.00000   0.00027   0.00027   2.19797
    A8        1.95248  -0.00014   0.00000  -0.00046  -0.00046   1.95202
    A9        2.13300   0.00012   0.00000   0.00019   0.00019   2.13319
   A10        1.86518  -0.00017   0.00000  -0.00096  -0.00096   1.86422
    D1        0.00001  -0.00000   0.00000  -0.00001  -0.00001  -0.00000
    D2       -3.14159   0.00000   0.00000  -0.00001  -0.00001   3.14159
    D3       -2.11703  -0.00001   0.00000  -0.00020  -0.00020  -2.11724
    D4        1.02456  -0.00001   0.00000  -0.00020  -0.00020   1.02435
    D5        2.11705   0.00001   0.00000   0.00019   0.00019   2.11724
    D6       -1.02454   0.00001   0.00000   0.00019   0.00019  -1.02435
    D7       -3.14159  -0.00000   0.00000  -0.00000  -0.00000   3.14159
    D8       -0.00000   0.00000   0.00000   0.00000   0.00000  -0.00000
         Item               Value     Threshold  Converged?
 Maximum Force            0.000209     0.000450     YES
 RMS     Force            0.000076     0.000300     YES
 Maximum Displacement     0.001360     0.001800     YES
 RMS     Displacement     0.000540     0.001200     YES
 Predicted change in Energy=-2.208812D-07
 Optimization completed.
    -- Stationary point found.
                           ----------------------------
                           !   Optimized Parameters   !
                           ! (Angstroms and Degrees)  !
 --------------------------                            --------------------------
 ! Name  Definition              Value          Derivative Info.                !
 --------------------------------------------------------------------------------
 ! R1    R(1,2)                  1.5014         -DE/DX =   -0.0002              !
 ! R2    R(1,5)                  1.0945         -DE/DX =    0.0                 !
 ! R3    R(1,6)                  1.0989         -DE/DX =    0.0                 !
 ! R4    R(1,7)                  1.0989         -DE/DX =    0.0                 !
 ! R5    R(2,3)                  1.205          -DE/DX =    0.0002              !
 ! R6    R(2,4)                  1.3446         -DE/DX =    0.0                 !
 ! R7    R(4,8)                  0.9732         -DE/DX =    0.0                 !
 ! A1    A(2,1,5)              109.5914         -DE/DX =    0.0                 !
 ! A2    A(2,1,6)              109.6317         -DE/DX =    0.0                 !
 ! A3    A(2,1,7)              109.6318         -DE/DX =    0.0                 !
 ! A4    A(5,1,6)              110.3837         -DE/DX =    0.0                 !
 ! A5    A(5,1,7)              110.3837         -DE/DX =    0.0                 !
 ! A6    A(6,1,7)              107.184          -DE/DX =    0.0                 !
 ! A7    A(1,2,3)              125.9192         -DE/DX =    0.0                 !
 ! A8    A(1,2,4)              111.8689         -DE/DX =   -0.0001              !
 ! A9    A(3,2,4)              122.2119         -DE/DX =    0.0001              !
 ! A10   A(2,4,8)              106.8667         -DE/DX =   -0.0002              !
 ! D1    D(5,1,2,3)              0.0004         -DE/DX =    0.0                 !
 ! D2    D(5,1,2,4)            180.0003         -DE/DX =    0.0                 !
 ! D3    D(6,1,2,3)           -121.2971         -DE/DX =    0.0                 !
 ! D4    D(6,1,2,4)             58.7028         -DE/DX =    0.0                 !
 ! D5    D(7,1,2,3)            121.2981         -DE/DX =    0.0                 !
 ! D6    D(7,1,2,4)            -58.702          -DE/DX =    0.0                 !
 ! D7    D(1,2,4,8)            180.0001         -DE/DX =    0.0                 !
 ! D8    D(3,2,4,8)              0.0            -DE/DX =    0.0                 !
 --------------------------------------------------------------------------------
 GradGradGradGradGradGradGradGradGradGradGradGradGradGradGradGradGradGrad


 ----------------------------------------------------------------------

 Electric dipole moment (input orientation):
 (Debye = 10**-18 statcoulomb cm , SI units = C m)
                  (au)            (Debye)         (10**-30 SI)
   Tot        0.647082D+00      0.164472D+01      0.548619D+01
   x         -0.197819D+00     -0.502807D+00     -0.167718D+01
   y         -0.602270D+00     -0.153082D+01     -0.510626D+01
   z          0.129820D+00      0.329968D+00      0.110066D+01

 Dipole polarizability, Alpha (input orientation).
 (esu units = cm**3 , SI units = C**2 m**2 J**-1)
 Alpha(0;0):
               (au)            (10**-24 esu)      (10**-40 SI)
   iso        0.265305D+02      0.393142D+01      0.437429D+01
   aniso      0.107571D+02      0.159404D+01      0.177361D+01
   xx         0.300526D+02      0.445334D+01      0.495501D+01
   yx         0.163961D+01      0.242965D+00      0.270335D+00
   yy         0.287225D+02      0.425623D+01      0.473570D+01
   zx         0.231743D+01      0.343407D+00      0.382092D+00
   zy        -0.236290D+01     -0.350146D+00     -0.389590D+00
   zz         0.208165D+02      0.308469D+01      0.343218D+01

 ----------------------------------------------------------------------

 Dipole orientation:
     6         -1.74574794         -0.01885228          0.52776437
     6          0.76231631          0.00823117         -0.79829693
     8          1.08134069          0.01168083         -3.05288751
     8          2.70106800          0.02916479          0.84401496
     1         -3.26945613         -0.03531607         -0.87067977
     1         -1.90568670          1.65078129          1.75207744
     1         -1.86958677         -1.69153741          1.75209559
     1          4.24575255          0.04584766         -0.15408815

 Electric dipole moment (dipole orientation):
 (Debye = 10**-18 statcoulomb cm , SI units = C m)
                  (au)            (Debye)         (10**-30 SI)
   Tot        0.647082D+00      0.164472D+01      0.548619D+01
   x          0.000000D+00      0.000000D+00      0.000000D+00
   y          0.000000D+00      0.000000D+00      0.000000D+00
   z          0.647082D+00      0.164472D+01      0.548619D+01

 Dipole polarizability, Alpha (dipole orientation).
 (esu units = cm**3 , SI units = C**2 m**2 J**-1)
 Alpha(0;0):
               (au)            (10**-24 esu)      (10**-40 SI)
   iso        0.265305D+02      0.393142D+01      0.437429D+01
   aniso      0.107571D+02      0.159404D+01      0.177361D+01
   xx         0.300471D+02      0.445252D+01      0.495409D+01
   yx         0.114070D+00      0.169034D-01      0.188076D-01
   yy         0.194847D+02      0.288734D+01      0.321259D+01
   zx        -0.115152D+01     -0.170637D+00     -0.189860D+00
   zy        -0.124494D-01     -0.184481D-02     -0.205262D-02
   zz         0.300598D+02      0.445441D+01      0.495619D+01

 ----------------------------------------------------------------------
 1\1\GINC-CHPC-CN078\Freq\RMN15\def2SVP\C2H4O2\S1155246976\10-Jun-2026\
 0\\#N Geom=AllCheck Guess=TCheck SCRF=Check GenChk RMN15/def2SVP Freq\
 \Gaussian pKa calculation job\\0,1\C,-0.9349137039,-0.0437818404,-0.23
 56731056\C,0.5001110528,0.2987956076,0.0426262894\O,1.0200934945,1.369
 7495535,-0.1434236564\O,1.1778830625,-0.7501496167,0.5409342974\H,-1.4
 501628811,0.8336586286,-0.6387457356\H,-1.4204151146,-0.3807026574,0.6
 907779135\H,-0.9836377528,-0.8777540339,-0.9495743054\H,2.0910418441,-
 0.449815643,0.6930782974\\Version=ES64L-G16RevB.01\State=1-A\HF=-228.6
 44533\RMSD=9.920e-10\RMSF=7.175e-05\ZeroPoint=0.0621931\Thermal=0.0667
 483\Dipole=-0.1978193,-0.6022698,0.1298196\DipoleDeriv=-0.298589,-0.09
 72549,-0.0512704,-0.1205773,-0.0452836,-0.0169789,-0.0442021,-0.010768
 3,-0.0038682,1.3898996,0.0233456,0.2865089,-0.0643583,1.6281154,-0.423
 4074,0.313084,-0.4000545,0.4919033,-0.7632834,-0.3350887,-0.0082971,-0
 .1071979,-1.0333414,0.1782708,-0.0773498,0.1175898,-0.4070286,-0.75997
 88,0.4488571,-0.2349385,0.3469826,-0.9191886,0.253214,-0.2040701,0.280
 3407,-0.5277135,0.0362383,0.0135243,-0.0181076,0.0566935,-0.0041162,0.
 0432665,-0.0311887,0.0317715,0.0709201,0.0414057,-0.0160075,0.0115786,
 -0.0137221,0.0918459,0.0471061,0.0472996,0.0410129,-0.0154744,0.056102
 2,0.0174917,0.0096678,0.0033095,0.0153099,-0.0774925,-0.0224491,-0.068
 2317,0.046365,0.2982054,-0.0548676,0.0048583,-0.10113,0.2666586,-0.003
 9786,0.0188761,0.0083396,0.3448964\Polar=30.0526126,1.6396093,28.72246
 95,2.317427,-2.362901,20.8165067\Quadrupole=3.0583598,-3.4268959,0.368
 5361,-1.2446468,1.1070528,0.8030386\PG=C01 [X(C2H4O2)]\NImag=0\\0.5228
 9122,-0.03430147,0.61536021,0.00184809,-0.02742712,0.56378881,-0.22052
 915,-0.02255880,-0.02712594,0.72567682,-0.02203180,-0.08647740,-0.0078
 3797,0.21341036,0.95872414,-0.02728557,-0.00797831,-0.09783187,0.06586
 614,-0.16232985,0.30218203,-0.01623917,-0.04443834,0.00190896,-0.26537
 692,-0.27858032,0.03501833,0.24483368,-0.02060577,-0.01410508,0.007017
 17,-0.28516090,-0.65534863,0.09844193,0.31446291,0.76533140,-0.0053124
 2,0.00067135,0.02554285,0.03701225,0.10019409,-0.10038054,-0.03836215,
 -0.13875748,0.06288758,-0.03217976,0.03116482,-0.02122188,-0.18866836,
 0.09373876,-0.06031607,0.03965584,0.00235164,0.00156203,0.62991385,0.0
 0239151,0.00616806,0.00242092,0.06438068,-0.22677120,0.06500353,0.0191
 9044,-0.09647966,0.04377140,0.03609136,0.40929166,-0.01250333,0.010082
 38,0.00567196,-0.05142038,0.07282077,-0.10457484,-0.00354025,0.0392877
 1,0.01826639,0.14585041,-0.10195747,0.11081940,-0.11027048,0.10855093,
 -0.04999315,-0.01065923,0.02978331,-0.01107966,0.00381412,-0.00135619,
 0.00162310,-0.00737123,-0.00200190,-0.00173744,0.11728692,0.11535827,-
 0.24110387,0.08982126,-0.00587231,0.00623391,-0.00434406,0.00057197,0.
 00063507,-0.00026379,-0.00203965,0.00051595,-0.00026551,-0.11993934,0.
 25049779,-0.05205586,0.08800865,-0.08657659,-0.00027544,0.00515001,-0.
 00457582,0.00103881,-0.00077723,-0.00022602,-0.00172599,-0.00025547,0.
 00104984,0.05609255,-0.09477559,0.08677132,-0.10100440,-0.03611967,0.1
 0842561,-0.00925381,-0.00897386,0.03164211,-0.00374480,-0.00199871,-0.
 00475779,0.00114197,0.00068856,-0.00284245,0.00753243,0.00314958,-0.01
 378078,0.10416495,-0.03664710,-0.06713132,0.07808516,-0.00397810,-0.00
 508415,0.00677688,-0.00213620,-0.00012003,-0.00210766,0.00147396,-0.00
 023134,0.00010132,-0.01280207,-0.00432919,0.01799728,0.04275516,0.0694
 4112,0.10711924,0.07721459,-0.24916484,-0.00370274,-0.00113688,0.00813
 095,-0.00096816,-0.00227360,-0.00141159,-0.00020972,-0.00013415,-0.000
 37462,0.00414710,-0.00010957,-0.00639314,-0.11534296,-0.08112023,0.263
 95809,-0.04374550,-0.00676410,-0.01170517,0.00448969,-0.02601961,-0.02
 337091,-0.00627073,-0.00026097,0.00330573,-0.00016862,0.00196748,0.002
 15327,0.00046926,0.00924656,0.01100665,0.00063713,0.01143572,0.0086732
 8,0.04435255,-0.00606439,-0.20949345,-0.14477788,-0.00037515,-0.007584
 44,-0.00288666,-0.00225911,0.00131317,-0.00002753,0.00126871,0.0002441
 2,0.00078845,-0.00329150,-0.01294345,-0.01574160,0.00075214,0.00768472
 ,0.00757709,0.01026773,0.22084179,-0.01045113,-0.14395318,-0.16406196,
 0.00268955,-0.00313151,-0.00311221,0.00016327,0.00070712,-0.00031893,-
 0.00050569,0.00100085,0.00046055,0.00171158,0.00995120,0.00928436,-0.0
 0273912,-0.01955867,-0.01483552,0.00916587,0.15482703,0.17237008,0.001
 07724,0.00446662,-0.00213652,-0.03567905,-0.00132684,-0.01047438,0.003
 32799,-0.00743201,0.00492924,-0.44232370,-0.12270812,-0.07595983,-0.00
 080179,-0.00047507,-0.00029993,0.00052654,-0.00010137,0.00028396,0.000
 23622,-0.00029844,-0.00003433,0.47363656,0.00190076,-0.00321714,0.0026
 9846,0.04015422,0.01630778,0.00731653,-0.00681135,-0.00122624,-0.00348
 038,-0.16404960,-0.09273759,-0.02085764,0.00105675,0.00049379,0.000393
 95,-0.00025320,-0.00022981,-0.00001724,0.00012719,-0.00006246,0.000157
 17,0.12787523,0.08067168,-0.00135903,0.00338165,0.00263163,-0.02304343
 ,-0.00372866,0.00016230,0.00474118,-0.00364563,-0.00435974,-0.06343308
 ,-0.00984962,-0.03131867,-0.00076409,-0.00001392,0.00066605,-0.0006046
 3,-0.00017407,0.00009067,0.00077128,0.00024110,0.00021364,0.08369179,0
 .01378916,0.03191413\\-0.00010204,-0.00003175,-0.00001750,0.00006840,0
 .00013396,-0.00002255,-0.00004916,-0.00020303,0.00004850,0.00007567,0.
 00015042,-0.00002539,-0.00000059,0.00000977,-0.00000311,-0.00002572,-0
 .00000029,-0.00002618,-0.00003460,0.00000983,0.00000724,0.00006803,-0.
 00006891,0.00003900\\\@


 TO BEHOLD HARMS OF OUR OWN HANDS DOING,
 WHERE NONE BESIDE US WROUGHT,
 CAUSES SHARP RUING...

                                         SOPHOCLES
 Job cpu time:       0 days  0 hours  3 minutes 56.4 seconds.
 Elapsed time:       0 days  0 hours  0 minutes  3.9 seconds.
 File lengths (MBytes):  RWF=     10 Int=      0 D2E=      0 Chk=      2 Scr=      1
 Normal termination of Gaussian 16 at Wed Jun 10 15:27:04 2026.
s  0 hours  0 minutes  4.0 seconds.
 File lengths (MBytes):  RWF=     10 Int=      0 D2E=      0 Chk=      2 Scr=      1
 Normal termination of Gaussian 16 at Wed Jun 10 15:27:03 2026.
