
                                 *****************
                                 * O   R   C   A *
                                 *****************

                                            #,                                       
                                            ###                                      
                                            ####                                     
                                            #####                                    
                                            ######                                   
                                           ########,                                 
                                     ,,################,,,,,                         
                               ,,#################################,,                 
                          ,,##########################################,,             
                       ,#########################################, ''#####,          
                    ,#############################################,,   '####,        
                  ,##################################################,,,,####,       
                ,###########''''           ''''###############################       
              ,#####''   ,,,,##########,,,,          '''####'''          '####       
            ,##' ,,,,###########################,,,                        '##       
           ' ,,###''''                  '''############,,,                           
         ,,##''                                '''############,,,,        ,,,,,,###''
      ,#''                                            '''#######################'''  
     '                                                          ''''####''''         
             ,#######,   #######,   ,#######,      ##                                
            ,#'     '#,  ##    ##  ,#'     '#,    #''#        ,####,    ,#,          
            ##       ##  ##   ,#'  ##            #'  '#       #'       ,# #          
            ##       ##  #######   ##           ,######,      #####,      #          
            '#,     ,#'  ##    ##  '#,     ,#' ,#      #,     #,   #      #          
             '#######'   ##     ##  '#######'  #'      '#     '####' #    #          



                #########################################################
                #                        -***-                          #
                #          Department of theory and spectroscopy        #
                #                                                       #
                #                      Frank Neese                      #
                #                                                       #
                #     Directorship, Architecture, Infrastructure        #
                #                    SHARK, DRIVERS                     #
                #        Core code/Algorithms in most modules           #
                #                                                       #
                #        Max Planck Institute fuer Kohlenforschung      #
                #                Kaiser Wilhelm Platz 1                 #
                #                 D-45470 Muelheim/Ruhr                 #
                #                      Germany                          #
                #                                                       #
                #                  All rights reserved                  #
                #                        -***-                          #
                #########################################################


                         Program Version 6.1.0  -  RELEASE   -
                                (GIT: $679e74b$)
                          ($2025-06-10 18:02:51 +0200$)


 With contributions from (in alphabetic order):
[Max-Planck-Institut fuer Kohlenforschung]                               
  Daniel Aravena         : Magnetic Suceptibility                        
  Michael Atanasov       : Ab Initio Ligand Field Theory (pilot matlab implementation)
  Alexander A. Auer      : GIAO ZORA, VPT2 properties, NMR spectrum      
  Ute Becker             : All parallelization in ORCA, NUMFREQ, NUMCALC 
  Giovanni Bistoni       : ED, misc. LED, open-shell LED, HFLD           
  Dmytro Bykov           : pre 5.0 version of the SCF Hessian            
  Marcos Casanova-Páez   : Triplet and SCS-CIS(D). UHF-(DLPNO)-IP/EA/STEOM-CCSD. UHF-CVS-IP/STEOM-CCSD   
  Vijay G. Chilkuri      : MRCI spin determinant printing, contributions to CSF-ICE 
  Pauline Colinet        : FMM embedding                                 
  Dipayan Datta          : RHF DLPNO-CCSD density                        
  Achintya Kumar Dutta   : EOM-CC, STEOM-CC                              
  Nicolas Foglia         : Exact transition moments, OPA infrastructure, MCD improvements    
  Dmitry Ganyushin       : Spin-Orbit,Spin-Spin,Magnetic field MRCI      
  Miquel Garcia-Rates    : C-PCM and meta-GGA Hessian, CCSD/C-PCM, Gaussian charge scheme 
  Tiago L. C. Gouveia    : GS-ROHF, GS-ROCIS                             
  Yang Guo               : DLPNO-NEVPT2, F12-NEVPT2, CIM, IAO-localization        
  Andreas Hansen         : Spin unrestricted coupled pair/coupled cluster methods 
  Ingolf Harden          : AUTO-CI MPn and infrastructure                
  Benjamin Helmich-Paris : MC-RPA, TRAH-(SCF,CASSCF), AVAS, COSX integrals, SCF dyn. polar., MC-PDFT, srDFT 
  Lee Huntington         : MR-EOM, pCC                                   
  Robert Izsak           : Overlap fitted RIJCOSX, COSX-SCS-MP3, EOM     
  Riya Kayal             : Wick's Theorem for AUTO-CI, AUTO-CI UHF-CCSDT 
  Emily Kempfer          : AUTO-CI RHF CISDT and CCSDT, approximate NEVPT4
  Christian Kollmar      : KDIIS, OOCD, Brueckner-CCSD(T), CCSD density, CASPT2, CASPT2-K, improved NEVPT2 
  Axel Koslowski         : Symmetry handling                             
  Simone Kossmann        : meta-GGA functionals, TD-DFT gradient, OOMP2, (MP2 Hessian; deprecated post 5.0) 
  Lucas Lang             : DCDCAS, Hyperfine gauge corrections, ICE-SOC+SSC
  Marvin Lechner         : AUTO-CI (C++ implementation), FIC-MRCC        
  Spencer Leger          : CASSCF response                               
  Dagmar Lenk            : GEPOL surface, SMD, ORCA-2-JSON               
  Dimitrios Liakos       : Extrapolation schemes; Compound Job, Property file
  Dimitrios Manganas     : Further ROCIS development; embedding schemes. LFT, Crystal Embedding 
  Dimitrios Pantazis     : SARC Basis sets                               
  Anastasios Papadopoulos: AUTO-CI, single reference methods and gradients 
  Taras Petrenko         : pre 6.0 DFT Hessian and TD-DFT gradient,  ECA, NRVS 
  Petra Pikulova         : Analytic Raman intensities                    
  Peter Pinski           : DLPNO-MP2, DLPNO-MP2 Gradient                 
  Shashank Vittal Rao    : ES-AILFT, MagRelax                            
  Christoph Reimann      : Effective Core Potentials                     
  Marius Retegan         : Local ZFS, SOC                                
  Christoph Riplinger    : Optimizer, TS searches, QM/MM, DLPNO-CCSD(T), (RO)-DLPNO pert. Triples 
  Michael Roemelt        : Original ROCIS implementation, recursive CI coupling coefficients
  Masaaki Saitow         : Open-shell DLPNO-CCSD energy and density      
  Barbara Sandhoefer     : DKH picture change effects                    
  Yorick L. A. Schmerwitz: GMF and freeze-and-release deltaSCF, NEB S-IDPP initial path                    
  Kantharuban Sivalingam : CASSCF convergence/infrastructure, NEVPT2, NEVPT3, NEVPT4(SD), FIC-MRCI and CEPA variants
  Bernardo de Souza      : ESD, SOC TD-DFT                               
  Georgi L. Stoychev     : AutoAux, RI-MP2 NMR, DLPNO-MP2 response, X2C  
  Van Anh Tran           : RI-MP2 g-tensors                              
  Willem Van den Heuvel  : Paramagnetic NMR                              
  Zikuan Wang            : NOTCH, Electric field optimization            
  Frank Wennmohs         : Technical directorship and infrastructure     
  Hang Xu                : AUTO-CI-Response properties                   
                                                                         
[FACCTs GmbH]                                                            
  Markus Bursch, Nicolas Foglia, Miquel Garcia-Rates, Ingolf Harden, Hagen Neugebauer, Anastasios Papadopoulos, 
  Christoph Riplinger, Bernardo de Souza, Georgi L. Stoychev                                                    
                                                                 
  APM, various basis sets, CI-OPT, improved COSX, DLPNO-Multilevel,           
  DOCKER, DRACO, updates on ESD, Fragmentator, GOAT, IRC, LR-CPCM, L-BFGS, MBIS, meta-GGA TD-DFT gradient, ML-optimized integration grids, 
  MM, NACMEs, nearIR, NEB, NEB-TS, NL-DFT gradient (VV10), 2- and 3-layer-ONIOM, interface openCOSMO-RS, QMMM,   
  Crystal-QMMM, RESP, rigid body optimization, SF, symmetry and pop. for TD-DFT, various functionals, SOLVATOR                                   
                                                                         
[Other institutions]                                                     
  V. Asgeirsson          : NEB                                           
  Christoph Bannwarth    : sTDA-DFT, sTD-DFT, PBEh-3c, B97-3c, D3        
  Giovanni Bistoni       : ETS/NOCV, ADLD/ADEX, COVALED                  
  Martin Brehm           : Molecular dynamics                            
  Ronald Cardenas        : ETS/NOCV                                      
  Martina Colucci        : COVALED                                       
  Sebastian Ehlert       : rSCAN, r2SCAN, r2SCAN-3c, D4, dhf basis sets  
  Marvin Friede          : D4 for Fr, Ra, Ac-Lr                          
  Lars Goerigk           : TD-DFT with DH, B97 family of functionals     
  Stefan Grimme          : VdW corrections, initial TS optimization, DFT functionals, gCP, sTDA/sTD-DF 
  Waldemar Hujo          : DFT-NL                                        
  H. Jonsson             : NEB                                           
  Holger Kruse           : gCP                                           
  Marcel Mueller         : wB97X-3c, vDZP basis set                      
  Hagen Neugebauer       : wr2SCAN, Native XTB                           
  Gianluca Regni         : ADLD/ADEX                                     
  Tobias Risthaus        : pre 6.0 range-separated hybrid DFT and stability analysis
  Lukas Wittmann         : regularized MP2, r2SCAN double-hybrids, wr2SCAN        
                                                                         
We gratefully acknowledge several colleagues who have allowed us to      
interface, adapt or use parts of their codes:                            
  Ed Valeev, F. Pavosevic, A. Kumar             : LibInt (2-el integral package), F12 methods 
  Garnet Chan, S. Sharma, J. Yang, R. Olivares  : DMRG                   
  Ulf Ekstrom                                   : XCFun DFT Library      
  Mihaly Kallay                                 : mrcc  (arbitrary order and MRCC methods)
  Frank Weinhold                                : gennbo (NPA and NBO analysis)           
  Simon Mueller                                 : openCOSMO-RS                            
  Christopher J. Cramer and Donald G. Truhlar   : smd solvation model                     
  S Lehtola, MJT Oliveira, MAL Marques          : LibXC Library                           
  Liviu Ungur et al                             : ANISO software                          


 Your calculation uses the libint2 library for the computation of 2-el integrals
 For citations please refer to: http://libint.valeyev.net

 Your ORCA version has been built with support for libXC version: 7.0.0
 For citations please refer to: https://libxc.gitlab.io

 This ORCA versions uses:
   CBLAS   interface :  Fast vector & matrix operations
   LAPACKE interface :  Fast linear algebra routines
   SCALAPACK package :  Parallel linear algebra routines
   Shared memory     :  Shared parallel matrices
   BLAS/LAPACK       :  OpenBLAS 0.3.29  USE64BITINT DYNAMIC_ARCH NO_AFFINITY Cooperlake SINGLE_THREADED
        Core in use  :  Cooperlake
   Copyright (c) 2011-2014, The OpenBLAS Project


  ***********************************
  * Starting time: Wed Jun 10 15:41:50 2026
  * Host name:     chpc-cn081.rc.cuhk.edu.hk
  * Process ID:    181184
  * Working dir.:  /lustre/project/xlzhang/jingyi/chemsmart/test_pka/orca
  ***********************************

NOTE: MaxCore=2109 MB was set to SCF,MP2,MDCI,CIPSI,MRCI,RASCI and CIS
      => If you want to overwrite this, your respective input block should be placed after the MaxCore statement
XCFun DFT library Copyright 2009-2010 Ulf Ekstrom and contributors.
See http://admol.org/xcfun for more information.
This is free software; see the source code for copying conditions.
There is ABSOLUTELY NO WARRANTY; not even for MERCHANTABILITY or FITNESS FOR A PARTICULAR PURPOSE.
For details see the documentation.
Scientific users of this library should cite U. Ekstrom, L. Visscher, R. Bast, A. J. Thorvaldsen and K. Ruud;
J.Chem.Theor.Comp. 2010, DOI: 10.1021/ct100117s
XCFun Version 0.99 

Warning: RI is on but no J-basis has been assigned. Assigning Def2/J (nothing to worry about!)
================================================================================

----- Orbital basis set information -----
Your calculation utilizes the basis: def2-SVP
   F. Weigend and R. Ahlrichs, Phys. Chem. Chem. Phys. 7, 3297 (2005).

----- AuxJ basis set information -----
Your calculation utilizes the auxiliary basis: def2/J
   H-Rn: F. Weigend, Phys. Chem. Chem. Phys. 8, 1057 (2006).
   Fr-Lr: K. Eichkorn, F. Weigend, O. Treutler, R. Ahlrichs; Theor. Chem. Acc. 97, 119 (1997).

================================================================================
                                        WARNINGS
                       Please study these warnings very carefully!
================================================================================

WARNING: Functional chosen is sensitive to the integration grid.
         DEFGRID3 seems to be a minimum grid for robust results!

WARNING: Geometry Optimization
  ===> : Switching off AutoStart
         For restart on a previous wavefunction, please use MOREAD

================================================================================
                                       INPUT FILE
================================================================================
NAME = /lustre/project/xlzhang/jingyi/chemsmart/test_pka/orca/pka_scale_frag4_pka_HA_opt.inp
|  1> ! Opt Freq M062X def2-SVP defgrid2
|  2> # Number of processors
|  3> %pal nprocs 64 end
|  4> # Memory per core
|  5> %maxcore 2109
|  6> * xyz 0 1
|  7> C        0.0451175887    1.7416575938    0.2926757073
|  8> C       -1.1045235255    0.9572211804    0.1768883502
|  9> C       -0.9873733666   -0.4215840295   -0.0569798886
| 10> C        0.2805173674   -1.0161844901   -0.1751216645
| 11> C        1.4245506796   -0.2138369444   -0.0562395084
| 12> C        1.3113116935    1.1631854160    0.1772768677
| 13> O       -2.2823767602    1.6395419685    0.3085232534
| 14> N       -2.1781277584   -1.2673025095   -0.1824942771
| 15> O       -3.2844378329   -0.7153150165   -0.0739063033
| 16> O       -2.0128001256   -2.4763238167   -0.3883798990
| 17> N        2.7571818808   -0.8218331004   -0.1775503683
| 18> O        2.8130567461   -2.0414085474   -0.3838088495
| 19> O        3.7412114660   -0.0784814608   -0.0662547948
| 20> H       -0.0471638012    2.8114804089    0.4741594510
| 21> H        0.3763818988   -2.0861945799   -0.3566839433
| 22> H        2.1916820504    1.7973945887    0.2715882767
| 23> H       -3.0442082009    1.0279833389    0.2163075903
| 24> *
| 25> 
| 26>                          ****END OF INPUT****
================================================================================

                       *****************************
                       * Geometry Optimization Run *
                       *****************************

Geometry optimization settings:
Update method            Update   .... BFGS
Choice of coordinates    CoordSys .... (2022) Redundant Internals
Initial Hessian          InHess   .... Almloef's Model
Max. no of cycles        MaxIter  .... 51

Convergence Tolerances:
Energy Change            TolE     ....  5.0000e-06 Eh
Max. Gradient            TolMAXG  ....  3.0000e-04 Eh/bohr
RMS Gradient             TolRMSG  ....  1.0000e-04 Eh/bohr
Max. Displacement        TolMAXD  ....  4.0000e-03 bohr
RMS Displacement         TolRMSD  ....  2.0000e-03 bohr
Strict Convergence                .... False

------------------------------------------------------------------------------
                        ORCA OPTIMIZATION COORDINATE SETUP
------------------------------------------------------------------------------

The optimization will be done in redundant internal coordinates (2022)
Making redundant internal coordinates   ...  (2022 redundants) done
Evaluating the initial hessian          ...  (Almloef) done
Evaluating the coordinates              ...  done
Calculating the B-matrix                .... done
Calculating the G-matrix                .... done
The number of degrees of freedom        ....   77

    -----------------------------------------------------------------
                    Redundant Internal Coordinates


    -----------------------------------------------------------------
         Definition                    Initial Value    Approx d2E/dq
    -----------------------------------------------------------------
      1. B(C   1,C   0)                  1.3966         0.609886   
      2. B(C   2,C   1)                  1.4034         0.594792   
      3. B(C   3,C   2)                  1.4054         0.590504   
      4. B(C   4,C   3)                  1.4024         0.596988   
      5. B(C   5,C   4)                  1.4013         0.599468   
      6. B(C   5,C   0)                  1.3969         0.609266   
      7. B(O   6,C   1)                  1.3676         0.607677   
      8. B(N   7,C   2)                  1.4659         0.423416   
      9. B(O   8,N   7)                  1.2411         0.866014   
     10. B(O   9,N   7)                  1.2375         0.877577   
     11. B(N  10,C   4)                  1.4698         0.417423   
     12. B(O  11,N  10)                  1.2382         0.875529   
     13. B(O  12,N  10)                  1.2383         0.875213   
     14. B(H  13,C   0)                  1.0890         0.361394   
     15. B(H  14,C   3)                  1.0895         0.360722   
     16. B(H  15,C   5)                  1.0891         0.361275   
     17. B(H  16,O   8)                  1.7835         0.025238   
     18. B(H  16,O   6)                  0.9813         0.480871   
     19. A(C   1,C   0,H  13)          119.7254         0.352142   
     20. A(C   1,C   0,C   5)          120.4462         0.431428   
     21. A(C   5,C   0,H  13)          119.8283         0.352081   
     22. A(C   0,C   1,O   6)          114.8832         0.428409   
     23. A(C   0,C   1,C   2)          119.7980         0.429569   
     24. A(C   2,C   1,O   6)          125.3188         0.426490   
     25. A(C   3,C   2,N   7)          118.7865         0.399481   
     26. A(C   1,C   2,N   7)          120.8823         0.399990   
     27. A(C   1,C   2,C   3)          120.3312         0.427089   
     28. A(C   2,C   3,C   4)          119.1293         0.427371   
     29. A(C   4,C   3,H  14)          120.2800         0.350762   
     30. A(C   2,C   3,H  14)          120.5907         0.350115   
     31. A(C   5,C   4,N  10)          119.5729         0.399538   
     32. A(C   3,C   4,N  10)          119.7345         0.399247   
     33. A(C   3,C   4,C   5)          120.6926         0.428527   
     34. A(C   0,C   5,H  15)          118.9745         0.352062   
     35. A(C   4,C   5,H  15)          121.4229         0.351098   
     36. A(C   0,C   5,C   4)          119.6026         0.430095   
     37. A(C   1,O   6,H  16)          110.4064         0.363936   
     38. A(O   8,N   7,O   9)          124.6209         0.478410   
     39. A(C   2,N   7,O   9)          117.9930         0.422988   
     40. A(C   2,N   7,O   8)          117.3861         0.421987   
     41. A(O  11,N  10,O  12)          124.7798         0.479136   
     42. A(C   4,N  10,O  12)          117.6962         0.421709   
     43. A(C   4,N  10,O  11)          117.5240         0.421736   
     44. D(C   2,C   1,C   0,C   5)      0.0002         0.025689   
     45. D(O   6,C   1,C   0,H  13)      0.0001         0.025689   
     46. D(O   6,C   1,C   0,C   5)    180.0000         0.025689   
     47. D(C   2,C   1,C   0,H  13)   -179.9997         0.025689   
     48. D(C   3,C   2,C   1,O   6)    179.9999         0.024366   
     49. D(N   7,C   2,C   1,C   0)    179.9996         0.024366   
     50. D(C   3,C   2,C   1,C   0)     -0.0003         0.024366   
     51. D(N   7,C   2,C   1,O   6)     -0.0002         0.024366   
     52. D(H  14,C   3,C   2,N   7)      0.0002         0.023998   
     53. D(H  14,C   3,C   2,C   1)   -180.0000         0.023998   
     54. D(C   4,C   3,C   2,N   7)   -179.9996         0.023998   
     55. D(C   4,C   3,C   2,C   1)      0.0002         0.023998   
     56. D(C   5,C   4,C   3,H  14)   -179.9998         0.024556   
     57. D(N  10,C   4,C   3,C   2)    179.9997         0.024556   
     58. D(C   5,C   4,C   3,C   2)     -0.0000         0.024556   
     59. D(N  10,C   4,C   3,H  14)     -0.0001         0.024556   
     60. D(H  15,C   5,C   4,N  10)      0.0001         0.024771   
     61. D(C   0,C   5,C   4,N  10)   -179.9998         0.024771   
     62. D(C   0,C   5,C   4,C   3)     -0.0001         0.024771   
     63. D(H  15,C   5,C   0,H  13)     -0.0000         0.025634   
     64. D(H  15,C   5,C   0,C   1)   -179.9999         0.025634   
     65. D(H  15,C   5,C   4,C   3)    179.9999         0.024771   
     66. D(C   4,C   5,C   0,H  13)    179.9999         0.025634   
     67. D(C   4,C   5,C   0,C   1)      0.0000         0.025634   
     68. D(H  16,O   6,C   1,C   2)     -0.0025         0.027016   
     69. D(H  16,O   6,C   1,C   0)    179.9977         0.027016   
     70. D(O   9,N   7,C   2,C   3)      0.0037         0.014126   
     71. D(O   9,N   7,C   2,C   1)   -179.9962         0.014126   
     72. D(O   8,N   7,C   2,C   3)   -179.9958         0.014126   
     73. D(O   8,N   7,C   2,C   1)      0.0044         0.014126   
     74. D(O  11,N  10,C   4,C   3)      0.0040         0.013735   
     75. D(O  12,N  10,C   4,C   5)      0.0038         0.013735   
     76. D(O  12,N  10,C   4,C   3)   -179.9960         0.013735   
     77. D(O  11,N  10,C   4,C   5)   -179.9963         0.013735   
    -----------------------------------------------------------------

Number of atoms                         .... 17
Number of degrees of freedom            .... 77


         *************************************************************
         *                GEOMETRY OPTIMIZATION CYCLE   1            *
         *************************************************************
---------------------------------
CARTESIAN COORDINATES (ANGSTROEM)
---------------------------------
  C      0.045118    1.741658    0.292676
  C     -1.104524    0.957221    0.176888
  C     -0.987373   -0.421584   -0.056980
  C      0.280517   -1.016184   -0.175122
  C      1.424551   -0.213837   -0.056240
  C      1.311312    1.163185    0.177277
  O     -2.282377    1.639542    0.308523
  N     -2.178128   -1.267303   -0.182494
  O     -3.284438   -0.715315   -0.073906
  O     -2.012800   -2.476324   -0.388380
  N      2.757182   -0.821833   -0.177550
  O      2.813057   -2.041409   -0.383809
  O      3.741211   -0.078481   -0.066255
  H     -0.047164    2.811480    0.474159
  H      0.376382   -2.086195   -0.356684
  H      2.191682    1.797395    0.271588
  H     -3.044208    1.027983    0.216308

----------------------------
CARTESIAN COORDINATES (A.U.)
----------------------------
  NO LB      ZA    FRAG     MASS         X           Y           Z
   0 C     6.0000    0    12.011    0.085260    3.291256    0.553077
   1 C     6.0000    0    12.011   -2.087247    1.808886    0.334271
   2 C     6.0000    0    12.011   -1.865865   -0.796678   -0.107676
   3 C     6.0000    0    12.011    0.530101   -1.920310   -0.330932
   4 C     6.0000    0    12.011    2.692011   -0.404093   -0.106277
   5 C     6.0000    0    12.011    2.478020    2.198102    0.335005
   6 O     8.0000    0    15.999   -4.313067    3.098285    0.583024
   7 N     7.0000    0    14.007   -4.116065   -2.394855   -0.344864
   8 O     8.0000    0    15.999   -6.206688   -1.351749   -0.139663
   9 O     8.0000    0    15.999   -3.803641   -4.679574   -0.733932
  10 N     7.0000    0    14.007    5.210319   -1.553039   -0.335522
  11 O     8.0000    0    15.999    5.315907   -3.857703   -0.725294
  12 O     8.0000    0    15.999    7.069865   -0.148308   -0.125203
  13 H     1.0000    0     1.008   -0.089127    5.312928    0.896032
  14 H     1.0000    0     1.008    0.711259   -3.942336   -0.674035
  15 H     1.0000    0     1.008    4.141679    3.396584    0.513227
  16 H     1.0000    0     1.008   -5.752720    1.942607    0.408762

--------------------------------
INTERNAL COORDINATES (ANGSTROEM)
--------------------------------
 C      0   0   0     0.000000000000     0.00000000     0.00000000
 C      1   0   0     1.396575057128     0.00000000     0.00000000
 C      2   1   0     1.403396707883   119.79797276     0.00000000
 C      3   2   1     1.405366180154   120.33124655     0.00000000
 C      4   3   2     1.402393229645   119.12932684     0.00000000
 C      1   2   3     1.396851625514   120.44624156     0.00000000
 O      2   1   3     1.367562666976   114.88318746   179.99979406
 N      3   2   1     1.465909148182   120.88227998   179.99955640
 O      8   3   2     1.241129937365   117.38610336     0.00000000
 O      8   3   2     1.237519550042   117.99300420   180.00380691
 N      5   4   3     1.469789634217   119.73449482   179.99972599
 O     11   5   4     1.238155415352   117.52400105     0.00000000
 O     11   5   4     1.238253846885   117.69617447   180.00399080
 H      1   2   3     1.089023902335   119.72542359   180.00026282
 H      4   3   2     1.089530385872   120.59068144   180.00003041
 H      6   1   2     1.089113346678   118.97454010   180.00007857
 H      7   2   1     0.981272046885   110.40642524   179.99771295

---------------------------
INTERNAL COORDINATES (A.U.)
---------------------------
 C      0   0   0     0.000000000000     0.00000000     0.00000000
 C      1   0   0     2.639144383437     0.00000000     0.00000000
 C      2   1   0     2.652035435146   119.79797276     0.00000000
 C      3   2   1     2.655757198367   120.33124655     0.00000000
 C      4   3   2     2.650139136094   119.12932684     0.00000000
 C      1   2   3     2.639667021943   120.44624156     0.00000000
 O      2   1   3     2.584318911560   114.88318746   179.99979406
 N      3   2   1     2.770166827275   120.88227998   179.99955640
 O      8   3   2     2.345395678230   117.38610336     0.00000000
 O      8   3   2     2.338573034953   117.99300420   180.00380691
 N      5   4   3     2.777499883147   119.73449482   179.99972599
 O     11   5   4     2.339774646246   117.52400105     0.00000000
 O     11   5   4     2.339960654887   117.69617447   180.00399080
 H      1   2   3     2.057956928708   119.72542359   180.00026282
 H      4   3   2     2.058914043883   120.59068144   180.00003041
 H      6   1   2     2.058125954020   118.97454010   180.00007857
 H      7   2   1     1.854335431485   110.40642524   179.99771295

---------------------
BASIS SET INFORMATION
---------------------
There are 4 groups of distinct atoms

 Group   1 Type C   : 7s4p1d contracted to 3s2p1d pattern {511/31/1}
 Group   2 Type O   : 7s4p1d contracted to 3s2p1d pattern {511/31/1}
 Group   3 Type N   : 7s4p1d contracted to 3s2p1d pattern {511/31/1}
 Group   4 Type H   : 4s1p contracted to 2s1p pattern {31/1}

Atom   0C    basis set group =>   1
Atom   1C    basis set group =>   1
Atom   2C    basis set group =>   1
Atom   3C    basis set group =>   1
Atom   4C    basis set group =>   1
Atom   5C    basis set group =>   1
Atom   6O    basis set group =>   2
Atom   7N    basis set group =>   3
Atom   8O    basis set group =>   2
Atom   9O    basis set group =>   2
Atom  10N    basis set group =>   3
Atom  11O    basis set group =>   2
Atom  12O    basis set group =>   2
Atom  13H    basis set group =>   4
Atom  14H    basis set group =>   4
Atom  15H    basis set group =>   4
Atom  16H    basis set group =>   4
---------------------------------
AUXILIARY/J BASIS SET INFORMATION
---------------------------------
There are 4 groups of distinct atoms

 Group   1 Type C   : 12s5p4d2f1g contracted to 6s4p3d1f1g pattern {711111/2111/211/2/1}
 Group   2 Type O   : 12s5p4d2f1g contracted to 6s4p3d1f1g pattern {711111/2111/211/2/1}
 Group   3 Type N   : 12s5p4d2f1g contracted to 6s4p3d1f1g pattern {711111/2111/211/2/1}
 Group   4 Type H   : 5s2p1d contracted to 3s1p1d pattern {311/2/1}

Atom   0C    basis set group =>   1
Atom   1C    basis set group =>   1
Atom   2C    basis set group =>   1
Atom   3C    basis set group =>   1
Atom   4C    basis set group =>   1
Atom   5C    basis set group =>   1
Atom   6O    basis set group =>   2
Atom   7N    basis set group =>   3
Atom   8O    basis set group =>   2
Atom   9O    basis set group =>   2
Atom  10N    basis set group =>   3
Atom  11O    basis set group =>   2
Atom  12O    basis set group =>   2
Atom  13H    basis set group =>   4
Atom  14H    basis set group =>   4
Atom  15H    basis set group =>   4
Atom  16H    basis set group =>   4


           ************************************************************
           *        Program running with 64 parallel MPI-processes    *
           *              working on a common directory               *
           ************************************************************
------------------------------------------------------------------------------
                             ORCA STARTUP CALCULATIONS
                           -- RI-GTO INTEGRALS CHOSEN --
------------------------------------------------------------------------------
------------------------------------------------------------------------------
                   ___                                                        
                  /   \      - P O W E R E D   B Y -                         
                 /     \                                                     
                 |  |  |   _    _      __       _____    __    __             
                 |  |  |  | |  | |    /  \     |  _  \  |  |  /  |          
                  \  \/   | |  | |   /    \    | | | |  |  | /  /          
                 / \  \   | |__| |  /  /\  \   | |_| |  |  |/  /          
                |  |  |   |  __  | /  /__\  \  |    /   |      \           
                |  |  |   | |  | | |   __   |  |    \   |  |\   \          
                \     /   | |  | | |  |  |  |  | |\  \  |  | \   \       
                 \___/    |_|  |_| |__|  |__|  |_| \__\ |__|  \__/        
                                                                              
                      - O R C A' S   B I G   F R I E N D -                    
                                      &                                       
                       - I N T E G R A L  F E E D E R -                       
                                                                              
 v1 FN, 2020, v2 2021, v3 2022-2024                                           
------------------------------------------------------------------------------


----------------------
SHARK INTEGRAL PACKAGE
----------------------

Number of atoms                             ...     17
Number of basis functions                   ...    202
Number of shells                            ...     90
Maximum angular momentum                    ...      2
Integral batch strategy                     ... SHARK/LIBINT Hybrid
RI-J (if used) integral strategy            ... SPLIT-RIJ (Revised 2003 algorithm where possible)
Printlevel                                  ...      1
Contraction scheme used                     ... SEGMENTED contraction
Prescreening option                         ... SCHWARTZ
   Thresh                                   ... 2.500e-11
   Tcut                                     ... 2.500e-12
   Tpresel                                  ... 2.500e-12 
Coulomb Range Separation                    ... NOT USED
Exchange Range Separation                   ... NOT USED
Multipole approximations                    ... NOT USED
Finite Nucleus Model                        ... NOT USED
CABS basis                                  ... NOT available
Auxiliary Coulomb fitting basis             ... AVAILABLE
   # of basis functions in Aux-J            ...    681
   # of shells in Aux-J                     ...    215
   Maximum angular momentum in Aux-J        ...      4
Auxiliary J/K fitting basis                 ... NOT available
Auxiliary Correlation fitting basis         ... NOT available
Auxiliary 'external' fitting basis          ... NOT available

Checking pre-screening integrals            ... done (  0.2 sec) Dimension = 90
   => SHARK Basis and OBASIS are compatible. Storing Pre-screening
Shell pair information
Shell pair cut-off parameter TPreSel        ...   2.5e-12
Total number of shell pairs                 ...      4095
Shell pairs after pre-screening             ...      3478
Total number of primitive shell pairs       ...     15757
Primitive shell pairs kept                  ...      9214
          la=0 lb=0:    949 shell pairs
          la=1 lb=0:   1230 shell pairs
          la=1 lb=1:    419 shell pairs
          la=2 lb=0:    482 shell pairs
          la=2 lb=1:    328 shell pairs
          la=2 lb=2:     70 shell pairs

Checking whether 4 symmetric matrices of dimension 202 fit in memory
:Max Core in MB      =   2109.00
 MB in use           =      7.90
 MB left             =   2101.10
 MB needed           =      0.63
 Data fit in memory  = YES
Calculating RI/J V-Matrix + Cholesky decomp.... done (  0.4 sec)
Calculating Nuclear repulsion               ... done (  0.0 sec) ENN=    774.498574714524 Eh

Diagonalization of the overlap matrix:
Smallest eigenvalue                        ... 2.069e-04
Time for diagonalization                   ...    0.006 sec
Threshold for overlap eigenvalues          ... 1.000e-07
Number of eigenvalues below threshold      ... 0
Time for construction of square roots      ...    0.096 sec
Total time needed                          ...    0.388 sec

-------------------
DFT GRID GENERATION
-------------------

General Integration Accuracy     IntAcc      ... 4.388
Radial Grid Type                 RadialGrid  ... OptM3 with GC (2021)
Angular Grid (max. ang.)         AngularGrid ... 4 (Lebedev-302)
Angular grid pruning method      GridPruning ... 4 (adaptive)
Weight generation scheme         WeightScheme... mBecke (2022)
Basis function cutoff            BFCut       ... 1.0000e-11
Integration weight cutoff        WCut        ... 1.0000e-14
Partially contracted basis set               ... off
Rotationally invariant grid construction     ... off
Angular grids for H and He will be reduced by one unit

Total number of grid points                  ...    91314
Total number of batches                      ...     1436
Average number of points per batch           ...       63
Average number of grid points per atom       ...     5371

--------------------
COSX GRID GENERATION
--------------------

GRIDX 1
-------
General Integration Accuracy     IntAcc      ... 3.816
Radial Grid Type                 RadialGrid  ... OptM3 with GC (2021)
Angular Grid (max. ang.)         AngularGrid ... 1 (Lebedev-50)
Angular grid pruning method      GridPruning ... 4 (adaptive)
Weight generation scheme         WeightScheme... mBecke (2022)
Basis function cutoff            BFCut       ... 1.0000e-11
Integration weight cutoff        WCut        ... 1.0000e-14
Partially contracted basis set               ... on
Rotationally invariant grid construction     ... off
Angular grids for H and He will be reduced by one unit

Total number of grid points                  ...    11578
Total number of batches                      ...       99
Average number of points per batch           ...      116
Average number of grid points per atom       ...      681
UseSFitting                                  ... on

GRIDX 2
-------
General Integration Accuracy     IntAcc      ... 4.020
Radial Grid Type                 RadialGrid  ... OptM3 with GC (2021)
Angular Grid (max. ang.)         AngularGrid ... 2 (Lebedev-110)
Angular grid pruning method      GridPruning ... 4 (adaptive)
Weight generation scheme         WeightScheme... mBecke (2022)
Basis function cutoff            BFCut       ... 1.0000e-11
Integration weight cutoff        WCut        ... 1.0000e-14
Partially contracted basis set               ... on
Rotationally invariant grid construction     ... off
Angular grids for H and He will be reduced by one unit

Total number of grid points                  ...    26508
Total number of batches                      ...      213
Average number of points per batch           ...      124
Average number of grid points per atom       ...     1559
UseSFitting                                  ... on

GRIDX 3
-------
General Integration Accuracy     IntAcc      ... 4.338
Radial Grid Type                 RadialGrid  ... OptM3 with GC (2021)
Angular Grid (max. ang.)         AngularGrid ... 3 (Lebedev-194)
Angular grid pruning method      GridPruning ... 4 (adaptive)
Weight generation scheme         WeightScheme... mBecke (2022)
Basis function cutoff            BFCut       ... 1.0000e-11
Integration weight cutoff        WCut        ... 1.0000e-14
Partially contracted basis set               ... on
Rotationally invariant grid construction     ... off
Angular grids for H and He will be reduced by one unit

Total number of grid points                  ...    58511
Total number of batches                      ...      465
Average number of points per batch           ...      125
Average number of grid points per atom       ...     3442
UseSFitting                                  ... on
Grids setup in   2.8 sec
Initializing property integral containers    ... done (  0.3 sec)

SHARK setup successfully completed in   4.4 seconds

Maximum memory used throughout the entire STARTUP-calculation: 22.7 MB


           ************************************************************
           *        Program running with 64 parallel MPI-processes    *
           *              working on a common directory               *
           ************************************************************
-------------------------------------------------------------------------------
                                 ORCA GUESS
                   Start orbitals & Density for SCF / CASSCF
-------------------------------------------------------------------------------

------------
SCF SETTINGS
------------
Hamiltonian:
 Density Functional     Method          .... DFT(GTOs)
 Exchange Functional    Exchange        .... M062X
 Correlation Functional Correlation     .... M062X
 Gradients option       PostSCFGGA      .... off
 Hybrid DFT is turned on
   Fraction HF Exchange ScalHFX         ....  0.540000
   Scaling of DF-GGA-X  ScalDFX         ....  0.460000
   Scaling of DF-GGA-C  ScalDFC         ....  1.000000
   Scaling of DF-LDA-C  ScalLDAC        ....  1.000000
   Perturbative correction              ....  0.000000
 RI-approximation to the Coulomb term is turned on
   Number of AuxJ basis functions       .... 681
   RIJ-COSX (HFX calculated with COS-X)).... on


General Settings:
 Integral files         IntName         .... /lustre/project/xlzhang/jingyi/chemsmart/test_pka/orca/pka_scale_frag4_pka_HA_opt
 Hartree-Fock type      HFTyp           .... RHF
 Total Charge           Charge          ....    0
 Multiplicity           Mult            ....    1
 Number of Electrons    NEL             ....   94
 Basis Dimension        Dim             ....  202
 Nuclear Repulsion      ENuc            ....    774.4985747145 Eh

Convergence Acceleration:
 AO-DIIS                CNVDIIS         .... on
   Start iteration      DIISMaxIt       ....    12
   Startup error        DIISStart       ....  0.200000
   # of expansion vecs  DIISMaxEq       ....     5
   Bias factor          DIISBfac        ....   1.050
   Max. coefficient     DIISMaxC        ....  10.000
 MO-DIIS                CNVKDIIS        .... off
 Trust-Rad. Augm. Hess. CNVTRAH         .... auto
   Auto Start mean grad. ratio tolernc. ....  1.125000
   Auto Start start iteration           ....    50
   Auto Start num. interpolation iter.  ....    10
   Max. Number of Micro iterations      ....    24
   Max. Number of Macro iterations      .... Maxiter - #DIIS iter
   Number of Davidson start vectors     ....     2
   Converg. threshold    (grad. norm)   ....   1.000e-05
   Grad. Scal. Fac. for Micro threshold ....   0.100
   Minimum threshold for Micro iter.    ....   1.000e-02
   NR start threshold (gradient norm)   ....   1.000e-04
   Initial trust radius                 ....   0.400
   Minimum AH scaling param. (alpha)    ....   1.000
   Maximum AH scaling param. (alpha)    .... 1000.000
   Quad. conv. algorithm                .... NR
   White noise on init. David. guess    .... on
   Maximum white noise                  ....   0.010
   Pseudo random numbers                .... off
   Inactive MOs                         .... canonical
   Orbital update algorithm             .... Taylor
   Preconditioner                       .... Diag
   Full preconditioner red. dimension   ....   250
 SOSCF                 CNVSOSCF           .... on
   Start iteration     SOSCFMaxIt         ....   150
   Startup grad/error  SOSCFStart         ....  0.003300
   Hessian update      SOSCFHessUp        .... L-BFGS
   Autom. constraints  SOSCFAutoConstrain .... off
 Level Shifting         CNVShift        .... on
   Level shift para.    LevelShift      ....    0.2500
   Turn off err/grad.   ShiftErr        ....    0.0010
 Zerner damping         CNVZerner       .... off
 Static damping         CNVDamp         .... on
   Fraction old density DampFac         ....    0.7000
   Max. Damping (<1)    DampMax         ....    0.9800
   Min. Damping (>=0)   DampMin         ....    0.0000
   Turn off err/grad.   DampErr         ....    0.1000

SCF Procedure:
 Maximum # iterations   MaxIter         ....   125
 SCF integral mode      SCFMode         .... Direct
   Integral package                     .... SHARK and LIBINT hybrid scheme
 Reset frequency        DirectResetFreq ....    20
 Integral Threshold     Thresh          ....  2.500e-11 Eh
 Primitive CutOff       TCut            ....  2.500e-12 Eh

Convergence Tolerance:
 Convergence Check Mode ConvCheckMode   .... Total+1el-Energy
 Convergence forced     ConvForced      .... 0
 Energy Change          TolE            ....  1.000e-08 Eh
 1-El. energy change                    ....  1.000e-05 Eh
 Orbital Gradient       TolG            ....  1.000e-05
 Orbital Rotation angle TolX            ....  1.000e-05
 DIIS Error             TolErr          ....  5.000e-07

------------------------------
INITIAL GUESS: MODEL POTENTIAL
------------------------------
Loading Hartree-Fock densities                     ... done
Calculating cut-offs                               ... done
Initializing the effective Hamiltonian             ... done
Setting up the integral package (SHARK)            ... done
Starting the Coulomb interaction                   ... done (   0.1 sec)
Making the grid                                    ... done (   0.7 sec)
Mapping shells                                     ... done
Starting the XC term evaluation                    ... done (   0.0 sec)
  promolecular density results
     # of electrons  =     94.000223385
     EX              =    -85.677076524
     EC              =     -3.214243537
     EX+EC           =    -88.891320061
Transforming the Hamiltonian                       ... done (   0.1 sec)
Diagonalizing the Hamiltonian                      ... done (   0.0 sec)
Back transforming the eigenvectors                 ... done (   0.1 sec)
Now organizing SCF variables                       ... done
                      ------------------
                      INITIAL GUESS DONE (   1.4 sec)
                      ------------------
             **** ENERGY FILE WAS UPDATED (/lustre/project/xlzhang/jingyi/chemsmart/test_pka/orca/pka_scale_frag4_pka_HA_opt.en.tmp) ****
Finished Guess after   4.0 sec
Maximum memory used throughout the entire GUESS-calculation: 10.5 MB


           ************************************************************
           *        Program running with 64 parallel MPI-processes    *
           *              working on a common directory               *
           ************************************************************

-------------------------------------------------------------------------------------------
                                      ORCA LEAN-SCF
                              memory conserving SCF solver
-------------------------------------------------------------------------------------------

----------------------------------------D-I-I-S--------------------------------------------
Iteration    Energy (Eh)           Delta-E    RMSDP     MaxDP     DIISErr   Damp  Time(sec)
-------------------------------------------------------------------------------------------
               ***  Starting incremental Fock matrix formation  ***
    1    -715.3005480610808036     0.00e+00  2.56e-02  7.83e-02  2.48e-01  0.700   1.4
    2    -715.4629716177076943    -1.62e-01  1.61e-02  4.39e-02  9.30e-02  0.700   1.3
                               ***Turning on AO-DIIS***
    3    -715.5238551767566832    -6.09e-02  6.73e-03  1.60e-02  3.57e-02  0.700   1.5
    4    -715.5626123789610347    -3.88e-02  1.26e-02  3.49e-02  2.10e-02  0.000   0.8
    5    -715.6499324722777828    -8.73e-02  1.87e-03  5.29e-03  4.26e-03  0.000   1.2
                              *** Initializing SOSCF ***
---------------------------------------S-O-S-C-F--------------------------------------
Iteration    Energy (Eh)           Delta-E    RMSDP     MaxDP     MaxGrad    Time(sec)
--------------------------------------------------------------------------------------
    6    -715.6501686714842663    -2.36e-04  7.46e-04  2.47e-03  9.64e-04     0.8
               *** Restarting incremental Fock matrix formation ***
    7    -715.6501369964181549     3.17e-05  5.80e-04  1.29e-03  6.52e-04     0.7
    8    -715.6501466475505140    -9.65e-06  4.85e-04  1.39e-03  5.81e-04     1.2
    9    -715.6501485040261059    -1.86e-06  2.65e-04  7.14e-04  4.42e-04     1.1
   10    -715.6501507213744162    -2.22e-06  1.13e-04  3.63e-04  6.50e-05     1.0
   11    -715.6501507932315462    -7.19e-08  5.97e-05  1.73e-04  7.76e-05     0.9
   12    -715.6501509468829454    -1.54e-07  1.72e-05  5.45e-05  1.57e-05     1.2
   13    -715.6501509401965677     6.69e-09  1.04e-05  3.15e-05  2.13e-05     1.1
                 **** Energy Check signals convergence ****

               *****************************************************
               *                     SUCCESS                       *
               *           SCF CONVERGED AFTER  13 CYCLES          *
               *****************************************************

Recomputing exchange energy using gridx3       ... done (    0.199 sec)
Old exchange energy                            :    -46.666547566 Eh
New exchange energy                            :    -46.666630781 Eh
Exchange energy change after final integration :     -0.000083215 Eh
Total energy after final integration           :   -715.650234169 Eh
             **** ENERGY FILE WAS UPDATED (/lustre/project/xlzhang/jingyi/chemsmart/test_pka/orca/pka_scale_frag4_pka_HA_opt.en.tmp) ****

----------------
TOTAL SCF ENERGY
----------------

Total Energy       :       -715.65023416879217 Eh          -19473.83290 eV

Components:
Nuclear Repulsion  :        774.49857471452390 Eh           21075.17766 eV
Electronic Energy  :      -1490.14872566808936 Eh          -40549.00830 eV
One Electron Energy:      -2512.21384258805665 Eh          -68360.81405 eV
Two Electron Energy:       1022.06511691996718 Eh           27811.80576 eV

Virial components:
Potential Energy   :      -1425.41394672032357 Eh          -38787.48541 eV
Kinetic Energy     :        709.76371255153140 Eh           19313.65251 eV
Virial Ratio       :          2.00829363563276

DFT components:
N(Alpha)           :       47.000030337474 electrons
N(Beta)            :       47.000030337474 electrons
N(Total)           :       94.000060674948 electrons
E(XC)              :      -43.528626244317 Eh       

---------------
SCF CONVERGENCE
---------------

  Last Energy change         ...   -6.6864e-09  Tolerance :   1.0000e-08
  Last MAX-Density change    ...    3.1457e-05  Tolerance :   1.0000e-07
  Last RMS-Density change    ...    1.0407e-05  Tolerance :   5.0000e-09
  Last DIIS Error            ...    9.6439e-04  Tolerance :   5.0000e-07
  Last Orbital Gradient      ...    2.1332e-05  Tolerance :   1.0000e-05
  Last Orbital Rotation      ...    2.9205e-05  Tolerance :   1.0000e-05


----------------
ORBITAL ENERGIES
----------------

  NO   OCC          E(Eh)            E(eV) 
   0   2.0000     -19.707772      -536.2758 
   1   2.0000     -19.704819      -536.1954 
   2   2.0000     -19.698025      -536.0105 
   3   2.0000     -19.683821      -535.6240 
   4   2.0000     -19.683131      -535.6052 
   5   2.0000     -15.046821      -409.4448 
   6   2.0000     -15.024485      -408.8370 
   7   2.0000     -10.692092      -290.9466 
   8   2.0000     -10.661923      -290.1257 
   9   2.0000     -10.652205      -289.8612 
  10   2.0000     -10.636383      -289.4307 
  11   2.0000     -10.627454      -289.1877 
  12   2.0000     -10.611128      -288.7435 
  13   2.0000      -1.376649       -37.4605 
  14   2.0000      -1.354373       -36.8544 
  15   2.0000      -1.209413       -32.9098 
  16   2.0000      -1.189419       -32.3657 
  17   2.0000      -1.171973       -31.8910 
  18   2.0000      -1.028929       -27.9986 
  19   2.0000      -0.954290       -25.9675 
  20   2.0000      -0.917041       -24.9539 
  21   2.0000      -0.836161       -22.7531 
  22   2.0000      -0.814272       -22.1575 
  23   2.0000      -0.746320       -20.3084 
  24   2.0000      -0.715392       -19.4668 
  25   2.0000      -0.678079       -18.4515 
  26   2.0000      -0.657462       -17.8904 
  27   2.0000      -0.656345       -17.8601 
  28   2.0000      -0.639031       -17.3889 
  29   2.0000      -0.636532       -17.3209 
  30   2.0000      -0.635850       -17.3024 
  31   2.0000      -0.613543       -16.6954 
  32   2.0000      -0.591206       -16.0875 
  33   2.0000      -0.558738       -15.2040 
  34   2.0000      -0.537774       -14.6336 
  35   2.0000      -0.529407       -14.4059 
  36   2.0000      -0.510257       -13.8848 
  37   2.0000      -0.480269       -13.0688 
  38   2.0000      -0.463333       -12.6079 
  39   2.0000      -0.423920       -11.5354 
  40   2.0000      -0.417818       -11.3694 
  41   2.0000      -0.411930       -11.2092 
  42   2.0000      -0.406296       -11.0559 
  43   2.0000      -0.394610       -10.7379 
  44   2.0000      -0.389670       -10.6035 
  45   2.0000      -0.374890       -10.2013 
  46   2.0000      -0.341265        -9.2863 
  47   0.0000      -0.091537        -2.4908 
  48   0.0000      -0.074570        -2.0292 
  49   0.0000      -0.009567        -0.2603 
  50   0.0000       0.028609         0.7785 
  51   0.0000       0.078442         2.1345 
  52   0.0000       0.113949         3.1007 
  53   0.0000       0.128122         3.4864 
  54   0.0000       0.149470         4.0673 
  55   0.0000       0.166250         4.5239 
  56   0.0000       0.177744         4.8366 
  57   0.0000       0.183187         4.9848 
*Only the first 10 virtual orbitals were printed.

                    ********************************
                    * MULLIKEN POPULATION ANALYSIS *
                    ********************************

-----------------------
MULLIKEN ATOMIC CHARGES
-----------------------
   0 C :   -0.077564
   1 C :    0.149265
   2 C :    0.124858
   3 C :   -0.018409
   4 C :    0.146638
   5 C :    0.019684
   6 O :   -0.226799
   7 N :    0.252684
   8 O :   -0.293034
   9 O :   -0.224380
  10 N :    0.232031
  11 O :   -0.249104
  12 O :   -0.250728
  13 H :    0.051384
  14 H :    0.070680
  15 H :    0.063834
  16 H :    0.228959
Sum of atomic charges:   -0.0000000

--------------------------------
MULLIKEN REDUCED ORBITAL CHARGES
--------------------------------
  0 C s       :     3.268118  s :     3.268118
      pz      :     1.016104  p :     2.779913
      px      :     0.895850
      py      :     0.867958
      dz2     :     0.002672  d :     0.029533
      dxz     :     0.004812
      dyz     :     0.002867
      dx2y2   :     0.008639
      dxy     :     0.010543

  1 C s       :     3.010875  s :     3.010875
      pz      :     0.900375  p :     2.766825
      px      :     0.833722
      py      :     1.032728
      dz2     :     0.005461  d :     0.073035
      dxz     :     0.015755
      dyz     :     0.009970
      dx2y2   :     0.021363
      dxy     :     0.020486

  2 C s       :     2.993449  s :     2.993449
      pz      :     1.155600  p :     2.840328
      px      :     0.787193
      py      :     0.897535
      dz2     :     0.004557  d :     0.041365
      dxz     :     0.005096
      dyz     :     0.005474
      dx2y2   :     0.011145
      dxy     :     0.015093

  3 C s       :     3.369737  s :     3.369737
      pz      :     0.879823  p :     2.617665
      px      :     0.948277
      py      :     0.789564
      dz2     :     0.002502  d :     0.031007
      dxz     :     0.008123
      dyz     :     0.003008
      dx2y2   :     0.007878
      dxy     :     0.009496

  4 C s       :     2.986292  s :     2.986292
      pz      :     1.104836  p :     2.824029
      px      :     0.837970
      py      :     0.881223
      dz2     :     0.004368  d :     0.043041
      dxz     :     0.004931
      dyz     :     0.005896
      dx2y2   :     0.013306
      dxy     :     0.014539

  5 C s       :     3.242119  s :     3.242119
      pz      :     0.896953  p :     2.705770
      px      :     0.852201
      py      :     0.956616
      dz2     :     0.002574  d :     0.032428
      dxz     :     0.004517
      dyz     :     0.005827
      dx2y2   :     0.010626
      dxy     :     0.008884

  6 O s       :     3.685295  s :     3.685295
      pz      :     1.778624  p :     4.527402
      px      :     1.185072
      py      :     1.563707
      dz2     :     0.002136  d :     0.014102
      dxz     :     0.001370
      dyz     :     0.001844
      dx2y2   :     0.001644
      dxy     :     0.007108

  7 N s       :     3.316684  s :     3.316684
      pz      :     1.144032  p :     3.318635
      px      :     1.105395
      py      :     1.069208
      dz2     :     0.005852  d :     0.111997
      dxz     :     0.015149
      dyz     :     0.020520
      dx2y2   :     0.031228
      dxy     :     0.039247

  8 O s       :     3.870956  s :     3.870956
      pz      :     1.484530  p :     4.400279
      px      :     1.251862
      py      :     1.663887
      dz2     :     0.002670  d :     0.021799
      dxz     :     0.005601
      dyz     :     0.001027
      dx2y2   :     0.005691
      dxy     :     0.006809

  9 O s       :     3.879192  s :     3.879192
      pz      :     1.396929  p :     4.322242
      px      :     1.828817
      py      :     1.096496
      dz2     :     0.002881  d :     0.022946
      dxz     :     0.000245
      dyz     :     0.007165
      dx2y2   :     0.008188
      dxy     :     0.004466

 10 N s       :     3.316972  s :     3.316972
      pz      :     1.150790  p :     3.338675
      px      :     1.125505
      py      :     1.062380
      dz2     :     0.005836  d :     0.112322
      dxz     :     0.011554
      dyz     :     0.023801
      dx2y2   :     0.034901
      dxy     :     0.036231

 11 O s       :     3.874312  s :     3.874312
      pz      :     1.417009  p :     4.352153
      px      :     1.845674
      py      :     1.089469
      dz2     :     0.002852  d :     0.022639
      dxz     :     0.000191
      dyz     :     0.007062
      dx2y2   :     0.008504
      dxy     :     0.004031

 12 O s       :     3.873802  s :     3.873802
      pz      :     1.433338  p :     4.354318
      px      :     1.360693
      py      :     1.560288
      dz2     :     0.002760  d :     0.022608
      dxz     :     0.004661
      dyz     :     0.002332
      dx2y2   :     0.004418
      dxy     :     0.008437

 13 H s       :     0.925991  s :     0.925991
      pz      :     0.003997  p :     0.022625
      px      :     0.002607
      py      :     0.016020

 14 H s       :     0.905679  s :     0.905679
      pz      :     0.003365  p :     0.023641
      px      :     0.002710
      py      :     0.017566

 15 H s       :     0.913387  s :     0.913387
      pz      :     0.003092  p :     0.022779
      px      :     0.012722
      py      :     0.006965

 16 H s       :     0.699560  s :     0.699560
      pz      :     0.016517  p :     0.071481
      px      :     0.029250
      py      :     0.025714



                     *******************************
                     * LOEWDIN POPULATION ANALYSIS *
                     *******************************

----------------------
LOEWDIN ATOMIC CHARGES
----------------------
   0 C :   -0.033816
   1 C :    0.101693
   2 C :   -0.070541
   3 C :    0.037580
   4 C :   -0.044549
   5 C :    0.032473
   6 O :   -0.053001
   7 N :    0.313316
   8 O :   -0.221270
   9 O :   -0.191294
  10 N :    0.301413
  11 O :   -0.217209
  12 O :   -0.218384
  13 H :    0.057098
  14 H :    0.065901
  15 H :    0.058536
  16 H :    0.082056

-------------------------------
LOEWDIN REDUCED ORBITAL CHARGES
-------------------------------
  0 C s       :     2.858810  s :     2.858810
      pz      :     1.002364  p :     3.092387
      px      :     1.043890
      py      :     1.046133
      dz2     :     0.006399  d :     0.082619
      dxz     :     0.010605
      dyz     :     0.004939
      dx2y2   :     0.028765
      dxy     :     0.031910

  1 C s       :     2.842290  s :     2.842290
      pz      :     0.897002  p :     2.886650
      px      :     0.944489
      py      :     1.045159
      dz2     :     0.011835  d :     0.169367
      dxz     :     0.029998
      dyz     :     0.020703
      dx2y2   :     0.052206
      dxy     :     0.054625

  2 C s       :     2.854575  s :     2.854575
      pz      :     1.119586  p :     3.101798
      px      :     0.960996
      py      :     1.021217
      dz2     :     0.010332  d :     0.114169
      dxz     :     0.010883
      dyz     :     0.011580
      dx2y2   :     0.035578
      dxy     :     0.045795

  3 C s       :     2.868431  s :     2.868431
      pz      :     0.897029  p :     3.009243
      px      :     1.042737
      py      :     1.069478
      dz2     :     0.006129  d :     0.084746
      dxz     :     0.018030
      dyz     :     0.005344
      dx2y2   :     0.026557
      dxy     :     0.028686

  4 C s       :     2.857338  s :     2.857338
      pz      :     1.077687  p :     3.070853
      px      :     0.931587
      py      :     1.061578
      dz2     :     0.010018  d :     0.116359
      dxz     :     0.010531
      dyz     :     0.012444
      dx2y2   :     0.040158
      dxy     :     0.043207

  5 C s       :     2.865858  s :     2.865858
      pz      :     0.895040  p :     3.014334
      px      :     1.072302
      py      :     1.046991
      dz2     :     0.006383  d :     0.087335
      dxz     :     0.008811
      dyz     :     0.012767
      dx2y2   :     0.031000
      dxy     :     0.028374

  6 O s       :     3.421564  s :     3.421564
      pz      :     1.747669  p :     4.606332
      px      :     1.244802
      py      :     1.613860
      dz2     :     0.003642  d :     0.025105
      dxz     :     0.002556
      dyz     :     0.001623
      dx2y2   :     0.003351
      dxy     :     0.013934

  7 N s       :     3.060693  s :     3.060693
      pz      :     1.100892  p :     3.396003
      px      :     1.153216
      py      :     1.141895
      dz2     :     0.012992  d :     0.229988
      dxz     :     0.026040
      dyz     :     0.035175
      dx2y2   :     0.069252
      dxy     :     0.086529

  8 O s       :     3.615238  s :     3.615238
      pz      :     1.490134  p :     4.565468
      px      :     1.393992
      py      :     1.681341
      dz2     :     0.006151  d :     0.040564
      dxz     :     0.007366
      dyz     :     0.001632
      dx2y2   :     0.011548
      dxy     :     0.013866

  9 O s       :     3.633264  s :     3.633264
      pz      :     1.412675  p :     4.515907
      px      :     1.828788
      py      :     1.274444
      dz2     :     0.006088  d :     0.042123
      dxz     :     0.000394
      dyz     :     0.010155
      dx2y2   :     0.018390
      dxy     :     0.007097

 10 N s       :     3.062333  s :     3.062333
      pz      :     1.105645  p :     3.406084
      px      :     1.166884
      py      :     1.133555
      dz2     :     0.012934  d :     0.230171
      dxz     :     0.019654
      dyz     :     0.040831
      dx2y2   :     0.076856
      dxy     :     0.079896

 11 O s       :     3.633033  s :     3.633033
      pz      :     1.430871  p :     4.542395
      px      :     1.843690
      py      :     1.267834
      dz2     :     0.006036  d :     0.041781
      dxz     :     0.000267
      dyz     :     0.010158
      dx2y2   :     0.018838
      dxy     :     0.006481

 12 O s       :     3.633074  s :     3.633074
      pz      :     1.443167  p :     4.543596
      px      :     1.479653
      py      :     1.620775
      dz2     :     0.006239  d :     0.041714
      dxz     :     0.006112
      dyz     :     0.003324
      dx2y2   :     0.007617
      dxy     :     0.018421

 13 H s       :     0.873339  s :     0.873339
      pz      :     0.014981  p :     0.069563
      px      :     0.009838
      py      :     0.044744

 14 H s       :     0.858571  s :     0.858571
      pz      :     0.012309  p :     0.075529
      px      :     0.012346
      py      :     0.050874

 15 H s       :     0.870372  s :     0.870372
      pz      :     0.011542  p :     0.071092
      px      :     0.036671
      py      :     0.022879

 16 H s       :     0.716802  s :     0.716802
      pz      :     0.045692  p :     0.201142
      px      :     0.072062
      py      :     0.083388



                      *****************************
                      * MAYER POPULATION ANALYSIS *
                      *****************************

  NA   - Mulliken gross atomic population
  ZA   - Total nuclear charge
  QA   - Mulliken gross atomic charge
  VA   - Mayer's total valence
  BVA  - Mayer's bonded valence
  FA   - Mayer's free valence

  ATOM       NA         ZA         QA         VA         BVA        FA
  0 C      6.0776     6.0000    -0.0776     3.8820     3.8820     0.0000
  1 C      5.8507     6.0000     0.1493     4.0125     4.0125    -0.0000
  2 C      5.8751     6.0000     0.1249     3.6229     3.6229    -0.0000
  3 C      6.0184     6.0000    -0.0184     3.8646     3.8646    -0.0000
  4 C      5.8534     6.0000     0.1466     3.6939     3.6939    -0.0000
  5 C      5.9803     6.0000     0.0197     3.8248     3.8248    -0.0000
  6 O      8.2268     8.0000    -0.2268     2.2712     2.2712    -0.0000
  7 N      6.7473     7.0000     0.2527     3.9132     3.9132     0.0000
  8 O      8.2930     8.0000    -0.2930     1.8801     1.8801     0.0000
  9 O      8.2244     8.0000    -0.2244     1.9527     1.9527     0.0000
 10 N      6.7680     7.0000     0.2320     3.9356     3.9356    -0.0000
 11 O      8.2491     8.0000    -0.2491     1.9178     1.9178    -0.0000
 12 O      8.2507     8.0000    -0.2507     1.9166     1.9166     0.0000
 13 H      0.9486     1.0000     0.0514     0.9949     0.9949     0.0000
 14 H      0.9293     1.0000     0.0707     1.0361     1.0361    -0.0000
 15 H      0.9362     1.0000     0.0638     1.0060     1.0060    -0.0000
 16 H      0.7710     1.0000     0.2290     1.0309     1.0309    -0.0000

  Mayer bond orders larger than 0.100000
B(  0-C ,  1-C ) :   1.3227 B(  0-C ,  5-C ) :   1.4066 B(  0-C , 13-H ) :   0.9896 
B(  1-C ,  2-C ) :   1.2320 B(  1-C ,  6-O ) :   1.3188 B(  2-C ,  3-C ) :   1.3348 
B(  2-C ,  7-N ) :   0.8583 B(  3-C ,  4-C ) :   1.3629 B(  3-C , 14-H ) :   0.9886 
B(  4-C ,  5-C ) :   1.3266 B(  4-C , 10-N ) :   0.8413 B(  5-C , 15-H ) :   0.9868 
B(  6-O , 16-H ) :   0.8923 B(  7-N ,  8-O ) :   1.4392 B(  7-N ,  9-O ) :   1.5715 
B(  8-O ,  9-O ) :   0.2565 B( 10-N , 11-O ) :   1.5351 B( 10-N , 12-O ) :   1.5351 
B( 11-O , 12-O ) :   0.2711 

-------
TIMINGS
-------

Total SCF time: 0 days 0 hours 0 min 19 sec 

Total time                  ....      19.425 sec
Sum of individual times     ....      18.038 sec  ( 92.9%)

SCF preparation             ....       3.248 sec  ( 16.7%)
Fock matrix formation       ....      13.358 sec  ( 68.8%)
  Startup                   ....       0.049 sec  (  0.4% of F)
  Split-RI-J                ....       1.375 sec  ( 10.3% of F)
  Chain of spheres X        ....       1.727 sec  ( 12.9% of F)
  XC integration            ....       4.666 sec  ( 34.9% of F)
    XC Preparation          ....       0.000 sec  (  0.0% of XC)
    Basis function eval.    ....       0.045 sec  (  1.0% of XC)
    Density eval.           ....       0.073 sec  (  1.6% of XC)
    XC-Functional eval.     ....       0.017 sec  (  0.4% of XC)
    XC-Potential eval.      ....       0.084 sec  (  1.8% of XC)
Diagonalization             ....       0.000 sec  (  0.0%)
Density matrix formation    ....       0.164 sec  (  0.8%)
Total Energy calculation    ....       0.070 sec  (  0.4%)
Population analysis         ....       0.418 sec  (  2.2%)
Orbital Transformation      ....       0.173 sec  (  0.9%)
Orbital Orthonormalization  ....       0.000 sec  (  0.0%)
DIIS solution               ....       0.340 sec  (  1.7%)
SOSCF solution              ....       0.266 sec  (  1.4%)
Finished LeanSCF after  19.9 sec

Maximum memory used throughout the entire LEANSCF-calculation: 16.0 MB


           ************************************************************
           *        Program running with 64 parallel MPI-processes    *
           *              working on a common directory               *
           ************************************************************

------------------------------------------------------------------------------
                         ORCA PROPERTY INTEGRAL CALCULATIONS
------------------------------------------------------------------------------

GBWName                                   ... /lustre/project/xlzhang/jingyi/chemsmart/test_pka/orca/pka_scale_frag4_pka_HA_opt.gbw
Number of atoms                           ...     17
Number of basis functions                 ...    202
Max core memory                           ...   2109 MB

Dipole integrals                          ... YES
Quadrupole integrals                      ...  NO
Linear momentum integrals                 ...  NO
Angular momentum integrals                ...  NO
Higher moments length integrals           ...  NO
Higher moments velocity integrals         ...  NO
Kinetic energy integrals                  ...  NO
GIAO right hand sides                     ...  NO
GIAO dipole derivative integrals          ...  NO
SOC integrals                             ...  NO
EPR diamagnetic integrals (GIAO)          ...  NO
EPR gauge integrals                       ...  NO
Field gradient integrals                  ...  NO (   0 nuclei)
Spin-dipole/Fermi contact integrals       ...  NO (   0 nuclei)
Contact density integrals                 ...  NO (   0 nuclei)
Nucleus-orbit integrals                   ...  NO (   0 nuclei)
Geometric perturbations                   ...  NO (  17 nuclei)

Choice of electric origin   ... Center of mass
Position of electric origin ... (  0.0290, -0.5941, -0.1005) 
Choice of magnetic origin   ... GIAO
Position of magnetic origin ... (  0.0000,  0.0000,  0.0000) 

Calculating integrals                     ... Electric Dipole (Length)     done (  0.2 sec)

Property integrals calculated in   0.2 sec

Maximum memory used throughout the entire PROPINT-calculation: 10.9 MB

-------------------------   --------------------
FINAL SINGLE POINT ENERGY      -715.650234168792
-------------------------   --------------------



           ************************************************************
           *        Program running with 64 parallel MPI-processes    *
           *              working on a common directory               *
           ************************************************************
------------------------------------------------------------------------------
                         ORCA SCF GRADIENT CALCULATION
------------------------------------------------------------------------------

Nuc. rep. gradient        (SHARK) ... done (  0.0 sec)
HCore & Overlap gradient  (SHARK) ... done (  0.0 sec)
Split-RIJ-J gradient      (SHARK) ... done (  0.1 sec)
done (  0.8 sec)
XC gradient                       ... done (  0.5 sec)

------------------
CARTESIAN GRADIENT
------------------

   1   C   :   -0.024517496    0.009123326    0.001850992
   2   C   :    0.046159628   -0.029425091   -0.005552610
   3   C   :   -0.010236984    0.009810911    0.001839554
   4   C   :   -0.006668601   -0.006518107   -0.000936888
   5   C   :    0.013630359    0.003987625    0.000439094
   6   C   :    0.011504005   -0.006731785   -0.001619660
   7   O   :   -0.024879225    0.018663886    0.003459466
   8   N   :    0.011926419    0.032164184    0.005474438
   9   O   :   -0.028936402    0.019727521    0.003655007
  10   O   :    0.009502775   -0.054838570   -0.009420514
  11   N   :   -0.034810761    0.018812811    0.003741163
  12   O   :    0.003938031   -0.046950183   -0.008013360
  13   O   :    0.039830760    0.026848078    0.003923630
  14   H   :    0.003809900    0.000738420    0.000127857
  15   H   :    0.000810404    0.000085428   -0.000070040
  16   H   :   -0.002843834    0.003667711    0.000859027
  17   H   :   -0.008218979    0.000833834    0.000242845

Difference to translation invariance:
           :    0.0000000001   -0.0000000001   -0.0000000000

Difference to rotation invariance:
           :    0.0001414932    0.0005047365   -0.0005486909

Norm of the Cartesian gradient     ...    0.1315087641
RMS gradient                       ...    0.0184149103
MAX gradient                       ...    0.0548385704

-------
TIMINGS
-------

Total SCF gradient time     ....        1.484 sec

Densities                   ....       0.003 sec  (  0.2%)
One electron gradient       ....       0.022 sec  (  1.5%)
RI-J Coulomb gradient       ....       0.121 sec  (  8.2%)
COSX gradient               ....       0.798 sec  ( 53.8%)
XC gradient                 ....       0.537 sec  ( 36.2%)

Maximum memory used throughout the entire SCFGRAD-calculation: 20.4 MB
------------------------------------------------------------------------------
                         ORCA GEOMETRY RELAXATION STEP
------------------------------------------------------------------------------

Reading the OPT-File                    .... done
Getting information on internals        .... done
Copying old internal coords+grads       .... done
Making the new internal coordinates     .... (2022 redundants) done
Validating the new internal coordinates .... (2022 redundants) done
Calculating the B-matrix                .... done
Calculating the G,G- and P matrices     .... done
Transforming gradient to internals      .... done
Projecting the internal gradient        .... done
Number of atoms                         ....  17
Number of internal coordinates          ....  77
Current Energy                          ....  -715.650234169 Eh
Current gradient norm                   ....     0.131508764 Eh/bohr
Maximum allowed component of the step   ....  0.300
Current trust radius                    ....  0.300
Evaluating the initial hessian          ....  (Almloef) done
Projecting the Hessian                  .... done
Forming the augmented Hessian           .... done
Diagonalizing the augmented Hessian     .... done
Last element of RFO vector              ....  0.989158638
Lowest eigenvalues of augmented Hessian:
 -0.015785263  0.013735067  0.013735196  0.014126276  0.014126963
Length of the computed step             ....  0.148460423
The final length of the internal step   ....  0.148460423
Converting the step to Cartesian space:
 Initial RMS(Int)=    0.0169186354
Transforming coordinates:
 Iter   0:  RMS(Cart)=    0.0395344924 RMS(Int)=    2.5812570353
done
Storing new coordinates                 .... done

                                .--------------------.
          ----------------------|Geometry convergence|-------------------------
          Item                value                   Tolerance       Converged
          ---------------------------------------------------------------------
          RMS gradient        0.0125543573            0.0001000000      NO
          MAX gradient        0.0564192417            0.0003000000      NO
          RMS step            0.0169186354            0.0020000000      NO
          MAX step            0.0631538259            0.0040000000      NO
          -------------------------------------------------------------------------
          ........................................................
          Max(Bonds)      0.0334      Max(Angles)    1.66
          Max(Dihed)        0.18      Max(Improp)    0.00
          ---------------------------------------------------------------------

The optimization has not yet converged - more geometry cycles are needed


    ---------------------------------------------------------------------------
                         Redundant Internal Coordinates
                            (Angstroem and degrees)

        Definition                    Value    dE/dq     Step     New-Value
    ----------------------------------------------------------------------------
     1. B(C   1,C   0)                1.3966 -0.005819  0.0054    1.4020   
     2. B(C   2,C   1)                1.4034 -0.006169  0.0060    1.4094   
     3. B(C   3,C   2)                1.4054  0.013235 -0.0116    1.3938   
     4. B(C   4,C   3)                1.4024  0.019864 -0.0176    1.3848   
     5. B(C   5,C   4)                1.4013  0.003325 -0.0033    1.3980   
     6. B(C   5,C   0)                1.3969  0.012670 -0.0107    1.3862   
     7. B(O   6,C   1)                1.3676  0.038762 -0.0328    1.3348   
     8. B(N   7,C   2)                1.4659  0.008130 -0.0095    1.4564   
     9. B(O   8,N   7)                1.2411  0.034735 -0.0209    1.2202   
    10. B(O   9,N   7)                1.2375  0.056419 -0.0334    1.2041   
    11. B(N  10,C   4)                1.4698  0.008681 -0.0106    1.4592   
    12. B(O  11,N  10)                1.2382  0.047750 -0.0283    1.2098   
    13. B(O  12,N  10)                1.2383  0.048130 -0.0286    1.2097   
    14. B(H  13,C   0)                1.0890  0.000424 -0.0006    1.0884   
    15. B(H  14,C   3)                1.0895 -0.000001  0.0000    1.0895   
    16. B(H  15,C   5)                1.0891 -0.000089  0.0001    1.0892   
    17. B(H  16,O   8)                1.7835 -0.000443  0.0016    1.7852   
    18. B(H  16,O   6)                0.9813  0.005523 -0.0061    0.9751   
    19. A(C   1,C   0,H  13)          119.73  0.003899   -0.66    119.06   
    20. A(C   1,C   0,C   5)          120.45  0.000127    0.09    120.53   
    21. A(C   5,C   0,H  13)          119.83 -0.004026    0.57    120.40   
    22. A(C   0,C   1,O   6)          114.88 -0.010681    1.25    116.13   
    23. A(C   0,C   1,C   2)          119.80  0.008236   -0.96    118.84   
    24. A(C   2,C   1,O   6)          125.32  0.002445   -0.29    125.02   
    25. A(C   3,C   2,N   7)          118.79  0.007369   -1.10    117.68   
    26. A(C   1,C   2,N   7)          120.88 -0.002687    0.47    121.35   
    27. A(C   1,C   2,C   3)          120.33 -0.004683    0.63    120.96   
    28. A(C   2,C   3,C   4)          119.13  0.002430   -0.40    118.73   
    29. A(C   4,C   3,H  14)          120.28 -0.002060    0.33    120.61   
    30. A(C   2,C   3,H  14)          120.59 -0.000370    0.07    120.66   
    31. A(C   5,C   4,N  10)          119.57  0.001068   -0.06    119.51   
    32. A(C   3,C   4,N  10)          119.73  0.006378   -0.80    118.94   
    33. A(C   3,C   4,C   5)          120.69 -0.007446    0.86    121.55   
    34. A(C   0,C   5,H  15)          118.97 -0.005528    0.87    119.84   
    35. A(C   4,C   5,H  15)          121.42  0.004192   -0.65    120.78   
    36. A(C   0,C   5,C   4)          119.60  0.001336   -0.22    119.38   
    37. A(C   1,O   6,H  16)          110.41  0.011400   -1.66    108.75   
    38. A(O   8,N   7,O   9)          124.62  0.004950   -0.62    124.00   
    39. A(C   2,N   7,O   9)          117.99  0.000293   -0.10    117.90   
    40. A(C   2,N   7,O   8)          117.39 -0.005242    0.72    118.11   
    41. A(O  11,N  10,O  12)          124.78 -0.003432    0.41    125.19   
    42. A(C   4,N  10,O  12)          117.70  0.002672   -0.33    117.36   
    43. A(C   4,N  10,O  11)          117.52  0.000760   -0.08    117.44   
    44. D(C   2,C   1,C   0,C   5)      0.00  0.000024   -0.03     -0.03   
    45. D(O   6,C   1,C   0,H  13)      0.00  0.000065   -0.09     -0.09   
    46. D(O   6,C   1,C   0,C   5)    180.00  0.000033   -0.05    179.95   
    47. D(C   2,C   1,C   0,H  13)   -180.00  0.000056   -0.08   -180.08   
    48. D(C   3,C   2,C   1,O   6)    180.00 -0.000044    0.06    180.06   
    49. D(N   7,C   2,C   1,C   0)    180.00 -0.000020    0.03    180.03   
    50. D(C   3,C   2,C   1,C   0)     -0.00 -0.000034    0.05      0.05   
    51. D(N   7,C   2,C   1,O   6)     -0.00 -0.000030    0.04      0.04   
    52. D(H  14,C   3,C   2,N   7)      0.00  0.000025   -0.03     -0.03   
    53. D(H  14,C   3,C   2,C   1)   -180.00  0.000038   -0.05   -180.05   
    54. D(C   4,C   3,C   2,N   7)   -180.00  0.000010   -0.01   -180.01   
    55. D(C   4,C   3,C   2,C   1)      0.00  0.000024   -0.03     -0.03   
    56. D(C   5,C   4,C   3,H  14)   -180.00 -0.000018    0.02   -179.98   
    57. D(N  10,C   4,C   3,C   2)    180.00 -0.000025    0.04    180.04   
    58. D(C   5,C   4,C   3,C   2)     -0.00 -0.000004    0.00      0.00   
    59. D(N  10,C   4,C   3,H  14)     -0.00 -0.000039    0.06      0.06   
    60. D(H  15,C   5,C   4,N  10)      0.00 -0.000088    0.12      0.12   
    61. D(C   0,C   5,C   4,N  10)   -180.00  0.000015   -0.02   -180.02   
    62. D(C   0,C   5,C   4,C   3)     -0.00 -0.000006    0.01      0.01   
[...]
     45       0.293665   0.222999  -0.006047   0.044414  -0.112589  -0.286592
     46      -0.418527  -0.166805   0.319864   0.069473   0.035577  -0.190438
     47      -0.076376  -0.032920   0.054799   0.011219   0.008367  -0.026964
     48      -0.123998  -0.370231   0.077578  -0.330442  -0.088650   0.001792
     49       0.068045   0.380149  -0.033127   0.288790   0.066036   0.003448
     50       0.011078   0.070582  -0.010122   0.055175   0.013381   0.000491
                 48         49         50    
      0      -0.007845   0.000304  -0.003476
      1       0.031075  -0.003358  -0.000397
      2       0.005307  -0.000555  -0.000019
      3      -0.001572   0.000318   0.007197
      4      -0.000534  -0.000295  -0.001436
      5      -0.000064  -0.000053  -0.000358
      6      -0.000039   0.003049   0.000637
      7      -0.000354  -0.002321   0.001672
      8      -0.000059  -0.000443   0.000272
      9      -0.000335  -0.006240  -0.000500
     10       0.001601   0.086856   0.000629
     11       0.000269   0.014579   0.000118
     12      -0.000026  -0.003222  -0.000141
     13      -0.003713  -0.002960   0.001345
     14      -0.000599  -0.000464   0.000228
     15       0.071032  -0.000847   0.001269
     16       0.044334  -0.000806  -0.001255
     17       0.006164  -0.000116  -0.000221
     18       0.000172  -0.000245   0.045462
     19      -0.000021  -0.000209   0.040679
     20       0.000005  -0.000019   0.005598
     21       0.000051  -0.000388  -0.007631
     22       0.000099   0.001031   0.001149
     23       0.000014   0.000190   0.000390
     24      -0.000022  -0.000096   0.005030
     25      -0.000026  -0.000054  -0.001784
     26      -0.000007  -0.000004  -0.000443
     27       0.000001   0.000750   0.001641
     28      -0.000028  -0.000138  -0.001454
     29      -0.000014  -0.000042  -0.000317
     30       0.000777   0.000283   0.000534
     31       0.000906   0.000988  -0.000245
     32       0.000138   0.000160  -0.000047
     33      -0.000164  -0.000606  -0.000117
     34      -0.000018  -0.000231   0.000197
     35       0.000001  -0.000029   0.000035
     36       0.000080   0.000061  -0.000153
     37      -0.000668  -0.000076  -0.000010
     38      -0.000095  -0.000014   0.000008
     39       0.036438  -0.003683   0.001781
     40      -0.335131   0.035995   0.003714
     41      -0.056285   0.006042   0.000614
     42       0.001511   0.075280  -0.002284
     43      -0.020927  -0.978777  -0.004177
     44      -0.003530  -0.164440  -0.000714
     45      -0.781397   0.007526  -0.001885
     46      -0.508787   0.004231  -0.000813
     47      -0.071863   0.000583  -0.000115
     48       0.001498   0.003588  -0.781559
     49       0.000159   0.002844  -0.615165
     50      -0.000003   0.000380  -0.082281


-----------
IR SPECTRUM
-----------

 Mode   freq       eps      Int      T**2         TX        TY        TZ
       cm**-1   L/(mol*cm) km/mol    a.u.
----------------------------------------------------------------------------
  6:     58.38   0.000039    0.19  0.000206  (-0.000199  0.001555 -0.014273)
  7:     77.53   0.000049    0.25  0.000198  (-0.000328 -0.002346  0.013888)
  8:    127.80   0.000578    2.92  0.001412  (-0.000671  0.006091 -0.037068)
  9:    163.19   0.000437    2.21  0.000836  (-0.000091 -0.004800  0.028514)
 10:    178.02   0.000854    4.31  0.001497  (-0.000289  0.038128  0.006543)
 11:    310.88   0.001037    5.24  0.001041  (-0.021441  0.023705  0.004348)
 12:    321.14   0.000041    0.20  0.000039  (-0.000854  0.001891 -0.005920)
 13:    360.61   0.000036    0.18  0.000031  ( 0.004787 -0.002758 -0.000472)
 14:    372.39   0.001209    6.11  0.001013  ( 0.013573 -0.028333 -0.005137)
 15:    444.31   0.000444    2.24  0.000312  (-0.015368  0.008405  0.002179)
 16:    447.59   0.000057    0.29  0.000039  (-0.003692  0.002869 -0.004191)
 17:    538.72   0.001893    9.56  0.001096  (-0.000776 -0.008521  0.031987)
 18:    542.78   0.000408    2.06  0.000234  (-0.006636 -0.010629 -0.008793)
 19:    598.94   0.001433    7.24  0.000747  (-0.014668  0.022689  0.004088)
 20:    658.39   0.002466   12.46  0.001169  (-0.020877  0.026634  0.004875)
 21:    702.97   0.002505   12.66  0.001112  (-0.001574  0.006105 -0.032744)
 22:    751.25   0.009315   47.08  0.003869  ( 0.061772  0.007310  0.000529)
 23:    763.30   0.000360    1.82  0.000147  ( 0.001072 -0.001795  0.011949)
 24:    770.49   0.022981  116.14  0.009308  (-0.002198  0.015661 -0.095173)
 25:    791.48   0.004646   23.48  0.001832  (-0.001574  0.007543 -0.042099)
 26:    858.02   0.000529    2.67  0.000192  (-0.013423 -0.003508 -0.000028)
 27:    874.75   0.003719   18.79  0.001327  (-0.001034  0.006597 -0.035807)
 28:    898.58   0.005737   28.99  0.001992  (-0.009173  0.042879  0.008339)
 29:    969.59   0.002059   10.41  0.000663  (-0.005459 -0.004911  0.024675)
 30:    973.56   0.005230   26.43  0.001676  (-0.040192 -0.005650 -0.005398)
 31:   1024.92   0.000057    0.29  0.000017  (-0.000788  0.000464 -0.004064)
 32:   1085.73   0.014557   73.57  0.004184  ( 0.063929  0.009855 -0.000082)
 33:   1130.64   0.002982   15.07  0.000823  (-0.017343 -0.022568 -0.003616)
 34:   1172.33   0.021865  110.50  0.005820  ( 0.051646 -0.055191 -0.010344)
 35:   1231.58   0.002629   13.28  0.000666  (-0.025785  0.000892  0.000652)
 36:   1318.82   0.028248  142.75  0.006684  ( 0.060035 -0.054541 -0.010251)
 37:   1364.16   0.006282   31.75  0.001437  (-0.007254  0.036688  0.006203)
 38:   1424.72   0.019408   98.08  0.004251  (-0.064621  0.008319  0.002460)
 39:   1478.04   0.016381   82.78  0.003459  (-0.047223 -0.034713 -0.004860)
 40:   1504.09   0.066307  335.09  0.013757  (-0.116635  0.011855  0.003608)
 41:   1512.28   0.042212  213.32  0.008711  (-0.034501  0.085385  0.015154)
 42:   1575.45   0.029651  149.85  0.005873  ( 0.076223 -0.007635 -0.002255)
 43:   1678.26   0.007307   36.92  0.001359  (-0.031623  0.018517  0.003967)
 44:   1702.92   0.014795   74.77  0.002711  ( 0.049641  0.015454  0.002862)
 45:   1790.29   0.044371  224.24  0.007734  ( 0.074190 -0.045981 -0.010771)
 46:   1795.08   0.084793  428.51  0.014741  (-0.019593 -0.118374 -0.018561)
 47:   3253.96   0.000280    1.42  0.000027  (-0.002679  0.004379  0.000713)
 48:   3268.41   0.002455   12.41  0.000234  (-0.012300 -0.009008 -0.001390)
 49:   3276.21   0.006547   33.08  0.000624  ( 0.001889 -0.024545 -0.004192)
 50:   3518.95   0.080724  407.94  0.007159  (-0.069897 -0.047218 -0.006598)

* The epsilon (eps) is given for a Dirac delta lineshape.
** The dipole moment derivative (T) already includes vibrational overlap.

The first frequency considered to be a vibration is 6
The total number of vibrations considered is 45


--------------------------
THERMOCHEMISTRY AT 298.15K
--------------------------

Temperature         ...   298.15 K
Pressure            ...     1.00 atm
Total Mass          ...   184.11 AMU
Quasi RRHO          ...     True
Cut-Off Frequency   ...     1.00 cm^-1

Throughout the following assumptions are being made:
  (1) The electronic state is orbitally nondegenerate
  (2) There are no thermally accessible electronically excited states
  (3) Hindered rotations indicated by low frequency modes are not
      treated as such but are treated as vibrations and this may
      cause some error
  (4) All equations used are the standard statistical mechanics
      equations for an ideal gas
  (5) All vibrations are strictly harmonic

freq.      58.38  E(vib)   ...       0.51 
freq.      77.53  E(vib)   ...       0.49 
freq.     127.80  E(vib)   ...       0.43 
freq.     163.19  E(vib)   ...       0.39 
freq.     178.02  E(vib)   ...       0.37 
freq.     310.88  E(vib)   ...       0.26 
freq.     321.14  E(vib)   ...       0.25 
freq.     360.61  E(vib)   ...       0.22 
freq.     372.39  E(vib)   ...       0.21 
freq.     444.31  E(vib)   ...       0.17 
freq.     447.59  E(vib)   ...       0.17 
freq.     538.72  E(vib)   ...       0.12 
freq.     542.78  E(vib)   ...       0.12 
freq.     598.94  E(vib)   ...       0.10 
freq.     658.39  E(vib)   ...       0.08 
freq.     702.97  E(vib)   ...       0.07 
freq.     751.25  E(vib)   ...       0.06 
freq.     763.30  E(vib)   ...       0.06 
freq.     770.49  E(vib)   ...       0.05 
freq.     791.48  E(vib)   ...       0.05 
freq.     858.02  E(vib)   ...       0.04 
freq.     874.75  E(vib)   ...       0.04 
freq.     898.58  E(vib)   ...       0.03 
freq.     969.59  E(vib)   ...       0.03 
freq.     973.56  E(vib)   ...       0.03 
freq.    1024.92  E(vib)   ...       0.02 
freq.    1085.73  E(vib)   ...       0.02 
freq.    1130.64  E(vib)   ...       0.01 
freq.    1172.33  E(vib)   ...       0.01 
freq.    1231.58  E(vib)   ...       0.01 
freq.    1318.82  E(vib)   ...       0.01 
freq.    1364.16  E(vib)   ...       0.01 
freq.    1424.72  E(vib)   ...       0.00 
freq.    1478.04  E(vib)   ...       0.00 
freq.    1504.09  E(vib)   ...       0.00 
freq.    1512.28  E(vib)   ...       0.00 
freq.    1575.45  E(vib)   ...       0.00 
freq.    1678.26  E(vib)   ...       0.00 
freq.    1702.92  E(vib)   ...       0.00 
freq.    1790.29  E(vib)   ...       0.00 
freq.    1795.08  E(vib)   ...       0.00 
freq.    3253.96  E(vib)   ...       0.00 
freq.    3268.41  E(vib)   ...       0.00 
freq.    3276.21  E(vib)   ...       0.00 
freq.    3518.95  E(vib)   ...       0.00 

------------
INNER ENERGY
------------

The inner energy is: U= E(el) + E(ZPE) + E(vib) + E(rot) + E(trans)
    E(el)   - is the total energy from the electronic structure calculation
              = E(kin-el) + E(nuc-el) + E(el-el) + E(nuc-nuc)
    E(ZPE)  - the the zero temperature vibrational energy from the frequency calculation
    E(vib)  - the the finite temperature correction to E(ZPE) due to population
              of excited vibrational states
    E(rot)  - is the rotational thermal energy
    E(trans)- is the translational thermal energy

Summary of contributions to the inner energy U:
Electronic energy                ...   -715.66038139 Eh
Zero point energy                ...      0.11313719 Eh      70.99 kcal/mol
Thermal vibrational correction   ...      0.00708987 Eh       4.45 kcal/mol
Thermal rotational correction    ...      0.00141627 Eh       0.89 kcal/mol
Thermal translational correction ...      0.00141627 Eh       0.89 kcal/mol
-----------------------------------------------------------------------
Total thermal energy                   -715.53732179 Eh


Summary of corrections to the electronic energy:
(perhaps to be used in another calculation)
Total thermal correction                  0.00992241 Eh       6.23 kcal/mol
Non-thermal (ZPE) correction              0.11313719 Eh      70.99 kcal/mol
-----------------------------------------------------------------------
Total correction                          0.12305960 Eh      77.22 kcal/mol


--------
ENTHALPY
--------

The enthalpy is H = U + kB*T
                kB is Boltzmann's constant
Total thermal energy              ...   -715.53732179 Eh 
Thermal Enthalpy correction       ...      0.00094421 Eh       0.59 kcal/mol
-----------------------------------------------------------------------
Total Enthalpy                    ...   -715.53637758 Eh


Note: Only C1 symmetry has been detected, increase convergence thresholds 
      if your molecule has a higher symmetry. Symmetry factor of 1.0 is   
      used for the rotational entropy correction. 
 

Note: Rotational entropy computed according to Herzberg 
Infrared and Raman Spectra, Chapter V,1, Van Nostrand Reinhold, 1945 
Point Group:  C1, Symmetry Number:   1  
Rotational constants in cm-1:     0.051451     0.018532     0.013625 

Vibrational entropy computed according to the QRRHO of S. Grimme
Chem.Eur.J. 2012 18 9955 using a reference frequency of 100.0 cm-1


-------
ENTROPY
-------

The entropy contributions are T*S = T*(S(el)+S(vib)+S(rot)+S(trans))
     S(el)   - electronic entropy
     S(vib)  - vibrational entropy
     S(rot)  - rotational entropy
     S(trans)- translational entropy
The entropies will be listed as multiplied by the temperature to get
units of energy

Electronic entropy                ...      0.00000000 Eh      0.00 kcal/mol
Vibrational entropy               ...      0.01202168 Eh      7.54 kcal/mol
Rotational entropy                ...      0.01482239 Eh      9.30 kcal/mol
Translational entropy             ...      0.01973566 Eh     12.38 kcal/mol
-----------------------------------------------------------------------
Final entropy term                ...      0.04657973 Eh     29.23 kcal/mol

In case the symmetry of your molecule has not been determined correctly
or in case you have a reason to use a different symmetry number we print 
out the resulting rotational entropy values for sn=1,12:

 non-linear molecules -----------------------------------
|  sn= 1 | S(rot)=       0.01482239 Eh      9.30 kcal/mol|
|  sn= 2 | S(rot)=       0.01416794 Eh      8.89 kcal/mol|
|  sn= 3 | S(rot)=       0.01378510 Eh      8.65 kcal/mol|
|  sn= 4 | S(rot)=       0.01351348 Eh      8.48 kcal/mol|
|  sn= 5 | S(rot)=       0.01330279 Eh      8.35 kcal/mol|
|  sn= 6 | S(rot)=       0.01313065 Eh      8.24 kcal/mol|
|  sn= 7 | S(rot)=       0.01298510 Eh      8.15 kcal/mol|
|  sn= 8 | S(rot)=       0.01285902 Eh      8.07 kcal/mol|
|  sn= 9 | S(rot)=       0.01274781 Eh      8.00 kcal/mol|
|  sn=10 | S(rot)=       0.01264834 Eh      7.94 kcal/mol|
|  sn=11 | S(rot)=       0.01255835 Eh      7.88 kcal/mol|
|  sn=12 | S(rot)=       0.01247619 Eh      7.83 kcal/mol|
 linear molecules ---------------------------------------
|  Dinfh | S(rot)=       0.00938185 Eh      5.89 kcal/mol|
|  Cinfv | S(rot)=       0.01003631 Eh      6.30 kcal/mol|
 --------------------------------------------------------


-------------------
GIBBS FREE ENERGY
-------------------

The Gibbs free energy is G = H - T*S

Total enthalpy                    ...   -715.53637758 Eh 
Total entropy correction          ...     -0.04657973 Eh    -29.23 kcal/mol
-----------------------------------------------------------------------
Final Gibbs free energy         ...   -715.58295731 Eh

For completeness - the Gibbs free energy minus the electronic energy
G-E(el)                           ...      0.07742408 Eh     48.58 kcal/mol


Maximum memory used throughout the entire PROP-calculation: 59.2 MB

--------------------------------
SUGGESTED CITATIONS FOR THIS RUN
--------------------------------

Below you find a list of papers that are relevant to this ORCA run
We neither can nor want to force you to cite these papers, but we appreciate if you do
You receive ORCA, which is the product of decades of hard work by many enthusiastic individuals, for free
The only thing we kindly ask in return is that you cite our papers,
We deeply appreciate it, if you show your appreciation for ORCA by not just citing the generic ORCA reference.

Please note that relegating all ORCA citations to the supporting information does *not* help us.
SI sections are not indexed - citations you put there will not count into any citation statistics
But we need these citations in order to attract the funding resources that allow us to do what we are doing

Therefore, if you are a happy ORCA user, please consider citing a few of the papers listed below in the main body of your paper

In addition to the list printed below, the program has created the file /lustre/project/xlzhang/jingyi/chemsmart/test_pka/orca/pka_scale_frag4_pka_HA_opt.bibtex that contains the list in bibtex format
You can import this file easily into all common literature databanks and citation aid programs


List of essential papers. We consider these as the minimum necessary citations

  1. Neese, F.
     Software update: the ORCA program system, version 6.0
     WIRES Comput. Molec. Sci. 2025 15(1), e70019
     doi.org/10.1002/wcms.7019

List of papers to cite with high priority. The work reported in these papers was absolutely
necessary for this run to complete.
Our perspective: the developers of density functionals and basis sets usually get cited in chemistry papers
Good! But without the algorithms to do something with them, the functionals or basis sets would not do anything.
Hence, in our opinion, the algorithm design and method developments papers are equally worthy of getting cited

  1. Neese, F.
     An improvement of the resolution of the identity approximation for the formation of the Coulomb matrix
     J. Comp. Chem. 2003 24(14), 1740-1747
     doi.org/10.1002/jcc.10318
  2. Neese, F.; Wennmohs, F.; Hansen, A.; Becker, U.
     Efficient, approximate and parallel Hartree-Fock and hybrid DFT calculations. A 'chain-of-spheres' algorithm for the Hartree-Fock exchange
     Chem. Phys. 2009 356(1-3), 98-109
     doi.org/10.1016/j.chemphys.2008.10.036
  3. Bykov, D.; Petrenko, T.; Izsak, R.; Kossmann, S.; Becker, U.; Valeev, E.; Neese, F.
     Efficient implementation of the analytic second derivatives of Hartree-Fock and hybrid DFT energies: a detailed analysis of different approximations
     Molec. Phys. 2015 113 , 1961-1977
     doi.org/10.1080/00268976.2015.1025114
  4. Helmich-Paris, B.; de Souza, B.; Neese, F.; Izsák, R.
     An improved chain of spheres for exchange algorithm
     J. Chem. Phys. 2021 155(10), 104109
     doi.org/10.1063/5.0058766
  5. Neese, F.
     The SHARK Integral Generation and Digestion System
     J. Comp. Chem. 2022 44(3), 381
     doi.org/10.1002/jcc.26942

List of suggested additional citations. These are papers that are important in the 'surrounding' of 
of this run, or papers that preceded the highly important papers. If you like your results we are grateful for a citation.

  1. Izsak, R.; Neese, F.
     An overlap fitted chain of spheres exchange method
     J. Chem. Phys. 2011 135 , 144105
     doi.org/10.1063/1.3646921
  2. Izsak, R.; Hansen, A.; Neese, F.
     The resolution of identity and chain of spheres approximations for the LPNO-CCSD singles Fock term
     Molec. Phys. 2012 110 , 2413-2417
     doi.org/10.1080/00268976.2012.687466
  3. Neese, F.
     The ORCA program system
     WIRES Comput. Molec. Sci. 2012 2(1), 73-78
     doi.org/10.1002/wcms.81
  4. Izsak, R.; Neese, F.; Klopper, W.
     Robust fitting techniques in the chain of spheres approximation to the Fock exchange: The role of the complementary space
     J. Chem. Phys. 2013 139 , 
     doi.org/10.1063/1.4819264
  5. Neese, F.
     Software update: the ORCA program system, version 4.0
     WIRES Comput. Molec. Sci. 2018 8(1), 1-6
     doi.org/10.1002/wcms.1327
  6. Neese, F.; Wennmohs, F.; Becker, U.; Riplinger, C.
     The ORCA quantum chemistry program package
     J. Chem. Phys. 2020 152(22), 224108
     doi.org/10.1063/5.0004608
  7. Neese, F.
     Software update: The ORCA program system—Version 5.0
     WIRES Comput. Molec. Sci. 2022 12(1), e1606
     doi.org/10.1002/wcms.1606

List of optional additional citations

  1. Neese, F.
     Approximate second-order SCF convergence for spin unrestricted wavefunctions
     Chem. Phys. Lett. 2000 325(1-3), 93-98
     doi.org/10.1016/s0009-2614(00)00662-x

Timings for individual modules:

Sum of individual times          ...      384.251 sec (=   6.404 min)
Startup calculation              ...       60.440 sec (=   1.007 min)  15.7 %
SCF iterations                   ...      209.234 sec (=   3.487 min)  54.5 %
Property integrals               ...       37.759 sec (=   0.629 min)   9.8 %
SCF Response                     ...       25.883 sec (=   0.431 min)   6.7 %
Property calculations            ...       14.284 sec (=   0.238 min)   3.7 %
SCF Gradient evaluation          ...       36.561 sec (=   0.609 min)   9.5 %
Geometry relaxation              ...        0.091 sec (=   0.002 min)   0.0 %
                             ****ORCA TERMINATED NORMALLY****
TOTAL RUN TIME: 0 days 0 hours 7 minutes 40 seconds 331 msec
