 Entering Gaussian System, Link 0=/project/xlzhang/shared/bin/g16/g16
 Input=/lustre/project/xlzhang/jingyi/chemsmart/test_pka/gaussian/pka_scale_frag4_pka_HA_sp.com
 Output=/lustre/project/xlzhang/jingyi/chemsmart/test_pka/gaussian/pka_scale_frag4_pka_HA_sp.log
 Initial command:
 /project/xlzhang/shared/bin/g16/l1.exe "/lustre/project/xlzhang/jingyi/chemsmart/test_pka/gaussian/Gau-767708.inp" -scrdir="/lustre/project/xlzhang/jingyi/chemsmart/test_pka/gaussian/"
 Entering Link 1 = /project/xlzhang/shared/bin/g16/l1.exe PID=    767709.
  
 Copyright (c) 1988-2017, Gaussian, Inc.  All Rights Reserved.
  
 This is part of the Gaussian(R) 16 program.  It is based on
 the Gaussian(R) 09 system (copyright 2009, Gaussian, Inc.),
 the Gaussian(R) 03 system (copyright 2003, Gaussian, Inc.),
 the Gaussian(R) 98 system (copyright 1998, Gaussian, Inc.),
 the Gaussian(R) 94 system (copyright 1995, Gaussian, Inc.),
 the Gaussian 92(TM) system (copyright 1992, Gaussian, Inc.),
 the Gaussian 90(TM) system (copyright 1990, Gaussian, Inc.),
 the Gaussian 88(TM) system (copyright 1988, Gaussian, Inc.),
 the Gaussian 86(TM) system (copyright 1986, Carnegie Mellon
 University), and the Gaussian 82(TM) system (copyright 1983,
 Carnegie Mellon University). Gaussian is a federally registered
 trademark of Gaussian, Inc.
  
 This software contains proprietary and confidential information,
 including trade secrets, belonging to Gaussian, Inc.
  
 This software is provided under written license and may be
 used, copied, transmitted, or stored only in accord with that
 written license.
  
 The following legend is applicable only to US Government
 contracts under FAR:
  
                    RESTRICTED RIGHTS LEGEND
  
 Use, reproduction and disclosure by the US Government is
 subject to restrictions as set forth in subparagraphs (a)
 and (c) of the Commercial Computer Software - Restricted
 Rights clause in FAR 52.227-19.
  
 Gaussian, Inc.
 340 Quinnipiac St., Bldg. 40, Wallingford CT 06492
  
  
 ---------------------------------------------------------------
 Warning -- This program may not be used in any manner that
 competes with the business of Gaussian, Inc. or will provide
 assistance to any competitor of Gaussian, Inc.  The licensee
 of this program is prohibited from giving any competitor of
 Gaussian, Inc. access to this program.  By using this program,
 the user acknowledges that Gaussian, Inc. is engaged in the
 business of creating and licensing software in the field of
 computational chemistry and represents and warrants to the
 licensee that it is not a competitor of Gaussian, Inc. and that
 it will not use this program in any manner prohibited above.
 ---------------------------------------------------------------
  

 Cite this work as:
 Gaussian 16, Revision B.01,
 M. J. Frisch, G. W. Trucks, H. B. Schlegel, G. E. Scuseria, 
 M. A. Robb, J. R. Cheeseman, G. Scalmani, V. Barone, 
 G. A. Petersson, H. Nakatsuji, X. Li, M. Caricato, A. V. Marenich, 
 J. Bloino, B. G. Janesko, R. Gomperts, B. Mennucci, H. P. Hratchian, 
 J. V. Ortiz, A. F. Izmaylov, J. L. Sonnenberg, D. Williams-Young, 
 F. Ding, F. Lipparini, F. Egidi, J. Goings, B. Peng, A. Petrone, 
 T. Henderson, D. Ranasinghe, V. G. Zakrzewski, J. Gao, N. Rega, 
 G. Zheng, W. Liang, M. Hada, M. Ehara, K. Toyota, R. Fukuda, 
 J. Hasegawa, M. Ishida, T. Nakajima, Y. Honda, O. Kitao, H. Nakai, 
 T. Vreven, K. Throssell, J. A. Montgomery, Jr., J. E. Peralta, 
 F. Ogliaro, M. J. Bearpark, J. J. Heyd, E. N. Brothers, K. N. Kudin, 
 V. N. Staroverov, T. A. Keith, R. Kobayashi, J. Normand, 
 K. Raghavachari, A. P. Rendell, J. C. Burant, S. S. Iyengar, 
 J. Tomasi, M. Cossi, J. M. Millam, M. Klene, C. Adamo, R. Cammi, 
 J. W. Ochterski, R. L. Martin, K. Morokuma, O. Farkas, 
 J. B. Foresman, and D. J. Fox, Gaussian, Inc., Wallingford CT, 2016.
 
 ******************************************
 Gaussian 16:  ES64L-G16RevB.01 20-Dec-2017
                10-Jun-2026 
 ******************************************
 %chk=pka_scale_frag4_pka_HA_sp.chk
 %nprocshared=64
 Will use up to   64 processors via shared memory.
 %mem=180GB
 -------------------------------------------------
 # mn15 def2svp scrf=(smd,solvent=TetraHydroFuran)
 -------------------------------------------------
 1/38=1,172=1/1;
 2/12=2,17=6,18=5,40=1/2;
 3/5=43,7=101,11=2,25=1,30=1,70=32201,72=20,74=-73/1,2,3;
 4//1;
 5/5=2,38=5,53=20/2;
 6/7=2,8=2,9=2,10=2,28=1/1;
 99/5=1,9=1/99;
 ----------------------------
 Gaussian pKa calculation job
 ----------------------------
 Symbolic Z-matrix:
 Charge =  0 Multiplicity = 1
 C                     0.05574   2.06819   0.00004 
 C                     1.19565   1.23418   0. 
 C                     0.97566  -0.16711   0.00024 
 C                    -0.3078   -0.71451   0.0005 
 C                    -1.38708   0.14661   0.00054 
 C                    -1.2198    1.53888   0.0003 
 O                     2.38733   1.79785  -0.00024 
 N                     2.10013  -1.09183   0.00022 
 O                     3.23346  -0.60488  -0.00054 
 O                     1.87892  -2.27804   0.00003 
 N                    -2.74311  -0.41466   0.00082 
 O                    -2.84531  -1.6248   -0.0006 
 O                    -3.66782   0.37388  -0.00085 
 H                     0.22806   3.14528  -0.00014 
 H                    -0.44806  -1.79533   0.00068 
 H                    -2.10603   2.17407   0.00033 
 H                     3.06      1.072    -0.00025 
 
                          Input orientation:                          
 ---------------------------------------------------------------------
 Center     Atomic      Atomic             Coordinates (Angstroms)
 Number     Number       Type             X           Y           Z
 ---------------------------------------------------------------------
      1          6           0        0.055739    2.068187    0.000043
      2          6           0        1.195650    1.234176    0.000004
      3          6           0        0.975659   -0.167113    0.000241
      4          6           0       -0.307795   -0.714513    0.000500
      5          6           0       -1.387075    0.146609    0.000539
      6          6           0       -1.219804    1.538876    0.000297
      7          8           0        2.387332    1.797850   -0.000244
      8          7           0        2.100125   -1.091826    0.000219
      9          8           0        3.233463   -0.604884   -0.000537
     10          8           0        1.878923   -2.278041    0.000026
     11          7           0       -2.743111   -0.414662    0.000823
     12          8           0       -2.845313   -1.624800   -0.000602
     13          8           0       -3.667819    0.373883   -0.000851
     14          1           0        0.228060    3.145284   -0.000138
     15          1           0       -0.448059   -1.795329    0.000681
     16          1           0       -2.106030    2.174068    0.000326
     17          1           0        3.059996    1.071996   -0.000254
 ---------------------------------------------------------------------
                    Distance matrix (angstroms):
                    1          2          3          4          5
     1  C    0.000000
     2  C    1.412435   0.000000
     3  C    2.417192   1.418452   0.000000
     4  C    2.806346   2.461247   1.395314   0.000000
     5  C    2.402951   2.802369   2.383471   1.380716   0.000000
     6  C    1.381007   2.434597   2.780370   2.430951   1.402279
     7  O    2.347213   1.318269   2.419484   3.684519   4.119799
     8  N    3.763668   2.495668   1.455856   2.437303   3.700579
     9  O    4.152498   2.744963   2.299853   3.542955   4.681251
    10  O    4.713141   3.578062   2.296062   2.688188   4.067637
    11  N    3.741404   4.269954   3.727000   2.453706   1.467603
    12  O    4.696196   4.950063   4.089582   2.695853   2.294417
    13  O    4.090911   4.938971   4.674887   3.531907   2.292040
    14  H    1.090794   2.142093   3.395715   3.896816   3.405982
    15  H    3.896225   3.446691   2.162882   1.089879   2.157052
    16  H    2.164360   3.432854   3.870134   3.402580   2.151159
    17  H    3.165116   1.871387   2.424841   3.812300   4.542332
                    6          7          8          9         10
     6  C    0.000000
     7  O    3.616421   0.000000
     8  N    4.235861   2.903914   0.000000
     9  O    4.942398   2.547365   1.233519   0.000000
    10  O    4.916398   4.107477   1.206663   2.152727   0.000000
    11  N    2.477252   5.587187   4.890346   5.979601   4.983511
    12  O    3.556842   6.252608   4.974075   6.163745   4.769185
    13  O    2.711086   6.220332   5.951259   6.970343   6.148093
    14  H    2.162604   2.545198   4.632249   4.805851   5.669021
    15  H    3.422355   4.577158   2.643513   3.869207   2.376522
    16  H    1.090351   4.509084   5.325205   6.019365   5.975042
    17  H    4.305191   0.989617   2.367167   1.685828   3.552138
                   11         12         13         14         15
    11  N    0.000000
    12  O    1.214447   0.000000
    13  O    1.215274   2.161307   0.000000
    14  H    4.636925   5.674445   4.781060   0.000000
    15  H    2.678340   2.403312   3.882311   4.986662   0.000000
    16  H    2.665970   3.870134   2.383244   2.528090   4.301742
    17  H    5.990509   6.491948   6.763938   3.509756   4.530784
                   16         17
    16  H    0.000000
    17  H    5.282271   0.000000
 Stoichiometry    C6H4N2O5
 Framework group  C1[X(C6H4N2O5)]
 Deg. of freedom    45
 Full point group                 C1      NOp   1
 Largest Abelian subgroup         C1      NOp   1
 Largest concise Abelian subgroup C1      NOp   1
                         Standard orientation:                         
 ---------------------------------------------------------------------
 Center     Atomic      Atomic             Coordinates (Angstroms)
 Number     Number       Type             X           Y           Z
 ---------------------------------------------------------------------
      1          6           0        0.055739    2.068187    0.000043
      2          6           0        1.195650    1.234176    0.000004
      3          6           0        0.975659   -0.167113    0.000241
      4          6           0       -0.307795   -0.714513    0.000500
      5          6           0       -1.387075    0.146609    0.000539
      6          6           0       -1.219804    1.538876    0.000297
      7          8           0        2.387332    1.797850   -0.000244
      8          7           0        2.100125   -1.091826    0.000219
      9          8           0        3.233463   -0.604884   -0.000537
     10          8           0        1.878923   -2.278041    0.000026
     11          7           0       -2.743111   -0.414662    0.000823
     12          8           0       -2.845313   -1.624800   -0.000602
     13          8           0       -3.667819    0.373883   -0.000851
     14          1           0        0.228060    3.145284   -0.000138
     15          1           0       -0.448059   -1.795329    0.000681
     16          1           0       -2.106030    2.174068    0.000326
     17          1           0        3.059996    1.071996   -0.000254
 ---------------------------------------------------------------------
 Rotational constants (GHZ):           1.5412986           0.5544402           0.4077597
 Standard basis: def2SVP (5D, 7F)
 There are   215 symmetry adapted cartesian basis functions of A   symmetry.
 There are   202 symmetry adapted basis functions of A   symmetry.
   202 basis functions,   353 primitive gaussians,   215 cartesian basis functions
    47 alpha electrons       47 beta electrons
       nuclear repulsion energy       782.3349041692 Hartrees.
 NAtoms=   17 NActive=   17 NUniq=   17 SFac= 1.00D+00 NAtFMM=   60 NAOKFM=F Big=F
 Integral buffers will be    131072 words long.
 Raffenetti 2 integral format.
 Two-electron integral symmetry is turned on.
 ------------------------------------------------------------------------------
 Polarizable Continuum Model (PCM)
 =================================
 Model                : PCM.
 Atomic radii         : SMD-Coulomb.
 Polarization charges : Total charges.
 Charge compensation  : None.
 Solution method      : On-the-fly selection.
 Cavity type          : VdW (van der Waals Surface) (Alpha=1.000).
 Cavity algorithm     : GePol (No added spheres)
                        Default sphere list used, NSphG=   17.
                        Lebedev-Laikov grids with approx.  5.0 points / Ang**2.
                        Smoothing algorithm: York/Karplus (Gamma=1.0000).
                        Polarization charges: spherical gaussians, with
                                              point-specific exponents (IZeta= 3).
                        Self-potential: point-specific (ISelfS= 7).
                        Self-field    : sphere-specific E.n sum rule (ISelfD= 2).
 Solvent              : TetraHydroFuran, Eps=   7.425700 Eps(inf)=   1.974025
 ------------------------------------------------------------------------------
 Spheres list:
 ISph  on   Nord     Re0    Alpha      Xe            Ye            Ze
    1   C      1    1.8500  1.000      0.055739      2.068187      0.000043
    2   C      2    1.8500  1.000      1.195650      1.234176      0.000004
    3   C      3    1.8500  1.000      0.975659     -0.167113      0.000241
    4   C      4    1.8500  1.000     -0.307795     -0.714513      0.000500
    5   C      5    1.8500  1.000     -1.387075      0.146609      0.000539
    6   C      6    1.8500  1.000     -1.219804      1.538876      0.000297
    7   O      7    2.2940  1.000      2.387332      1.797850     -0.000244
    8   N      8    1.8900  1.000      2.100125     -1.091826      0.000219
    9   O      9    2.2940  1.000      3.233463     -0.604884     -0.000537
   10   O     10    2.2940  1.000      1.878923     -2.278041      0.000026
   11   N     11    1.8900  1.000     -2.743111     -0.414662      0.000823
   12   O     12    2.2940  1.000     -2.845313     -1.624800     -0.000602
   13   O     13    2.2940  1.000     -3.667819      0.373883     -0.000851
   14   H     14    1.2000  1.000      0.228060      3.145284     -0.000138
   15   H     15    1.2000  1.000     -0.448059     -1.795329      0.000681
   16   H     16    1.2000  1.000     -2.106030      2.174068      0.000326
   17   H     17    1.2000  1.000      3.059996      1.071996     -0.000254
 ------------------------------------------------------------------------------
 ------------------------------------------------------------------------------
 Atomic radii for non-electrostatic terms: SMD-CDS.
 ------------------------------------------------------------------------------
 Nuclear repulsion after PCM non-electrostatic terms =      782.3304988573 Hartrees.
 One-electron integrals computed using PRISM.
   1 Symmetry operations used in ECPInt.
 ECPInt:  NShTT=    4095 NPrTT=   15757 LenC2=    3888 LenP2D=   11041.
 LDataN:  DoStor=T MaxTD1= 4 Len=   56
 NBasis=   202 RedAO= T EigKep=  2.17D-04  NBF=   202
 NBsUse=   202 1.00D-06 EigRej= -1.00D+00 NBFU=   202
 ExpMin= 1.22D-01 ExpMax= 2.27D+03 ExpMxC= 3.41D+02 IAcc=3 IRadAn=         5 AccDes= 0.00D+00
 Harris functional with IExCor= 1009 and IRadAn=       5 diagonalized for initial guess.
 HarFok:  IExCor= 1009 AccDes= 0.00D+00 IRadAn=         5 IDoV= 1 UseB2=F ITyADJ=14
 ICtDFT=  3500011 ScaDFX=  1.000000  1.000000  1.000000  1.000000
 FoFCou: FMM=F IPFlag=           0 FMFlag=      100000 FMFlg1=           0
         NFxFlg=           0 DoJE=T BraDBF=F KetDBF=T FulRan=T
         wScrn=  0.000000 ICntrl=       500 IOpCl=  0 I1Cent=   200000004 NGrid=           0
         NMat0=    1 NMatS0=      1 NMatT0=    0 NMatD0=    1 NMtDS0=    0 NMtDT0=    0
 Petite list used in FoFCou.
 Requested convergence on RMS density matrix=1.00D-08 within 128 cycles.
 Requested convergence on MAX density matrix=1.00D-06.
 Requested convergence on             energy=1.00D-06.
 No special actions if energy rises.
 Inv3:  Mode=1 IEnd=    10434675.
 Iteration    1 A*A^-1 deviation from unit magnitude is 7.55D-15 for   1863.
 Iteration    1 A*A^-1 deviation from orthogonality  is 3.46D-15 for   1863   1702.
 Iteration    1 A^-1*A deviation from unit magnitude is 7.55D-15 for   1863.
 Iteration    1 A^-1*A deviation from orthogonality  is 2.79D-15 for   1863   1702.
  Error on total polarization charges =  0.00875
 SCF Done:  E(RMN15) =  -715.132464248     A.U. after   15 cycles
            NFock= 15  Conv=0.68D-08     -V/T= 2.0090
 SMD-CDS (non-electrostatic) energy       (kcal/mol) =      -2.76
 (included in total energy above)

 **********************************************************************

            Population analysis using the SCF Density.

 **********************************************************************

 Orbital symmetries:
       Occupied  (A) (A) (A) (A) (A) (A) (A) (A) (A) (A) (A) (A)
                 (A) (A) (A) (A) (A) (A) (A) (A) (A) (A) (A) (A)
                 (A) (A) (A) (A) (A) (A) (A) (A) (A) (A) (A) (A)
                 (A) (A) (A) (A) (A) (A) (A) (A) (A) (A) (A)
       Virtual   (A) (A) (A) (A) (A) (A) (A) (A) (A) (A) (A) (A)
                 (A) (A) (A) (A) (A) (A) (A) (A) (A) (A) (A) (A)
                 (A) (A) (A) (A) (A) (A) (A) (A) (A) (A) (A) (A)
                 (A) (A) (A) (A) (A) (A) (A) (A) (A) (A) (A) (A)
                 (A) (A) (A) (A) (A) (A) (A) (A) (A) (A) (A) (A)
                 (A) (A) (A) (A) (A) (A) (A) (A) (A) (A) (A) (A)
                 (A) (A) (A) (A) (A) (A) (A) (A) (A) (A) (A) (A)
                 (A) (A) (A) (A) (A) (A) (A) (A) (A) (A) (A) (A)
                 (A) (A) (A) (A) (A) (A) (A) (A) (A) (A) (A) (A)
                 (A) (A) (A) (A) (A) (A) (A) (A) (A) (A) (A) (A)
                 (A) (A) (A) (A) (A) (A) (A) (A) (A) (A) (A) (A)
                 (A) (A) (A) (A) (A) (A) (A) (A) (A) (A) (A) (A)
                 (A) (A) (A) (A) (A) (A) (A) (A) (A) (A) (A)
 The electronic state is 1-A.
 Alpha  occ. eigenvalues --  -18.87317 -18.87303 -18.86990 -18.85368 -18.85340
 Alpha  occ. eigenvalues --  -14.37072 -14.35210 -10.17157 -10.13329 -10.12217
 Alpha  occ. eigenvalues --  -10.10768 -10.09962 -10.08348  -1.29450  -1.27652
 Alpha  occ. eigenvalues --   -1.13704  -1.11000  -1.10009  -0.95138  -0.88225
 Alpha  occ. eigenvalues --   -0.84368  -0.76905  -0.74514  -0.68519  -0.65847
 Alpha  occ. eigenvalues --   -0.62357  -0.62314  -0.60678  -0.60619  -0.58968
 Alpha  occ. eigenvalues --   -0.58241  -0.56697  -0.54843  -0.50581  -0.49978
 Alpha  occ. eigenvalues --   -0.48899  -0.46646  -0.43036  -0.42467  -0.38159
 Alpha  occ. eigenvalues --   -0.38075  -0.37396  -0.36587  -0.36286  -0.35468
 Alpha  occ. eigenvalues --   -0.33589  -0.30001
 Alpha virt. eigenvalues --   -0.08175  -0.06472   0.00281   0.03392   0.10398
 Alpha virt. eigenvalues --    0.14419   0.15166   0.17242   0.18094   0.19910
 Alpha virt. eigenvalues --    0.21220   0.25899   0.27945   0.28489   0.29467
 Alpha virt. eigenvalues --    0.29850   0.32146   0.33626   0.34800   0.38335
 Alpha virt. eigenvalues --    0.39099   0.42586   0.44730   0.45957   0.46683
 Alpha virt. eigenvalues --    0.48968   0.51585   0.52542   0.52810   0.52937
 Alpha virt. eigenvalues --    0.54325   0.57613   0.59612   0.61149   0.61776
 Alpha virt. eigenvalues --    0.65069   0.66561   0.67876   0.71154   0.71177
 Alpha virt. eigenvalues --    0.71944   0.72774   0.76017   0.77619   0.78777
 Alpha virt. eigenvalues --    0.81793   0.81922   0.83241   0.88174   0.89742
 Alpha virt. eigenvalues --    0.93302   0.94909   0.96163   0.96829   0.98919
 Alpha virt. eigenvalues --    0.99532   0.99738   1.01966   1.02512   1.03588
 Alpha virt. eigenvalues --    1.05184   1.06479   1.10884   1.16176   1.17724
 Alpha virt. eigenvalues --    1.18065   1.18680   1.21531   1.22045   1.24992
 Alpha virt. eigenvalues --    1.25196   1.31045   1.31647   1.32762   1.34763
 Alpha virt. eigenvalues --    1.37450   1.40052   1.40113   1.42371   1.48479
 Alpha virt. eigenvalues --    1.49103   1.50189   1.52003   1.54315   1.63985
 Alpha virt. eigenvalues --    1.65764   1.70599   1.70780   1.72051   1.72131
 Alpha virt. eigenvalues --    1.73362   1.75216   1.76677   1.77216   1.81583
 Alpha virt. eigenvalues --    1.82157   1.83427   1.88928   1.90092   1.97519
 Alpha virt. eigenvalues --    1.99306   2.01689   2.03571   2.08760   2.09575
 Alpha virt. eigenvalues --    2.14331   2.16700   2.18087   2.18141   2.21974
 Alpha virt. eigenvalues --    2.24287   2.28126   2.30260   2.32684   2.35368
 Alpha virt. eigenvalues --    2.36986   2.39098   2.40709   2.48410   2.50159
 Alpha virt. eigenvalues --    2.51070   2.53333   2.57938   2.59358   2.59965
 Alpha virt. eigenvalues --    2.61793   2.64094   2.66395   2.67339   2.68992
 Alpha virt. eigenvalues --    2.70598   2.74935   2.77261   2.79359   2.84485
 Alpha virt. eigenvalues --    2.86665   2.89420   2.95266   2.98484   3.00779
 Alpha virt. eigenvalues --    3.01702   3.13918   3.20219   3.22130   3.24275
 Alpha virt. eigenvalues --    3.25581   3.29924   3.36889   3.43696   3.48040
 Alpha virt. eigenvalues --    3.65773   3.70060   3.70596   3.72230   3.76823
          Condensed to atoms (all electrons):
               1          2          3          4          5          6
     1  C    5.323438   0.140569   0.119436  -0.156719   0.214799   0.103851
     2  C    0.140569   5.428399  -0.187357   0.114781  -0.262698   0.209935
     3  C    0.119436  -0.187357   5.907522   0.078960   0.238351  -0.211903
     4  C   -0.156719   0.114781   0.078960   5.483725   0.043891   0.079100
     5  C    0.214799  -0.262698   0.238351   0.043891   5.585684   0.092500
     6  C    0.103851   0.209935  -0.211903   0.079100   0.092500   5.299968
     7  O   -0.081847   0.534482  -0.107041   0.003385  -0.000248   0.004192
     8  N    0.005537  -0.051232   0.305244  -0.061691   0.009987  -0.000972
     9  O    0.001162  -0.011885  -0.070043   0.007075   0.000190  -0.000071
    10  O    0.000042   0.002818  -0.114117   0.017661   0.003620  -0.000022
    11  N    0.007942  -0.000887   0.008804  -0.074981   0.296512  -0.060425
    12  O    0.000065  -0.000026   0.003772   0.019629  -0.119996   0.005626
    13  O    0.002985  -0.000094   0.000141   0.006363  -0.117685   0.019084
    14  H    0.455569  -0.072731   0.025537  -0.003174   0.015363  -0.078021
    15  H   -0.004025   0.020133  -0.052468   0.432841  -0.064213   0.016254
    16  H   -0.066879   0.016542  -0.003943   0.018726  -0.072054   0.454019
    17  H    0.009421  -0.000268  -0.033044  -0.000324  -0.000194  -0.000173
               7          8          9         10         11         12
     1  C   -0.081847   0.005537   0.001162   0.000042   0.007942   0.000065
     2  C    0.534482  -0.051232  -0.011885   0.002818  -0.000887  -0.000026
     3  C   -0.107041   0.305244  -0.070043  -0.114117   0.008804   0.003772
     4  C    0.003385  -0.061691   0.007075   0.017661  -0.074981   0.019629
     5  C   -0.000248   0.009987   0.000190   0.003620   0.296512  -0.119996
     6  C    0.004192  -0.000972  -0.000071  -0.000022  -0.060425   0.005626
     7  O    7.479622  -0.001909  -0.033334  -0.000065   0.000000  -0.000000
     8  N   -0.001909   5.906101   0.285785   0.382174  -0.000000  -0.000001
     9  O   -0.033334   0.285785   8.149520  -0.098827   0.000000  -0.000000
    10  O   -0.000065   0.382174  -0.098827   7.992072  -0.000001   0.000000
    11  N    0.000000  -0.000000   0.000000  -0.000001   5.925690   0.355581
    12  O   -0.000000  -0.000001  -0.000000   0.000000   0.355581   8.057487
    13  O   -0.000000   0.000000  -0.000000   0.000000   0.353558  -0.104702
    14  H   -0.000876  -0.000063   0.000027   0.000002  -0.000070   0.000002
    15  H   -0.000004  -0.019174   0.000423   0.021404  -0.015558   0.022199
    16  H   -0.000036   0.000004  -0.000000  -0.000000  -0.017297   0.000434
    17  H    0.333321  -0.002120   0.057090   0.000761  -0.000000  -0.000000
              13         14         15         16         17
     1  C    0.002985   0.455569  -0.004025  -0.066879   0.009421
     2  C   -0.000094  -0.072731   0.020133   0.016542  -0.000268
     3  C    0.000141   0.025537  -0.052468  -0.003943  -0.033044
     4  C    0.006363  -0.003174   0.432841   0.018726  -0.000324
     5  C   -0.117685   0.015363  -0.064213  -0.072054  -0.000194
     6  C    0.019084  -0.078021   0.016254   0.454019  -0.000173
     7  O   -0.000000  -0.000876  -0.000004  -0.000036   0.333321
     8  N    0.000000  -0.000063  -0.019174   0.000004  -0.002120
     9  O   -0.000000   0.000027   0.000423  -0.000000   0.057090
    10  O    0.000000   0.000002   0.021404  -0.000000   0.000761
    11  N    0.353558  -0.000070  -0.015558  -0.017297  -0.000000
    12  O   -0.104702   0.000002   0.022199   0.000434  -0.000000
    13  O    8.060424  -0.000005   0.000470   0.021831   0.000000
    14  H   -0.000005   0.639742  -0.000004  -0.011976  -0.000277
    15  H    0.000470  -0.000004   0.608172  -0.000157  -0.000052
    16  H    0.021831  -0.011976  -0.000157   0.623047   0.000009
    17  H    0.000000  -0.000277  -0.000052   0.000009   0.425371
 Mulliken charges:
               1
     1  C   -0.075343
     2  C    0.119519
     3  C    0.092151
     4  C   -0.009248
     5  C    0.136190
     6  C    0.067057
     7  O   -0.129644
     8  N    0.242332
     9  O   -0.287111
    10  O   -0.207521
    11  N    0.221132
    12  O   -0.240070
    13  O   -0.242371
    14  H    0.030956
    15  H    0.033760
    16  H    0.037730
    17  H    0.210480
 Sum of Mulliken charges =  -0.00000
 Mulliken charges with hydrogens summed into heavy atoms:
               1
     1  C   -0.044386
     2  C    0.119519
     3  C    0.092151
     4  C    0.024512
     5  C    0.136190
     6  C    0.104786
     7  O    0.080836
     8  N    0.242332
     9  O   -0.287111
    10  O   -0.207521
    11  N    0.221132
    12  O   -0.240070
    13  O   -0.242371
 Electronic spatial extent (au):  <R**2>=           2448.2461
 Charge=             -0.0000 electrons
 Dipole moment (field-independent basis, Debye):
    X=              1.6074    Y=              3.5729    Z=              0.0055  Tot=              3.9178
 Quadrupole moment (field-independent basis, Debye-Ang):
   XX=            -91.7652   YY=            -74.6850   ZZ=            -70.4088
   XY=             -1.3430   XZ=             -0.0102   YZ=             -0.0036
 Traceless Quadrupole moment (field-independent basis, Debye-Ang):
   XX=            -12.8122   YY=              4.2680   ZZ=              8.5442
   XY=             -1.3430   XZ=             -0.0102   YZ=             -0.0036
 Octapole moment (field-independent basis, Debye-Ang**2):
  XXX=             51.3200  YYY=             18.6420  ZZZ=             -0.0086  XYY=            -10.2058
  XXY=             17.9524  XXZ=              0.0564  XZZ=              1.5186  YZZ=             -7.6292
  YYZ=              0.0027  XYZ=              0.0030
 Hexadecapole moment (field-independent basis, Debye-Ang**3):
 XXXX=          -2308.8731 YYYY=           -809.7047 ZZZZ=            -62.5700 XXXY=             24.0303
 XXXZ=             -0.1197 YYYX=            -17.5701 YYYZ=             -0.0063 ZZZX=              0.0050
 ZZZY=             -0.0015 XXYY=           -529.2843 XXZZ=           -326.8306 YYZZ=           -148.6664
 XXYZ=             -0.0302 YYXZ=             -0.0038 ZZXY=              0.7137
 N-N= 7.823304988573D+02 E-N=-3.237084998376D+03  KE= 7.087451887476D+02
 1\1\GINC-CHPC-CN074\SP\RMN15\def2SVP\C6H4N2O5\S1155246976\10-Jun-2026\
 0\\# mn15 def2svp scrf=(smd,solvent=TetraHydroFuran)\\Gaussian pKa cal
 culation job\\0,1\C,0,0.055739,2.068187,0.000043\C,0,1.19565,1.234176,
 0.000004\C,0,0.975659,-0.167113,0.000241\C,0,-0.307795,-0.714513,0.000
 5\C,0,-1.387075,0.146609,0.000539\C,0,-1.219804,1.538876,0.000297\O,0,
 2.387332,1.79785,-0.000244\N,0,2.100125,-1.091826,0.000219\O,0,3.23346
 3,-0.604884,-0.000537\O,0,1.878923,-2.278041,0.000026\N,0,-2.743111,-0
 .414662,0.000823\O,0,-2.845313,-1.6248,-0.000602\O,0,-3.667819,0.37388
 3,-0.000851\H,0,0.22806,3.145284,-0.000138\H,0,-0.448059,-1.795329,0.0
 00681\H,0,-2.10603,2.174068,0.000326\H,0,3.059996,1.071996,-0.000254\\
 Version=ES64L-G16RevB.01\State=1-A\HF=-715.1324642\RMSD=6.788e-09\Dipo
 le=0.6323892,1.4056926,0.0021766\Quadrupole=-9.5255719,3.1731329,6.352
 439,-0.9985151,-0.0075893,-0.0027126\PG=C01 [X(C6H4N2O5)]\\@


 THERE ARE TWO THINGS THAT EVERYBODY THINKS THEY CAN DO BETTER THAN
 ANYONE ELSE - PUNCH THE FIRE, AND EDIT A DAILY PAPER.
 -- UNCLE ESEK, "CENTURY MAGAZINE", 1885
 Job cpu time:       0 days  0 hours 10 minutes 35.0 seconds.
 Elapsed time:       0 days  0 hours  0 minutes 10.8 seconds.
 File lengths (MBytes):  RWF=     83 Int=      0 D2E=      0 Chk=      4 Scr=      1
 Normal termination of Gaussian 16 at Wed Jun 10 15:30:35 2026.
SED IN A CHAMBER,
 FLUTTER AT THE FALSE LIGHT OF A GLASSE WINDOW,
 FOR WANT OF WIT TO CONSIDER WHICH WAY THEY CAME IN....
           LEVIATHAN
 Job cpu time:       0 days  0 hours  9 minutes 44.3 seconds.
 Elapsed time:       0 days  0 hours  0 minutes  9.9 seconds.
 File lengths (MBytes):  RWF=     83 Int=      0 D2E=      0 Chk=      4 Scr=      1
 Normal termination of Gaussian 16 at Wed Jun 10 15:30:33 2026.
