
                                 *****************
                                 * O   R   C   A *
                                 *****************

                                            #,                                       
                                            ###                                      
                                            ####                                     
                                            #####                                    
                                            ######                                   
                                           ########,                                 
                                     ,,################,,,,,                         
                               ,,#################################,,                 
                          ,,##########################################,,             
                       ,#########################################, ''#####,          
                    ,#############################################,,   '####,        
                  ,##################################################,,,,####,       
                ,###########''''           ''''###############################       
              ,#####''   ,,,,##########,,,,          '''####'''          '####       
            ,##' ,,,,###########################,,,                        '##       
           ' ,,###''''                  '''############,,,                           
         ,,##''                                '''############,,,,        ,,,,,,###''
      ,#''                                            '''#######################'''  
     '                                                          ''''####''''         
             ,#######,   #######,   ,#######,      ##                                
            ,#'     '#,  ##    ##  ,#'     '#,    #''#        ,####,    ,#,          
            ##       ##  ##   ,#'  ##            #'  '#       #'       ,# #          
            ##       ##  #######   ##           ,######,      #####,      #          
            '#,     ,#'  ##    ##  '#,     ,#' ,#      #,     #,   #      #          
             '#######'   ##     ##  '#######'  #'      '#     '####' #    #          



                #########################################################
                #                        -***-                          #
                #          Department of theory and spectroscopy        #
                #                                                       #
                #                      Frank Neese                      #
                #                                                       #
                #     Directorship, Architecture, Infrastructure        #
                #                    SHARK, DRIVERS                     #
                #        Core code/Algorithms in most modules           #
                #                                                       #
                #        Max Planck Institute fuer Kohlenforschung      #
                #                Kaiser Wilhelm Platz 1                 #
                #                 D-45470 Muelheim/Ruhr                 #
                #                      Germany                          #
                #                                                       #
                #                  All rights reserved                  #
                #                        -***-                          #
                #########################################################


                         Program Version 6.1.0  -  RELEASE   -
                                (GIT: $679e74b$)
                          ($2025-06-10 18:02:51 +0200$)


 With contributions from (in alphabetic order):
[Max-Planck-Institut fuer Kohlenforschung]                               
  Daniel Aravena         : Magnetic Suceptibility                        
  Michael Atanasov       : Ab Initio Ligand Field Theory (pilot matlab implementation)
  Alexander A. Auer      : GIAO ZORA, VPT2 properties, NMR spectrum      
  Ute Becker             : All parallelization in ORCA, NUMFREQ, NUMCALC 
  Giovanni Bistoni       : ED, misc. LED, open-shell LED, HFLD           
  Dmytro Bykov           : pre 5.0 version of the SCF Hessian            
  Marcos Casanova-Páez   : Triplet and SCS-CIS(D). UHF-(DLPNO)-IP/EA/STEOM-CCSD. UHF-CVS-IP/STEOM-CCSD   
  Vijay G. Chilkuri      : MRCI spin determinant printing, contributions to CSF-ICE 
  Pauline Colinet        : FMM embedding                                 
  Dipayan Datta          : RHF DLPNO-CCSD density                        
  Achintya Kumar Dutta   : EOM-CC, STEOM-CC                              
  Nicolas Foglia         : Exact transition moments, OPA infrastructure, MCD improvements    
  Dmitry Ganyushin       : Spin-Orbit,Spin-Spin,Magnetic field MRCI      
  Miquel Garcia-Rates    : C-PCM and meta-GGA Hessian, CCSD/C-PCM, Gaussian charge scheme 
  Tiago L. C. Gouveia    : GS-ROHF, GS-ROCIS                             
  Yang Guo               : DLPNO-NEVPT2, F12-NEVPT2, CIM, IAO-localization        
  Andreas Hansen         : Spin unrestricted coupled pair/coupled cluster methods 
  Ingolf Harden          : AUTO-CI MPn and infrastructure                
  Benjamin Helmich-Paris : MC-RPA, TRAH-(SCF,CASSCF), AVAS, COSX integrals, SCF dyn. polar., MC-PDFT, srDFT 
  Lee Huntington         : MR-EOM, pCC                                   
  Robert Izsak           : Overlap fitted RIJCOSX, COSX-SCS-MP3, EOM     
  Riya Kayal             : Wick's Theorem for AUTO-CI, AUTO-CI UHF-CCSDT 
  Emily Kempfer          : AUTO-CI RHF CISDT and CCSDT, approximate NEVPT4
  Christian Kollmar      : KDIIS, OOCD, Brueckner-CCSD(T), CCSD density, CASPT2, CASPT2-K, improved NEVPT2 
  Axel Koslowski         : Symmetry handling                             
  Simone Kossmann        : meta-GGA functionals, TD-DFT gradient, OOMP2, (MP2 Hessian; deprecated post 5.0) 
  Lucas Lang             : DCDCAS, Hyperfine gauge corrections, ICE-SOC+SSC
  Marvin Lechner         : AUTO-CI (C++ implementation), FIC-MRCC        
  Spencer Leger          : CASSCF response                               
  Dagmar Lenk            : GEPOL surface, SMD, ORCA-2-JSON               
  Dimitrios Liakos       : Extrapolation schemes; Compound Job, Property file
  Dimitrios Manganas     : Further ROCIS development; embedding schemes. LFT, Crystal Embedding 
  Dimitrios Pantazis     : SARC Basis sets                               
  Anastasios Papadopoulos: AUTO-CI, single reference methods and gradients 
  Taras Petrenko         : pre 6.0 DFT Hessian and TD-DFT gradient,  ECA, NRVS 
  Petra Pikulova         : Analytic Raman intensities                    
  Peter Pinski           : DLPNO-MP2, DLPNO-MP2 Gradient                 
  Shashank Vittal Rao    : ES-AILFT, MagRelax                            
  Christoph Reimann      : Effective Core Potentials                     
  Marius Retegan         : Local ZFS, SOC                                
  Christoph Riplinger    : Optimizer, TS searches, QM/MM, DLPNO-CCSD(T), (RO)-DLPNO pert. Triples 
  Michael Roemelt        : Original ROCIS implementation, recursive CI coupling coefficients
  Masaaki Saitow         : Open-shell DLPNO-CCSD energy and density      
  Barbara Sandhoefer     : DKH picture change effects                    
  Yorick L. A. Schmerwitz: GMF and freeze-and-release deltaSCF, NEB S-IDPP initial path                    
  Kantharuban Sivalingam : CASSCF convergence/infrastructure, NEVPT2, NEVPT3, NEVPT4(SD), FIC-MRCI and CEPA variants
  Bernardo de Souza      : ESD, SOC TD-DFT                               
  Georgi L. Stoychev     : AutoAux, RI-MP2 NMR, DLPNO-MP2 response, X2C  
  Van Anh Tran           : RI-MP2 g-tensors                              
  Willem Van den Heuvel  : Paramagnetic NMR                              
  Zikuan Wang            : NOTCH, Electric field optimization            
  Frank Wennmohs         : Technical directorship and infrastructure     
  Hang Xu                : AUTO-CI-Response properties                   
                                                                         
[FACCTs GmbH]                                                            
  Markus Bursch, Nicolas Foglia, Miquel Garcia-Rates, Ingolf Harden, Hagen Neugebauer, Anastasios Papadopoulos, 
  Christoph Riplinger, Bernardo de Souza, Georgi L. Stoychev                                                    
                                                                 
  APM, various basis sets, CI-OPT, improved COSX, DLPNO-Multilevel,           
  DOCKER, DRACO, updates on ESD, Fragmentator, GOAT, IRC, LR-CPCM, L-BFGS, MBIS, meta-GGA TD-DFT gradient, ML-optimized integration grids, 
  MM, NACMEs, nearIR, NEB, NEB-TS, NL-DFT gradient (VV10), 2- and 3-layer-ONIOM, interface openCOSMO-RS, QMMM,   
  Crystal-QMMM, RESP, rigid body optimization, SF, symmetry and pop. for TD-DFT, various functionals, SOLVATOR                                   
                                                                         
[Other institutions]                                                     
  V. Asgeirsson          : NEB                                           
  Christoph Bannwarth    : sTDA-DFT, sTD-DFT, PBEh-3c, B97-3c, D3        
  Giovanni Bistoni       : ETS/NOCV, ADLD/ADEX, COVALED                  
  Martin Brehm           : Molecular dynamics                            
  Ronald Cardenas        : ETS/NOCV                                      
  Martina Colucci        : COVALED                                       
  Sebastian Ehlert       : rSCAN, r2SCAN, r2SCAN-3c, D4, dhf basis sets  
  Marvin Friede          : D4 for Fr, Ra, Ac-Lr                          
  Lars Goerigk           : TD-DFT with DH, B97 family of functionals     
  Stefan Grimme          : VdW corrections, initial TS optimization, DFT functionals, gCP, sTDA/sTD-DF 
  Waldemar Hujo          : DFT-NL                                        
  H. Jonsson             : NEB                                           
  Holger Kruse           : gCP                                           
  Marcel Mueller         : wB97X-3c, vDZP basis set                      
  Hagen Neugebauer       : wr2SCAN, Native XTB                           
  Gianluca Regni         : ADLD/ADEX                                     
  Tobias Risthaus        : pre 6.0 range-separated hybrid DFT and stability analysis
  Lukas Wittmann         : regularized MP2, r2SCAN double-hybrids, wr2SCAN        
                                                                         
We gratefully acknowledge several colleagues who have allowed us to      
interface, adapt or use parts of their codes:                            
  Ed Valeev, F. Pavosevic, A. Kumar             : LibInt (2-el integral package), F12 methods 
  Garnet Chan, S. Sharma, J. Yang, R. Olivares  : DMRG                   
  Ulf Ekstrom                                   : XCFun DFT Library      
  Mihaly Kallay                                 : mrcc  (arbitrary order and MRCC methods)
  Frank Weinhold                                : gennbo (NPA and NBO analysis)           
  Simon Mueller                                 : openCOSMO-RS                            
  Christopher J. Cramer and Donald G. Truhlar   : smd solvation model                     
  S Lehtola, MJT Oliveira, MAL Marques          : LibXC Library                           
  Liviu Ungur et al                             : ANISO software                          


 Your calculation uses the libint2 library for the computation of 2-el integrals
 For citations please refer to: http://libint.valeyev.net

 Your ORCA version has been built with support for libXC version: 7.0.0
 For citations please refer to: https://libxc.gitlab.io

 This ORCA versions uses:
   CBLAS   interface :  Fast vector & matrix operations
   LAPACKE interface :  Fast linear algebra routines
   SCALAPACK package :  Parallel linear algebra routines
   Shared memory     :  Shared parallel matrices
   BLAS/LAPACK       :  OpenBLAS 0.3.29  USE64BITINT DYNAMIC_ARCH NO_AFFINITY Cooperlake SINGLE_THREADED
        Core in use  :  Cooperlake
   Copyright (c) 2011-2014, The OpenBLAS Project


  ***********************************
  * Starting time: Wed Jun 10 15:32:26 2026
  * Host name:     chpc-cn081.rc.cuhk.edu.hk
  * Process ID:    146938
  * Working dir.:  /lustre/project/xlzhang/jingyi/chemsmart/test_pka/orca
  ***********************************

NOTE: MaxCore=2109 MB was set to SCF,MP2,MDCI,CIPSI,MRCI,RASCI and CIS
      => If you want to overwrite this, your respective input block should be placed after the MaxCore statement
XCFun DFT library Copyright 2009-2010 Ulf Ekstrom and contributors.
See http://admol.org/xcfun for more information.
This is free software; see the source code for copying conditions.
There is ABSOLUTELY NO WARRANTY; not even for MERCHANTABILITY or FITNESS FOR A PARTICULAR PURPOSE.
For details see the documentation.
Scientific users of this library should cite U. Ekstrom, L. Visscher, R. Bast, A. J. Thorvaldsen and K. Ruud;
J.Chem.Theor.Comp. 2010, DOI: 10.1021/ct100117s
XCFun Version 0.99 

Warning: RI is on but no J-basis has been assigned. Assigning Def2/J (nothing to worry about!)
================================================================================

----- Orbital basis set information -----
Your calculation utilizes the basis: def2-SVP
   F. Weigend and R. Ahlrichs, Phys. Chem. Chem. Phys. 7, 3297 (2005).

----- AuxJ basis set information -----
Your calculation utilizes the auxiliary basis: def2/J
   H-Rn: F. Weigend, Phys. Chem. Chem. Phys. 8, 1057 (2006).
   Fr-Lr: K. Eichkorn, F. Weigend, O. Treutler, R. Ahlrichs; Theor. Chem. Acc. 97, 119 (1997).

================================================================================
                                        WARNINGS
                       Please study these warnings very carefully!
================================================================================

WARNING: Old DensityContainer found on disk!
         Will remove this file - 
         If you want to keep old densities, please start your calculation with a different basename. 

WARNING: Functional chosen is sensitive to the integration grid.
         DEFGRID3 seems to be a minimum grid for robust results!

WARNING: Geometry Optimization
  ===> : Switching off AutoStart
         For restart on a previous wavefunction, please use MOREAD

================================================================================
                                       INPUT FILE
================================================================================
NAME = /lustre/project/xlzhang/jingyi/chemsmart/test_pka/orca/pka_scale_frag2_pka_A_opt.inp
|  1> ! Opt Freq M062X def2-SVP defgrid2
|  2> # Number of processors
|  3> %pal nprocs 64 end
|  4> # Memory per core
|  5> %maxcore 2109
|  6> * xyz -1 1
|  7> C       -1.0965145985    0.1029667919   -0.2525080462
|  8> S        0.5912552661    0.3765235245    0.2344159351
|  9> O        0.7160790270    0.2023258597    1.6634128204
| 10> O        1.1173136015    1.5272954972   -0.4600480917
| 11> O        1.2330065759   -0.9486985593   -0.4269489026
| 12> H       -1.6987609122    0.9246101807    0.1404883285
| 13> H       -1.1504264536    0.0873956832   -1.3425718703
| 14> H       -1.4363453945   -0.8449537074    0.1686482247
| 15> *
| 16> 
| 17>                          ****END OF INPUT****
================================================================================

                       *****************************
                       * Geometry Optimization Run *
                       *****************************

Geometry optimization settings:
Update method            Update   .... BFGS
Choice of coordinates    CoordSys .... (2022) Redundant Internals
Initial Hessian          InHess   .... Almloef's Model
Max. no of cycles        MaxIter  .... 50

Convergence Tolerances:
Energy Change            TolE     ....  5.0000e-06 Eh
Max. Gradient            TolMAXG  ....  3.0000e-04 Eh/bohr
RMS Gradient             TolRMSG  ....  1.0000e-04 Eh/bohr
Max. Displacement        TolMAXD  ....  4.0000e-03 bohr
RMS Displacement         TolRMSD  ....  2.0000e-03 bohr
Strict Convergence                .... False

------------------------------------------------------------------------------
                        ORCA OPTIMIZATION COORDINATE SETUP
------------------------------------------------------------------------------

The optimization will be done in redundant internal coordinates (2022)
Making redundant internal coordinates   ...  (2022 redundants) done
Evaluating the initial hessian          ...  (Almloef) done
Evaluating the coordinates              ...  done
Calculating the B-matrix                .... done
Calculating the G-matrix                .... done
The number of degrees of freedom        ....   25

    -----------------------------------------------------------------
                    Redundant Internal Coordinates


    -----------------------------------------------------------------
         Definition                    Initial Value    Approx d2E/dq
    -----------------------------------------------------------------
      1. B(S   1,C   0)                  1.7778         0.405351   
      2. B(O   2,S   1)                  1.4450         1.232910   
      3. B(O   3,S   1)                  1.4434         1.240245   
      4. B(O   4,S   1)                  1.6141         0.662270   
      5. B(H   5,C   0)                  1.0919         0.357596   
      6. B(H   6,C   0)                  1.0915         0.358112   
      7. B(H   7,C   0)                  1.0915         0.358098   
      8. A(S   1,C   0,H   7)          108.8763         0.345212   
      9. A(S   1,C   0,H   6)          108.8214         0.345214   
     10. A(H   6,C   0,H   7)          110.9509         0.290332   
     11. A(H   5,C   0,H   7)          110.0537         0.290267   
     12. A(H   5,C   0,H   6)          110.0559         0.290268   
     13. A(S   1,C   0,H   5)          108.0148         0.345131   
     14. A(O   3,S   1,O   4)          108.2119         0.551780   
     15. A(O   2,S   1,O   3)          122.7146         0.621675   
     16. A(O   2,S   1,O   4)          105.7761         0.551159   
     17. A(C   0,S   1,O   4)           97.9839         0.450823   
     18. A(C   0,S   1,O   3)          109.6890         0.506030   
     19. A(C   0,S   1,O   2)          109.5316         0.505470   
     20. D(O   2,S   1,C   0,H   6)   -171.5242         0.010000   
     21. D(O   2,S   1,C   0,H   7)    -50.4747         0.010000   
     22. D(O   3,S   1,C   0,H   5)    -68.3769         0.010000   
     23. D(O   3,S   1,C   0,H   6)     51.0841         0.010000   
     24. D(O   3,S   1,C   0,H   7)    172.1336         0.010000   
     25. D(O   2,S   1,C   0,H   5)     69.0148         0.010000   
    -----------------------------------------------------------------

Number of atoms                         .... 8
Number of degrees of freedom            .... 25


         *************************************************************
         *                GEOMETRY OPTIMIZATION CYCLE   1            *
         *************************************************************
---------------------------------
CARTESIAN COORDINATES (ANGSTROEM)
---------------------------------
  C     -1.096515    0.102967   -0.252508
  S      0.591255    0.376524    0.234416
  O      0.716079    0.202326    1.663413
  O      1.117314    1.527295   -0.460048
  O      1.233007   -0.948699   -0.426949
  H     -1.698761    0.924610    0.140488
  H     -1.150426    0.087396   -1.342572
  H     -1.436345   -0.844954    0.168648

----------------------------
CARTESIAN COORDINATES (A.U.)
----------------------------
  NO LB      ZA    FRAG     MASS         X           Y           Z
   0 C     6.0000    0    12.011   -2.072112    0.194579   -0.477171
   1 S    16.0000    0    32.060    1.117311    0.711526    0.442982
   2 O     8.0000    0    15.999    1.353193    0.382340    3.143395
   3 O     8.0000    0    15.999    2.111417    2.886170   -0.869365
   4 O     8.0000    0    15.999    2.330045   -1.792780   -0.806816
   5 H     1.0000    0     1.008   -3.210193    1.747260    0.265484
   6 H     1.0000    0     1.008   -2.173991    0.165154   -2.537093
   7 H     1.0000    0     1.008   -2.714299   -1.596731    0.318699

--------------------------------
INTERNAL COORDINATES (ANGSTROEM)
--------------------------------
 C      0   0   0     0.000000000000     0.00000000     0.00000000
 S      1   0   0     1.777778210399     0.00000000     0.00000000
 O      2   1   0     1.444976780403   109.53157972     0.00000000
 O      2   1   3     1.443361974667   109.68901457   222.60832002
 O      2   1   3     1.614144282141    97.98388796   109.94125143
 H      1   2   3     1.091899551814   108.01482880    69.01481760
 H      1   2   3     1.091507255202   108.82138642   188.47581785
 H      1   2   3     1.091517680765   108.87631488   309.52532860

---------------------------
INTERNAL COORDINATES (A.U.)
---------------------------
 C      0   0   0     0.000000000000     0.00000000     0.00000000
 S      1   0   0     3.359513944506     0.00000000     0.00000000
 O      2   1   0     2.730610384837   109.53157972     0.00000000
 O      2   1   3     2.727558844237   109.68901457   222.60832002
 O      2   1   3     3.050290633881    97.98388796   109.94125143
 H      1   2   3     2.063391118680   108.01482880    69.01481760
 H      1   2   3     2.062649785519   108.82138642   188.47581785
 H      1   2   3     2.062669486978   108.87631488   309.52532860

---------------------
BASIS SET INFORMATION
---------------------
There are 4 groups of distinct atoms

 Group   1 Type C   : 7s4p1d contracted to 3s2p1d pattern {511/31/1}
 Group   2 Type S   : 10s7p1d contracted to 4s3p1d pattern {5311/511/1}
 Group   3 Type O   : 7s4p1d contracted to 3s2p1d pattern {511/31/1}
 Group   4 Type H   : 4s1p contracted to 2s1p pattern {31/1}

Atom   0C    basis set group =>   1
Atom   1S    basis set group =>   2
Atom   2O    basis set group =>   3
Atom   3O    basis set group =>   3
Atom   4O    basis set group =>   3
Atom   5H    basis set group =>   4
Atom   6H    basis set group =>   4
Atom   7H    basis set group =>   4
---------------------------------
AUXILIARY/J BASIS SET INFORMATION
---------------------------------
There are 4 groups of distinct atoms

 Group   1 Type C   : 12s5p4d2f1g contracted to 6s4p3d1f1g pattern {711111/2111/211/2/1}
 Group   2 Type S   : 14s5p5d2f1g contracted to 8s4p3d1f1g pattern {71111111/2111/311/2/1}
 Group   3 Type O   : 12s5p4d2f1g contracted to 6s4p3d1f1g pattern {711111/2111/211/2/1}
 Group   4 Type H   : 5s2p1d contracted to 3s1p1d pattern {311/2/1}

Atom   0C    basis set group =>   1
Atom   1S    basis set group =>   2
Atom   2O    basis set group =>   3
Atom   3O    basis set group =>   3
Atom   4O    basis set group =>   3
Atom   5H    basis set group =>   4
Atom   6H    basis set group =>   4
Atom   7H    basis set group =>   4


           ************************************************************
           *        Program running with 64 parallel MPI-processes    *
           *              working on a common directory               *
           ************************************************************
------------------------------------------------------------------------------
                             ORCA STARTUP CALCULATIONS
                           -- RI-GTO INTEGRALS CHOSEN --
------------------------------------------------------------------------------
------------------------------------------------------------------------------
                   ___                                                        
                  /   \      - P O W E R E D   B Y -                         
                 /     \                                                     
                 |  |  |   _    _      __       _____    __    __             
                 |  |  |  | |  | |    /  \     |  _  \  |  |  /  |          
                  \  \/   | |  | |   /    \    | | | |  |  | /  /          
                 / \  \   | |__| |  /  /\  \   | |_| |  |  |/  /          
                |  |  |   |  __  | /  /__\  \  |    /   |      \           
                |  |  |   | |  | | |   __   |  |    \   |  |\   \          
                \     /   | |  | | |  |  |  |  | |\  \  |  | \   \       
                 \___/    |_|  |_| |__|  |__|  |_| \__\ |__|  \__/        
                                                                              
                      - O R C A' S   B I G   F R I E N D -                    
                                      &                                       
                       - I N T E G R A L  F E E D E R -                       
                                                                              
 v1 FN, 2020, v2 2021, v3 2022-2024                                           
------------------------------------------------------------------------------


----------------------
SHARK INTEGRAL PACKAGE
----------------------

Number of atoms                             ...      8
Number of basis functions                   ...     89
Number of shells                            ...     41
Maximum angular momentum                    ...      2
Integral batch strategy                     ... SHARK/LIBINT Hybrid
RI-J (if used) integral strategy            ... SPLIT-RIJ (Revised 2003 algorithm where possible)
Printlevel                                  ...      1
Contraction scheme used                     ... SEGMENTED contraction
Prescreening option                         ... SCHWARTZ
   Thresh                                   ... 2.500e-11
   Tcut                                     ... 2.500e-12
   Tpresel                                  ... 2.500e-12 
Coulomb Range Separation                    ... NOT USED
Exchange Range Separation                   ... NOT USED
Multipole approximations                    ... NOT USED
Finite Nucleus Model                        ... NOT USED
CABS basis                                  ... NOT available
Auxiliary Coulomb fitting basis             ... AVAILABLE
   # of basis functions in Aux-J            ...    280
   # of shells in Aux-J                     ...     92
   Maximum angular momentum in Aux-J        ...      4
Auxiliary J/K fitting basis                 ... NOT available
Auxiliary Correlation fitting basis         ... NOT available
Auxiliary 'external' fitting basis          ... NOT available

Checking pre-screening integrals            ... done (  0.0 sec) Dimension = 41
   => SHARK Basis and OBASIS are compatible. Storing Pre-screening
Shell pair information
Shell pair cut-off parameter TPreSel        ...   2.5e-12
Total number of shell pairs                 ...       861
Shell pairs after pre-screening             ...       848
Total number of primitive shell pairs       ...      3405
Primitive shell pairs kept                  ...      2601
          la=0 lb=0:    243 shell pairs
          la=1 lb=0:    305 shell pairs
          la=1 lb=1:    105 shell pairs
          la=2 lb=0:    110 shell pairs
          la=2 lb=1:     70 shell pairs
          la=2 lb=2:     15 shell pairs

Checking whether 4 symmetric matrices of dimension 89 fit in memory
:Max Core in MB      =   2109.00
 MB in use           =      4.39
 MB left             =   2104.61
 MB needed           =      0.12
 Data fit in memory  = YES
Calculating RI/J V-Matrix + Cholesky decomp.... done (  0.4 sec)
Calculating Nuclear repulsion               ... done (  0.0 sec) ENN=    267.299792225168 Eh

Diagonalization of the overlap matrix:
Smallest eigenvalue                        ... 5.167e-03
Time for diagonalization                   ...    0.002 sec
Threshold for overlap eigenvalues          ... 1.000e-07
Number of eigenvalues below threshold      ... 0
Time for construction of square roots      ...    0.005 sec
Total time needed                          ...    0.034 sec

-------------------
DFT GRID GENERATION
-------------------

General Integration Accuracy     IntAcc      ... 4.388
Radial Grid Type                 RadialGrid  ... OptM3 with GC (2021)
Angular Grid (max. ang.)         AngularGrid ... 4 (Lebedev-302)
Angular grid pruning method      GridPruning ... 4 (adaptive)
Weight generation scheme         WeightScheme... mBecke (2022)
Basis function cutoff            BFCut       ... 1.0000e-11
Integration weight cutoff        WCut        ... 1.0000e-14
Partially contracted basis set               ... off
Rotationally invariant grid construction     ... off
Angular grids for H and He will be reduced by one unit

Total number of grid points                  ...    41459
Total number of batches                      ...      653
Average number of points per batch           ...       63
Average number of grid points per atom       ...     5182

--------------------
COSX GRID GENERATION
--------------------

GRIDX 1
-------
General Integration Accuracy     IntAcc      ... 3.816
Radial Grid Type                 RadialGrid  ... OptM3 with GC (2021)
Angular Grid (max. ang.)         AngularGrid ... 1 (Lebedev-50)
Angular grid pruning method      GridPruning ... 4 (adaptive)
Weight generation scheme         WeightScheme... mBecke (2022)
Basis function cutoff            BFCut       ... 1.0000e-11
Integration weight cutoff        WCut        ... 1.0000e-14
Partially contracted basis set               ... on
Rotationally invariant grid construction     ... off
Angular grids for H and He will be reduced by one unit

Total number of grid points                  ...     6314
Total number of batches                      ...       53
Average number of points per batch           ...      119
Average number of grid points per atom       ...      789
UseSFitting                                  ... on

GRIDX 2
-------
General Integration Accuracy     IntAcc      ... 4.020
Radial Grid Type                 RadialGrid  ... OptM3 with GC (2021)
Angular Grid (max. ang.)         AngularGrid ... 2 (Lebedev-110)
Angular grid pruning method      GridPruning ... 4 (adaptive)
Weight generation scheme         WeightScheme... mBecke (2022)
Basis function cutoff            BFCut       ... 1.0000e-11
Integration weight cutoff        WCut        ... 1.0000e-14
Partially contracted basis set               ... on
Rotationally invariant grid construction     ... off
Angular grids for H and He will be reduced by one unit

Total number of grid points                  ...    11694
Total number of batches                      ...       94
Average number of points per batch           ...      124
Average number of grid points per atom       ...     1462
UseSFitting                                  ... on

GRIDX 3
-------
General Integration Accuracy     IntAcc      ... 4.338
Radial Grid Type                 RadialGrid  ... OptM3 with GC (2021)
Angular Grid (max. ang.)         AngularGrid ... 3 (Lebedev-194)
Angular grid pruning method      GridPruning ... 4 (adaptive)
Weight generation scheme         WeightScheme... mBecke (2022)
Basis function cutoff            BFCut       ... 1.0000e-11
Integration weight cutoff        WCut        ... 1.0000e-14
Partially contracted basis set               ... on
Rotationally invariant grid construction     ... off
Angular grids for H and He will be reduced by one unit

Total number of grid points                  ...    26487
Total number of batches                      ...      212
Average number of points per batch           ...      124
Average number of grid points per atom       ...     3311
UseSFitting                                  ... on
Grids setup in   1.0 sec
Initializing property integral containers    ... done (  0.2 sec)

SHARK setup successfully completed in   1.8 seconds

Maximum memory used throughout the entire STARTUP-calculation: 12.0 MB


           ************************************************************
           *        Program running with 64 parallel MPI-processes    *
           *              working on a common directory               *
           ************************************************************
ERROR (SHARK): Failed to read input file (/lustre/project/xlzhang/jingyi/chemsmart/test_pka/orca/pka_scale_frag2_pka_A_opt.SHARKINP.tmp)
ERROR (SHARK): Failed to read input file (/lustre/project/xlzhang/jingyi/chemsmart/test_pka/orca/pka_scale_frag2_pka_A_opt.SHARKINP.tmp)
ERROR (SHARK): Failed to read input file (/lustre/project/xlzhang/jingyi/chemsmart/test_pka/orca/pka_scale_frag2_pka_A_opt.SHARKINP.tmp)
ERROR (SHARK): Failed to read input file (/lustre/project/xlzhang/jingyi/chemsmart/test_pka/orca/pka_scale_frag2_pka_A_opt.SHARKINP.tmp)
ERROR (SHARK): Failed to read input file (/lustre/project/xlzhang/jingyi/chemsmart/test_pka/orca/pka_scale_frag2_pka_A_opt.SHARKINP.tmp)
ERROR (SHARK): Failed to read input file (/lustre/project/xlzhang/jingyi/chemsmart/test_pka/orca/pka_scale_frag2_pka_A_opt.SHARKINP.tmp)
ERROR (SHARK): Failed to read input file (/lustre/project/xlzhang/jingyi/chemsmart/test_pka/orca/pka_scale_frag2_pka_A_opt.SHARKINP.tmp)
ERROR (SHARK): Failed to read input file (/lustre/project/xlzhang/jingyi/chemsmart/test_pka/orca/pka_scale_frag2_pka_A_opt.SHARKINP.tmp)
ERROR (SHARK): Failed to read input file (/lustre/project/xlzhang/jingyi/chemsmart/test_pka/orca/pka_scale_frag2_pka_A_opt.SHARKINP.tmp)
ERROR (SHARK): Failed to read input file (/lustre/project/xlzhang/jingyi/chemsmart/test_pka/orca/pka_scale_frag2_pka_A_opt.SHARKINP.tmp)
ERROR (SHARK): Failed to read input file (/lustre/project/xlzhang/jingyi/chemsmart/test_pka/orca/pka_scale_frag2_pka_A_opt.SHARKINP.tmp)
ERROR (SHARK): Failed to read input file (/lustre/project/xlzhang/jingyi/chemsmart/test_pka/orca/pka_scale_frag2_pka_A_opt.SHARKINP.tmp)
ERROR (SHARK): Failed to read input file (/lustre/project/xlzhang/jingyi/chemsmart/test_pka/orca/pka_scale_frag2_pka_A_opt.SHARKINP.tmp)
ERROR (SHARK): Failed to read input file (/lustre/project/xlzhang/jingyi/chemsmart/test_pka/orca/pka_scale_frag2_pka_A_opt.SHARKINP.tmp)
ERROR (SHARK): Failed to read input file (/lustre/project/xlzhang/jingyi/chemsmart/test_pka/orca/pka_scale_frag2_pka_A_opt.SHARKINP.tmp)
ERROR (SHARK): Failed to read input file (/lustre/project/xlzhang/jingyi/chemsmart/test_pka/orca/pka_scale_frag2_pka_A_opt.SHARKINP.tmp)
ERROR (SHARK): Failed to read input file (/lustre/project/xlzhang/jingyi/chemsmart/test_pka/orca/pka_scale_frag2_pka_A_opt.SHARKINP.tmp)
ERROR (SHARK): Failed to read input file (/lustre/project/xlzhang/jingyi/chemsmart/test_pka/orca/pka_scale_frag2_pka_A_opt.SHARKINP.tmp)
ERROR (SHARK): Failed to read input file (/lustre/project/xlzhang/jingyi/chemsmart/test_pka/orca/pka_scale_frag2_pka_A_opt.SHARKINP.tmp)
ERROR (SHARK): Failed to read input file (/lustre/project/xlzhang/jingyi/chemsmart/test_pka/orca/pka_scale_frag2_pka_A_opt.SHARKINP.tmp)
ERROR (SHARK): Failed to read input file (/lustre/project/xlzhang/jingyi/chemsmart/test_pka/orca/pka_scale_frag2_pka_A_opt.SHARKINP.tmp)
ERROR (SHARK): Failed to read input file (/lustre/project/xlzhang/jingyi/chemsmart/test_pka/orca/pka_scale_frag2_pka_A_opt.SHARKINP.tmp)
ERROR (SHARK): Failed to read input file (/lustre/project/xlzhang/jingyi/chemsmart/test_pka/orca/pka_scale_frag2_pka_A_opt.SHARKINP.tmp)
ERROR (SHARK): Failed to read input file (/lustre/project/xlzhang/jingyi/chemsmart/test_pka/orca/pka_scale_frag2_pka_A_opt.SHARKINP.tmp)
ERROR (SHARK): Failed to read input file (/lustre/project/xlzhang/jingyi/chemsmart/test_pka/orca/pka_scale_frag2_pka_A_opt.SHARKINP.tmp)
ERROR (SHARK): Failed to read input file (/lustre/project/xlzhang/jingyi/chemsmart/test_pka/orca/pka_scale_frag2_pka_A_opt.SHARKINP.tmp)
ERROR (SHARK): Failed to read input file (/lustre/project/xlzhang/jingyi/chemsmart/test_pka/orca/pka_scale_frag2_pka_A_opt.SHARKINP.tmp)
ERROR (SHARK): Failed to read input file (/lustre/project/xlzhang/jingyi/chemsmart/test_pka/orca/pka_scale_frag2_pka_A_opt.SHARKINP.tmp)
ERROR (SHARK): Failed to read input file (/lustre/project/xlzhang/jingyi/chemsmart/test_pka/orca/pka_scale_frag2_pka_A_opt.SHARKINP.tmp)
ERROR (SHARK): Failed to read input file (/lustre/project/xlzhang/jingyi/chemsmart/test_pka/orca/pka_scale_frag2_pka_A_opt.SHARKINP.tmp)
ERROR (SHARK): Failed to read input file (/lustre/project/xlzhang/jingyi/chemsmart/test_pka/orca/pka_scale_frag2_pka_A_opt.SHARKINP.tmp)
ERROR (SHARK): Failed to read input file (/lustre/project/xlzhang/jingyi/chemsmart/test_pka/orca/pka_scale_frag2_pka_A_opt.SHARKINP.tmp)
ERROR (SHARK): Failed to read input file (/lustre/project/xlzhang/jingyi/chemsmart/test_pka/orca/pka_scale_frag2_pka_A_opt.SHARKINP.tmp)
ERROR (SHARK): Failed to read input file (/lustre/project/xlzhang/jingyi/chemsmart/test_pka/orca/pka_scale_frag2_pka_A_opt.SHARKINP.tmp)
ERROR (SHARK): Failed to read input file (/lustre/project/xlzhang/jingyi/chemsmart/test_pka/orca/pka_scale_frag2_pka_A_opt.SHARKINP.tmp)
ERROR (SHARK): Failed to read input file (/lustre/project/xlzhang/jingyi/chemsmart/test_pka/orca/pka_scale_frag2_pka_A_opt.SHARKINP.tmp)
ERROR (SHARK): Failed to read input file (/lustre/project/xlzhang/jingyi/chemsmart/test_pka/orca/pka_scale_frag2_pka_A_opt.SHARKINP.tmp)
ERROR (SHARK): Failed to read input file (/lustre/project/xlzhang/jingyi/chemsmart/test_pka/orca/pka_scale_frag2_pka_A_opt.SHARKINP.tmp)
ERROR (SHARK): Failed to read input file (/lustre/project/xlzhang/jingyi/chemsmart/test_pka/orca/pka_scale_frag2_pka_A_opt.SHARKINP.tmp)
ERROR (SHARK): Failed to read input file (/lustre/project/xlzhang/jingyi/chemsmart/test_pka/orca/pka_scale_frag2_pka_A_opt.SHARKINP.tmp)
ERROR (SHARK): Failed to read input file (/lustre/project/xlzhang/jingyi/chemsmart/test_pka/orca/pka_scale_frag2_pka_A_opt.SHARKINP.tmp)
ERROR (SHARK): Failed to read input file (/lustre/project/xlzhang/jingyi/chemsmart/test_pka/orca/pka_scale_frag2_pka_A_opt.SHARKINP.tmp)
ERROR (SHARK): Failed to read input file (/lustre/project/xlzhang/jingyi/chemsmart/test_pka/orca/pka_scale_frag2_pka_A_opt.SHARKINP.tmp)
ERROR (SHARK): Failed to read input file (/lustre/project/xlzhang/jingyi/chemsmart/test_pka/orca/pka_scale_frag2_pka_A_opt.SHARKINP.tmp)
ERROR (SHARK): Failed to read input file (/lustre/project/xlzhang/jingyi/chemsmart/test_pka/orca/pka_scale_frag2_pka_A_opt.SHARKINP.tmp)
ERROR (SHARK): Failed to read input file (/lustre/project/xlzhang/jingyi/chemsmart/test_pka/orca/pka_scale_frag2_pka_A_opt.SHARKINP.tmp)
ERROR (SHARK): Failed to read input file (/lustre/project/xlzhang/jingyi/chemsmart/test_pka/orca/pka_scale_frag2_pka_A_opt.SHARKINP.tmp)
ERROR (SHARK): Failed to read input file (/lustre/project/xlzhang/jingyi/chemsmart/test_pka/orca/pka_scale_frag2_pka_A_opt.SHARKINP.tmp)
ERROR (SHARK): Failed to read input file (/lustre/project/xlzhang/jingyi/chemsmart/test_pka/orca/pka_scale_frag2_pka_A_opt.SHARKINP.tmp)
ERROR (SHARK): Failed to read input file (/lustre/project/xlzhang/jingyi/chemsmart/test_pka/orca/pka_scale_frag2_pka_A_opt.SHARKINP.tmp)
ERROR (SHARK): Failed to read input file (/lustre/project/xlzhang/jingyi/chemsmart/test_pka/orca/pka_scale_frag2_pka_A_opt.SHARKINP.tmp)
ERROR (SHARK): Failed to read input file (/lustre/project/xlzhang/jingyi/chemsmart/test_pka/orca/pka_scale_frag2_pka_A_opt.SHARKINP.tmp)
ERROR (SHARK): Failed to read input file (/lustre/project/xlzhang/jingyi/chemsmart/test_pka/orca/pka_scale_frag2_pka_A_opt.SHARKINP.tmp)
ERROR (SHARK): Failed to read input file (/lustre/project/xlzhang/jingyi/chemsmart/test_pka/orca/pka_scale_frag2_pka_A_opt.SHARKINP.tmp)
ERROR (SHARK): Failed to read input file (/lustre/project/xlzhang/jingyi/chemsmart/test_pka/orca/pka_scale_frag2_pka_A_opt.SHARKINP.tmp)
ERROR (SHARK): Failed to read input file (/lustre/project/xlzhang/jingyi/chemsmart/test_pka/orca/pka_scale_frag2_pka_A_opt.SHARKINP.tmp)
ERROR (SHARK): Failed to read input file (/lustre/project/xlzhang/jingyi/chemsmart/test_pka/orca/pka_scale_frag2_pka_A_opt.SHARKINP.tmp)
ERROR (SHARK): Failed to read input file (/lustre/project/xlzhang/jingyi/chemsmart/test_pka/orca/pka_scale_frag2_pka_A_opt.SHARKINP.tmp)
ERROR (SHARK): Failed to read input file (/lustre/project/xlzhang/jingyi/chemsmart/test_pka/orca/pka_scale_frag2_pka_A_opt.SHARKINP.tmp)
ERROR (SHARK): Failed to read input file (/lustre/project/xlzhang/jingyi/chemsmart/test_pka/orca/pka_scale_frag2_pka_A_opt.SHARKINP.tmp)
ERROR (SHARK): Failed to read input file (/lustre/project/xlzhang/jingyi/chemsmart/test_pka/orca/pka_scale_frag2_pka_A_opt.SHARKINP.tmp)
ERROR (SHARK): Failed to read input file (/lustre/project/xlzhang/jingyi/chemsmart/test_pka/orca/pka_scale_frag2_pka_A_opt.SHARKINP.tmp)
ERROR (SHARK): Failed to read input file (/lustre/project/xlzhang/jingyi/chemsmart/test_pka/orca/pka_scale_frag2_pka_A_opt.SHARKINP.tmp)
ERROR (SHARK): Failed to read input file (/lustre/project/xlzhang/jingyi/chemsmart/test_pka/orca/pka_scale_frag2_pka_A_opt.SHARKINP.tmp)

ORCA finished by error termination in GUESS
Calling Command: mpirun -np 64  /project/xlzhang/shared/bin/orca_6_1_0/orca_guess_mpi /lustre/project/xlzhang/jingyi/chemsmart/test_pka/orca/pka_scale_frag2_pka_A_opt.gbw /lustre/project/xlzhang/jingyi/chemsmart/test_pka/orca/pka_scale_frag2_pka_A_opt 
[file orca_tools/qcmsg.cpp, line 394]: 
  .... aborting the run

[...]
                                                                                                                                                                                                                                                                                                                                                                                                                                                                                                                                                                                                                                                                                                                                                                                                                                                                                                                                                                                                                                                                                                                                                                                                                                                                                                                                                                                                                                                                                                                                                                                                                                                                                                                                                                                                                                                                                                                                                                                                                                                                                                                                                                                                                                                                                                                                                                                                                                                                                                                                                                                                                                                                                                                                                                                                                                                                                                                                                                                                                                                                                                                                                                                                                                                                                                                                                                                                                                                                                                                                                                                                                                                                                                                                                                                                                                                                                                                                                                                                                                                                                                                                                                                                                                                                                                                                                                                                                                                                                                                                                                                                                                                                                                                                                                                                                                                                                                                                                                                                                                                                                                                                                                                                                                                                                                                                                                                                                                                                                                                                                                                                                                                                                                                                                                                                                                                                                                                                                                                                                                                                                                                                                                                                                                                                                                                                                                                                                                                                                                                                                                                                                                                                                                                                                                                                                                                                                                                                                                                                                                                                                                                                                                                                                                                                                                                                                                                                                                                                                                                                                                                                                                                                                                                                                                                                                                                                                                                                                                                                                                                                                                                                                                                                                                                                                                                                                                                                                                                                                                                                                                                                                                                                                                                                                                                                                                                                                                                                                                                                                                                                                                                                                                                                                                                                                                                                                                                                                                                                                                                                                                                                                                                                                                                                                                                                                                                                                                                                                                                                                                                                                                                                                                                                                                                                                                                                                                                                                                                                                                                                                                                                                                                                                                                                                                                                                                                                                                                                                                                                                                                                                                                                                                                                                                                                                                                                                                                                                                                                                                                                                                                                                                                                                                                                                                                                                                                                                                                                                                                                                                                                                                                                                                                                                                                                                                                                                                                                                                                                                                                                                                                                                                                                                                                                                                                                                                                                                                                                                                                                                                                                                                                                                                                                                                                                                                                                                                                                                                                                                                                                                                                                                                                                                                                                                                                                                                                                                                                                                                                                                                                                                                                                                                                                                                                                                                                                                                                                                                                                                                                                                                                                                                                                                                                                                                                                                                                                                                                                                                                                                                                                             
--------------------------------
SUGGESTED CITATIONS FOR THIS RUN
--------------------------------

Below you find a list of papers that are relevant to this ORCA run
We neither can nor want to force you to cite these papers, but we appreciate if you do
You receive ORCA, which is the product of decades of hard work by many enthusiastic individuals, for free
The only thing we kindly ask in return is that you cite our papers,
We deeply appreciate it, if you show your appreciation for ORCA by not just citing the generic ORCA reference.

Please note that relegating all ORCA citations to the supporting information does *not* help us.
SI sections are not indexed - citations you put there will not count into any citation statistics
But we need these citations in order to attract the funding resources that allow us to do what we are doing

Therefore, if you are a happy ORCA user, please consider citing a few of the papers listed below in the main body of your paper

In addition to the list printed below, the program has created the file /lustre/project/xlzhang/jingyi/chemsmart/test_pka/orca/pka_scale_frag2_pka_A_opt.bibtex that contains the list in bibtex format
You can import this file easily into all common literature databanks and citation aid programs


List of essential papers. We consider these as the minimum necessary citations

  1. Neese, F.
     Software update: the ORCA program system, version 6.0
     WIRES Comput. Molec. Sci. 2025 15(1), e70019
     doi.org/10.1002/wcms.7019

List of papers to cite with high priority. The work reported in these papers was absolutely
necessary for this run to complete.
Our perspective: the developers of density functionals and basis sets usually get cited in chemistry papers
Good! But without the algorithms to do something with them, the functionals or basis sets would not do anything.
Hence, in our opinion, the algorithm design and method developments papers are equally worthy of getting cited

  1. Neese, F.
     An improvement of the resolution of the identity approximation for the formation of the Coulomb matrix
     J. Comp. Chem. 2003 24(14), 1740-1747
     doi.org/10.1002/jcc.10318
  2. Neese, F.; Wennmohs, F.; Hansen, A.; Becker, U.
     Efficient, approximate and parallel Hartree-Fock and hybrid DFT calculations. A 'chain-of-spheres' algorithm for the Hartree-Fock exchange
     Chem. Phys. 2009 356(1-3), 98-109
     doi.org/10.1016/j.chemphys.2008.10.036
  3. Bykov, D.; Petrenko, T.; Izsak, R.; Kossmann, S.; Becker, U.; Valeev, E.; Neese, F.
     Efficient implementation of the analytic second derivatives of Hartree-Fock and hybrid DFT energies: a detailed analysis of different approximations
     Molec. Phys. 2015 113 , 1961-1977
     doi.org/10.1080/00268976.2015.1025114
  4. Helmich-Paris, B.; de Souza, B.; Neese, F.; Izsák, R.
     An improved chain of spheres for exchange algorithm
     J. Chem. Phys. 2021 155(10), 104109
     doi.org/10.1063/5.0058766
  5. Neese, F.
     The SHARK Integral Generation and Digestion System
     J. Comp. Chem. 2022 44(3), 381
     doi.org/10.1002/jcc.26942

List of suggested additional citations. These are papers that are important in the 'surrounding' of 
of this run, or papers that preceded the highly important papers. If you like your results we are grateful for a citation.

  1. Izsak, R.; Neese, F.
     An overlap fitted chain of spheres exchange method
     J. Chem. Phys. 2011 135 , 144105
     doi.org/10.1063/1.3646921
  2. Izsak, R.; Hansen, A.; Neese, F.
     The resolution of identity and chain of spheres approximations for the LPNO-CCSD singles Fock term
     Molec. Phys. 2012 110 , 2413-2417
     doi.org/10.1080/00268976.2012.687466
  3. Neese, F.
     The ORCA program system
     WIRES Comput. Molec. Sci. 2012 2(1), 73-78
     doi.org/10.1002/wcms.81
  4. Izsak, R.; Neese, F.; Klopper, W.
     Robust fitting techniques in the chain of spheres approximation to the Fock exchange: The role of the complementary space
     J. Chem. Phys. 2013 139 , 
     doi.org/10.1063/1.4819264
  5. Neese, F.
     Software update: the ORCA program system, version 4.0
     WIRES Comput. Molec. Sci. 2018 8(1), 1-6
     doi.org/10.1002/wcms.1327
  6. Neese, F.; Wennmohs, F.; Becker, U.; Riplinger, C.
     The ORCA quantum chemistry program package
     J. Chem. Phys. 2020 152(22), 224108
     doi.org/10.1063/5.0004608
  7. Neese, F.
     Software update: The ORCA program system—Version 5.0
     WIRES Comput. Molec. Sci. 2022 12(1), e1606
     doi.org/10.1002/wcms.1606

List of optional additional citations

  1. Neese, F.
     Approximate second-order SCF convergence for spin unrestricted wavefunctions
     Chem. Phys. Lett. 2000 325(1-3), 93-98
     doi.org/10.1016/s0009-2614(00)00662-x

Timings for individual modules:

Sum of individual times          ...      239.524 sec (=   3.992 min)
Startup calculation              ...       45.344 sec (=   0.756 min)  18.9 %
SCF iterations                   ...      123.668 sec (=   2.061 min)  51.6 %
Property integrals               ...       30.437 sec (=   0.507 min)  12.7 %
SCF Response                     ...        7.653 sec (=   0.128 min)   3.2 %
Property calculations            ...        6.253 sec (=   0.104 min)   2.6 %
SCF Gradient evaluation          ...       26.052 sec (=   0.434 min)  10.9 %
Geometry relaxation              ...        0.117 sec (=   0.002 min)   0.0 %
                             ****ORCA TERMINATED NORMALLY****
TOTAL RUN TIME: 0 days 0 hours 5 minutes 42 seconds 245 msec
