 Entering Gaussian System, Link 0=/project/xlzhang/shared/bin/g16/g16
 Input=/lustre/project/xlzhang/jingyi/chemsmart/test_pka/gaussian/pka_scale_frag1_pka_A_opt.com
 Output=/lustre/project/xlzhang/jingyi/chemsmart/test_pka/gaussian/pka_scale_frag1_pka_A_opt.log
 Initial command:
 /project/xlzhang/shared/bin/g16/l1.exe "/lustre/project/xlzhang/jingyi/chemsmart/test_pka/gaussian/Gau-3359672.inp" -scrdir="/lustre/project/xlzhang/jingyi/chemsmart/test_pka/gaussian/"
 Entering Link 1 = /project/xlzhang/shared/bin/g16/l1.exe PID=   3359673.
  
 Copyright (c) 1988-2017, Gaussian, Inc.  All Rights Reserved.
  
 This is part of the Gaussian(R) 16 program.  It is based on
 the Gaussian(R) 09 system (copyright 2009, Gaussian, Inc.),
 the Gaussian(R) 03 system (copyright 2003, Gaussian, Inc.),
 the Gaussian(R) 98 system (copyright 1998, Gaussian, Inc.),
 the Gaussian(R) 94 system (copyright 1995, Gaussian, Inc.),
 the Gaussian 92(TM) system (copyright 1992, Gaussian, Inc.),
 the Gaussian 90(TM) system (copyright 1990, Gaussian, Inc.),
 the Gaussian 88(TM) system (copyright 1988, Gaussian, Inc.),
 the Gaussian 86(TM) system (copyright 1986, Carnegie Mellon
 University), and the Gaussian 82(TM) system (copyright 1983,
 Carnegie Mellon University). Gaussian is a federally registered
 trademark of Gaussian, Inc.
  
 This software contains proprietary and confidential information,
 including trade secrets, belonging to Gaussian, Inc.
  
 This software is provided under written license and may be
 used, copied, transmitted, or stored only in accord with that
 written license.
  
 The following legend is applicable only to US Government
 contracts under FAR:
  
                    RESTRICTED RIGHTS LEGEND
  
 Use, reproduction and disclosure by the US Government is
 subject to restrictions as set forth in subparagraphs (a)
 and (c) of the Commercial Computer Software - Restricted
 Rights clause in FAR 52.227-19.
  
 Gaussian, Inc.
 340 Quinnipiac St., Bldg. 40, Wallingford CT 06492
  
  
 ---------------------------------------------------------------
 Warning -- This program may not be used in any manner that
 competes with the business of Gaussian, Inc. or will provide
 assistance to any competitor of Gaussian, Inc.  The licensee
 of this program is prohibited from giving any competitor of
 Gaussian, Inc. access to this program.  By using this program,
 the user acknowledges that Gaussian, Inc. is engaged in the
 business of creating and licensing software in the field of
 computational chemistry and represents and warrants to the
 licensee that it is not a competitor of Gaussian, Inc. and that
 it will not use this program in any manner prohibited above.
 ---------------------------------------------------------------
  

 Cite this work as:
 Gaussian 16, Revision B.01,
 M. J. Frisch, G. W. Trucks, H. B. Schlegel, G. E. Scuseria, 
 M. A. Robb, J. R. Cheeseman, G. Scalmani, V. Barone, 
 G. A. Petersson, H. Nakatsuji, X. Li, M. Caricato, A. V. Marenich, 
 J. Bloino, B. G. Janesko, R. Gomperts, B. Mennucci, H. P. Hratchian, 
 J. V. Ortiz, A. F. Izmaylov, J. L. Sonnenberg, D. Williams-Young, 
 F. Ding, F. Lipparini, F. Egidi, J. Goings, B. Peng, A. Petrone, 
 T. Henderson, D. Ranasinghe, V. G. Zakrzewski, J. Gao, N. Rega, 
 G. Zheng, W. Liang, M. Hada, M. Ehara, K. Toyota, R. Fukuda, 
 J. Hasegawa, M. Ishida, T. Nakajima, Y. Honda, O. Kitao, H. Nakai, 
 T. Vreven, K. Throssell, J. A. Montgomery, Jr., J. E. Peralta, 
 F. Ogliaro, M. J. Bearpark, J. J. Heyd, E. N. Brothers, K. N. Kudin, 
 V. N. Staroverov, T. A. Keith, R. Kobayashi, J. Normand, 
 K. Raghavachari, A. P. Rendell, J. C. Burant, S. S. Iyengar, 
 J. Tomasi, M. Cossi, J. M. Millam, M. Klene, C. Adamo, R. Cammi, 
 J. W. Ochterski, R. L. Martin, K. Morokuma, O. Farkas, 
 J. B. Foresman, and D. J. Fox, Gaussian, Inc., Wallingford CT, 2016.
 
 ******************************************
 Gaussian 16:  ES64L-G16RevB.01 20-Dec-2017
                10-Jun-2026 
 ******************************************
 %chk=pka_scale_frag1_pka_A_opt.chk
 %nprocshared=64
 Will use up to   64 processors via shared memory.
 %mem=180GB
 -----------------------
 # opt freq mn15 def2svp
 -----------------------
 1/18=20,19=15,26=3,38=1/1,3;
 2/9=110,12=2,17=6,18=5,40=1/2;
 3/5=43,7=101,11=2,25=1,30=1,71=1,74=-73/1,2,3;
 4//1;
 5/5=2,38=5/2;
 6/7=2,8=2,9=2,10=2,28=1/1;
 7//1,2,3,16;
 1/18=20,19=15,26=3/3(2);
 2/9=110/2;
 99//99;
 2/9=110/2;
 3/5=43,7=101,11=2,25=1,30=1,71=1,74=-73/1,2,3;
 4/5=5,16=3,69=1/1;
 5/5=2,38=5/2;
 7//1,2,3,16;
 1/18=20,19=15,26=3/3(-5);
 2/9=110/2;
 6/7=2,8=2,9=2,10=2,19=2,28=1/1;
 99/9=1/99;
 ----------------------------
 Gaussian pKa calculation job
 ----------------------------
 Symbolic Z-matrix:
 Charge = -1 Multiplicity = 1
 C                     1.27638   0.31439   0.26145 
 C                     0.82562  -0.92307  -0.21406 
 C                    -0.55334  -1.07871  -0.43156 
 C                    -1.44641  -0.01726  -0.18033 
 C                    -0.95252   1.20971   0.29101 
 C                     0.41514   1.38843   0.51639 
 N                    -1.88229   2.31838   0.55219 
 O                    -3.08012   2.12806   0.30875 
 O                    -1.40583   3.3689    0.99937 
 N                     2.68761   0.51764   0.50818 
 O                     3.13672   0.08159   1.57494 
 O                     3.30871   1.17054  -0.33954 
 N                    -1.10076  -2.34798  -0.92772 
 O                    -0.29903  -3.27277  -1.12689 
 O                    -2.3208   -2.41849  -1.11601 
 O                     1.75551  -1.89755  -0.44821 
 H                    -2.51642  -0.14456  -0.35139 
 H                     0.81402   2.33436   0.88167 
 

 GradGradGradGradGradGradGradGradGradGradGradGradGradGradGradGradGradGrad
 Berny optimization.
 Initialization pass.
                           ----------------------------
                           !    Initial Parameters    !
                           ! (Angstroms and Degrees)  !
 --------------------------                            --------------------------
 ! Name  Definition              Value          Derivative Info.                !
 --------------------------------------------------------------------------------
 ! R1    R(1,2)                  1.4002         estimate D2E/DX2                !
 ! R2    R(1,6)                  1.4001         estimate D2E/DX2                !
 ! R3    R(1,10)                 1.447          estimate D2E/DX2                !
 ! R4    R(2,3)                  1.4047         estimate D2E/DX2                !
 ! R5    R(2,16)                 1.3672         estimate D2E/DX2                !
 ! R6    R(3,4)                  1.4097         estimate D2E/DX2                !
 ! R7    R(3,13)                 1.4686         estimate D2E/DX2                !
 ! R8    R(4,5)                  1.4041         estimate D2E/DX2                !
 ! R9    R(4,17)                 1.091          estimate D2E/DX2                !
 ! R10   R(5,6)                  1.3976         estimate D2E/DX2                !
 ! R11   R(5,7)                  1.4703         estimate D2E/DX2                !
 ! R12   R(6,18)                 1.0897         estimate D2E/DX2                !
 ! R13   R(7,8)                  1.237          estimate D2E/DX2                !
 ! R14   R(7,9)                  1.2372         estimate D2E/DX2                !
 ! R15   R(10,11)                1.2369         estimate D2E/DX2                !
 ! R16   R(10,12)                1.2372         estimate D2E/DX2                !
 ! R17   R(13,14)                1.24           estimate D2E/DX2                !
 ! R18   R(13,15)                1.2365         estimate D2E/DX2                !
 ! A1    A(2,1,6)              122.8035         estimate D2E/DX2                !
 ! A2    A(2,1,10)             119.7364         estimate D2E/DX2                !
 ! A3    A(6,1,10)             117.4601         estimate D2E/DX2                !
 ! A4    A(1,2,3)              117.8102         estimate D2E/DX2                !
 ! A5    A(1,2,16)             117.9781         estimate D2E/DX2                !
 ! A6    A(3,2,16)             124.209          estimate D2E/DX2                !
 ! A7    A(2,3,4)              120.7226         estimate D2E/DX2                !
 ! A8    A(2,3,13)             120.9307         estimate D2E/DX2                !
 ! A9    A(4,3,13)             118.3466         estimate D2E/DX2                !
 ! A10   A(3,4,5)              119.6657         estimate D2E/DX2                !
 ! A11   A(3,4,17)             120.3639         estimate D2E/DX2                !
 ! A12   A(5,4,17)             119.9703         estimate D2E/DX2                !
 ! A13   A(4,5,6)              120.6702         estimate D2E/DX2                !
 ! A14   A(4,5,7)              119.7425         estimate D2E/DX2                !
 ! A15   A(6,5,7)              119.5873         estimate D2E/DX2                !
 ! A16   A(1,6,5)              118.3268         estimate D2E/DX2                !
 ! A17   A(1,6,18)             120.119          estimate D2E/DX2                !
 ! A18   A(5,6,18)             121.5542         estimate D2E/DX2                !
 ! A19   A(5,7,8)              117.4739         estimate D2E/DX2                !
 ! A20   A(5,7,9)              117.4488         estimate D2E/DX2                !
 ! A21   A(8,7,9)              125.0773         estimate D2E/DX2                !
 ! A22   A(1,10,11)            116.8519         estimate D2E/DX2                !
 ! A23   A(1,10,12)            116.5452         estimate D2E/DX2                !
 ! A24   A(11,10,12)           126.4925         estimate D2E/DX2                !
 ! A25   A(3,13,14)            117.246          estimate D2E/DX2                !
 ! A26   A(3,13,15)            117.9377         estimate D2E/DX2                !
 ! A27   A(14,13,15)           124.8163         estimate D2E/DX2                !
 ! D1    D(6,1,2,3)             -0.3843         estimate D2E/DX2                !
 ! D2    D(6,1,2,16)           179.0383         estimate D2E/DX2                !
 ! D3    D(10,1,2,3)           179.6071         estimate D2E/DX2                !
 ! D4    D(10,1,2,16)           -0.9703         estimate D2E/DX2                !
 ! D5    D(2,1,6,5)              0.3231         estimate D2E/DX2                !
 ! D6    D(2,1,6,18)          -179.7119         estimate D2E/DX2                !
 ! D7    D(10,1,6,5)          -179.6685         estimate D2E/DX2                !
 ! D8    D(10,1,6,18)            0.2966         estimate D2E/DX2                !
 ! D9    D(2,1,10,11)          -80.6523         estimate D2E/DX2                !
 ! D10   D(2,1,10,12)          102.9169         estimate D2E/DX2                !
 ! D11   D(6,1,10,11)           99.3395         estimate D2E/DX2                !
 ! D12   D(6,1,10,12)          -77.0913         estimate D2E/DX2                !
 ! D13   D(1,2,3,4)              0.1786         estimate D2E/DX2                !
 ! D14   D(1,2,3,13)          -179.9269         estimate D2E/DX2                !
 ! D15   D(16,2,3,4)          -179.2049         estimate D2E/DX2                !
 ! D16   D(16,2,3,13)            0.6897         estimate D2E/DX2                !
 ! D17   D(2,3,4,5)              0.0744         estimate D2E/DX2                !
 ! D18   D(2,3,4,17)           179.9949         estimate D2E/DX2                !
 ! D19   D(13,3,4,5)          -179.8228         estimate D2E/DX2                !
 ! D20   D(13,3,4,17)            0.0977         estimate D2E/DX2                !
 ! D21   D(2,3,13,14)            0.9275         estimate D2E/DX2                !
 ! D22   D(2,3,13,15)         -179.0795         estimate D2E/DX2                !
 ! D23   D(4,3,13,14)         -179.1756         estimate D2E/DX2                !
 ! D24   D(4,3,13,15)            0.8175         estimate D2E/DX2                !
 ! D25   D(3,4,5,6)             -0.1396         estimate D2E/DX2                !
 ! D26   D(3,4,5,7)            179.9328         estimate D2E/DX2                !
 ! D27   D(17,4,5,6)           179.9396         estimate D2E/DX2                !
 ! D28   D(17,4,5,7)             0.012          estimate D2E/DX2                !
 ! D29   D(4,5,6,1)             -0.0523         estimate D2E/DX2                !
 ! D30   D(4,5,6,18)           179.9832         estimate D2E/DX2                !
 ! D31   D(7,5,6,1)            179.8754         estimate D2E/DX2                !
 ! D32   D(7,5,6,18)            -0.0891         estimate D2E/DX2                !
 ! D33   D(4,5,7,8)             -1.7762         estimate D2E/DX2                !
 ! D34   D(4,5,7,9)            178.1712         estimate D2E/DX2                !
 ! D35   D(6,5,7,8)            178.2954         estimate D2E/DX2                !
 ! D36   D(6,5,7,9)             -1.7572         estimate D2E/DX2                !
 --------------------------------------------------------------------------------
 Trust Radius=3.00D-01 FncErr=1.00D-07 GrdErr=1.00D-06 EigMax=2.50D+02 EigMin=1.00D-04
 Number of steps in this run=     91 maximum allowed number of steps=    108.
 GradGradGradGradGradGradGradGradGradGradGradGradGradGradGradGradGradGrad

                          Input orientation:                          
 ---------------------------------------------------------------------
 Center     Atomic      Atomic             Coordinates (Angstroms)
 Number     Number       Type             X           Y           Z
 ---------------------------------------------------------------------
      1          6           0        1.276381    0.314391    0.261446
      2          6           0        0.825624   -0.923066   -0.214055
      3          6           0       -0.553342   -1.078713   -0.431561
      4          6           0       -1.446412   -0.017258   -0.180329
      5          6           0       -0.952518    1.209706    0.291013
      6          6           0        0.415136    1.388427    0.516386
      7          7           0       -1.882286    2.318380    0.552192
      8          8           0       -3.080116    2.128060    0.308745
      9          8           0       -1.405833    3.368904    0.999366
     10          7           0        2.687606    0.517639    0.508183
     11          8           0        3.136720    0.081586    1.574936
     12          8           0        3.308709    1.170541   -0.339538
     13          7           0       -1.100763   -2.347977   -0.927723
     14          8           0       -0.299032   -3.272775   -1.126888
     15          8           0       -2.320798   -2.418491   -1.116006
     16          8           0        1.755509   -1.897550   -0.448208
     17          1           0       -2.516421   -0.144556   -0.351393
     18          1           0        0.814024    2.334363    0.881672
 ---------------------------------------------------------------------
                    Distance matrix (angstroms):
                    1          2          3          4          5
     1  C    0.000000
     2  C    1.400209   0.000000
     3  C    2.401850   1.404664   0.000000
     4  C    2.778265   2.446175   1.409744   0.000000
     5  C    2.402177   2.822340   2.432759   1.404114   0.000000
     6  C    1.400103   2.458667   2.814841   2.434485   1.397573
     7  N    3.752023   4.292655   3.778108   2.486318   1.470319
     8  O    4.719184   4.983724   4.149221   2.740543   2.317404
     9  O    4.131445   4.987263   4.749272   3.586003   2.317195
    10  N    1.446978   2.462567   3.732988   4.224957   3.711687
    11  O    2.289173   3.090466   4.357623   4.908749   4.432040
    12  O    2.285724   3.250331   4.470240   4.903813   4.307805
    13  N    3.762066   2.500131   1.468632   2.471907   3.763563
    14  O    4.156580   2.760298   2.315612   3.579224   4.746591
    15  O    4.722893   3.598580   2.321072   2.721390   4.125010
    16  O    2.371889   1.367162   2.449809   3.722842   4.187470
    17  H    3.869308   3.434269   2.175490   1.091049   2.166218
    18  H    2.163039   3.436801   3.904274   3.430384   2.175868
                    6          7          8          9         10
     6  C    0.000000
     7  N    2.478758   0.000000
     8  O    3.578681   1.237047   0.000000
     9  O    2.733402   1.237164   2.195422   0.000000
    10  N    2.433610   4.912079   5.991649   5.012705   0.000000
    11  O    3.199278   5.589246   6.666360   5.636712   1.236853
    12  O    3.025367   5.390654   6.492627   5.371440   1.237208
    13  N    4.283003   4.957400   5.047931   6.040651   4.962390
    14  O    4.993714   6.048720   6.242155   7.061010   5.095164
    15  O    4.964137   5.041143   4.824687   6.229438   6.028512
    16  O    3.677592   5.657598   6.337333   6.310712   2.759823
    17  H    3.420102   2.699008   2.432759   3.924583   5.315944
    18  H    1.089652   2.716413   3.941464   2.451916   2.636340
                   11         12         13         14         15
    11  O    0.000000
    12  O    2.209211   0.000000
    13  N    5.488382   5.671805   0.000000
    14  O    5.509626   5.777436   1.240036   0.000000
    15  O    6.578454   6.721265   1.236491   2.194871   0.000000
    16  O    3.149259   3.440555   2.931059   2.563784   4.163366
    17  H    5.976611   5.971747   2.681662   3.912028   2.407007
    18  H    3.309159   3.011526   5.372581   6.059142   6.033859
                   16         17         18
    16  O    0.000000
    17  H    4.618630   0.000000
    18  H    4.534762   4.330976   0.000000
 Stoichiometry    C6H2N3O7(1-)
 Framework group  C1[X(C6H2N3O7)]
 Deg. of freedom    48
 Full point group                 C1      NOp   1
 Largest Abelian subgroup         C1      NOp   1
 Largest concise Abelian subgroup C1      NOp   1
                         Standard orientation:                         
 ---------------------------------------------------------------------
 Center     Atomic      Atomic             Coordinates (Angstroms)
 Number     Number       Type             X           Y           Z
 ---------------------------------------------------------------------
      1          6           0       -0.670972   -1.124365   -0.003073
      2          6           0       -1.265443    0.143350   -0.012418
      3          6           0       -0.418866    1.264216   -0.005470
      4          6           0        0.982199    1.108499    0.006622
      5          6           0        1.538122   -0.180870    0.010199
      6          6           0        0.716553   -1.311449    0.004821
      7          7           0        2.999183   -0.345233    0.021310
      8          8           0        3.689179    0.681118   -0.006876
      9          8           0        3.442941   -1.499452    0.059137
     10          7           0       -1.503819   -2.307626   -0.001117
     11          8           0       -1.977252   -2.655779    1.087211
     12          8           0       -1.614489   -2.907652   -1.077409
     13          7           0       -0.969100    2.625857   -0.012922
     14          8           0       -2.203934    2.739204   -0.007667
     15          8           0       -0.173335    3.572192   -0.023791
     16          8           0       -2.630635    0.211383   -0.039867
     17          1           0        1.634302    1.983212    0.011887
     18          1           0        1.132485   -2.318591    0.007224
 ---------------------------------------------------------------------
 Rotational constants (GHZ):           0.5575822           0.5127923           0.2781758
 Standard basis: def2SVP (5D, 7F)
 There are   250 symmetry adapted cartesian basis functions of A   symmetry.
 There are   234 symmetry adapted basis functions of A   symmetry.
   234 basis functions,   414 primitive gaussians,   250 cartesian basis functions
    58 alpha electrons       58 beta electrons
       nuclear repulsion energy      1079.0900340342 Hartrees.
 NAtoms=   18 NActive=   18 NUniq=   18 SFac= 1.00D+00 NAtFMM=   60 NAOKFM=F Big=F
 Integral buffers will be    131072 words long.
 Raffenetti 2 integral format.
 Two-electron integral symmetry is turned on.
 One-electron integrals computed using PRISM.
   1 Symmetry operations used in ECPInt.
 ECPInt:  NShTT=    5253 NPrTT=   20717 LenC2=    4834 LenP2D=   13453.
 LDataN:  DoStor=T MaxTD1= 4 Len=   56
 NBasis=   234 RedAO= T EigKep=  1.83D-04  NBF=   234
 NBsUse=   234 1.00D-06 EigRej= -1.00D+00 NBFU=   234
 ExpMin= 1.22D-01 ExpMax= 2.27D+03 ExpMxC= 3.41D+02 IAcc=3 IRadAn=         5 AccDes= 0.00D+00
 Harris functional with IExCor= 1009 and IRadAn=       5 diagonalized for initial guess.
 HarFok:  IExCor= 1009 AccDes= 0.00D+00 IRadAn=         5 IDoV= 1 UseB2=F ITyADJ=14
 ICtDFT=  3500011 ScaDFX=  1.000000  1.000000  1.000000  1.000000
 FoFCou: FMM=F IPFlag=           0 FMFlag=      100000 FMFlg1=           0
         NFxFlg=           0 DoJE=T BraDBF=F KetDBF=T FulRan=T
         wScrn=  0.000000 ICntrl=       500 IOpCl=  0 I1Cent=   200000004 NGrid=           0
         NMat0=    1 NMatS0=      1 NMatT0=    0 NMatD0=    1 NMtDS0=    0 NMtDT0=    0
 Petite list used in FoFCou.
 Requested convergence on RMS density matrix=1.00D-08 within 128 cycles.
 Requested convergence on MAX density matrix=1.00D-06.
 Requested convergence on             energy=1.00D-06.
 No special actions if energy rises.
 Integral accuracy reduced to 1.0D-05 until final iterations.
 EnCoef did     2 forward-backward iterations
 EnCoef did     3 forward-backward iterations
 Initial convergence to 1.0D-05 achieved.  Increase integral accuracy.
 SCF Done:  E(RMN15) =  -918.690380390     A.U. after   21 cycles
            NFock= 21  Conv=0.38D-08     -V/T= 2.0090

 **********************************************************************

            Population analysis using the SCF Density.

 **********************************************************************

 Orbital symmetries:
       Occupied  (A) (A) (A) (A) (A) (A) (A) (A) (A) (A) (A) (A)
                 (A) (A) (A) (A) (A) (A) (A) (A) (A) (A) (A) (A)
                 (A) (A) (A) (A) (A) (A) (A) (A) (A) (A) (A) (A)
                 (A) (A) (A) (A) (A) (A) (A) (A) (A) (A) (A) (A)
                 (A) (A) (A) (A) (A) (A) (A) (A) (A) (A)
       Virtual   (A) (A) (A) (A) (A) (A) (A) (A) (A) (A) (A) (A)
                 (A) (A) (A) (A) (A) (A) (A) (A) (A) (A) (A) (A)
                 (A) (A) (A) (A) (A) (A) (A) (A) (A) (A) (A) (A)
                 (A) (A) (A) (A) (A) (A) (A) (A) (A) (A) (A) (A)
                 (A) (A) (A) (A) (A) (A) (A) (A) (A) (A) (A) (A)
                 (A) (A) (A) (A) (A) (A) (A) (A) (A) (A) (A) (A)
                 (A) (A) (A) (A) (A) (A) (A) (A) (A) (A) (A) (A)
                 (A) (A) (A) (A) (A) (A) (A) (A) (A) (A) (A) (A)
                 (A) (A) (A) (A) (A) (A) (A) (A) (A) (A) (A) (A)
                 (A) (A) (A) (A) (A) (A) (A) (A) (A) (A) (A) (A)
                 (A) (A) (A) (A) (A) (A) (A) (A) (A) (A) (A) (A)
                 (A) (A) (A) (A) (A) (A) (A) (A) (A) (A) (A) (A)
                 (A) (A) (A) (A) (A) (A) (A) (A) (A) (A) (A) (A)
                 (A) (A) (A) (A) (A) (A) (A) (A) (A) (A) (A) (A)
                 (A) (A) (A) (A) (A) (A) (A) (A)
 The electronic state is 1-A.
 Alpha  occ. eigenvalues --  -18.73951 -18.73900 -18.73642 -18.73557 -18.71572
 Alpha  occ. eigenvalues --  -18.71413 -18.63162 -14.23341 -14.22967 -14.21466
 Alpha  occ. eigenvalues --  -10.00837 -10.00014  -9.99459  -9.99110  -9.98804
 Alpha  occ. eigenvalues --   -9.98683  -1.14145  -1.13983  -1.12081  -0.96843
 Alpha  occ. eigenvalues --   -0.96781  -0.94651  -0.86182  -0.80722  -0.75105
 Alpha  occ. eigenvalues --   -0.73340  -0.64891  -0.62843  -0.59906  -0.51070
 Alpha  occ. eigenvalues --   -0.50663  -0.49042  -0.47939  -0.47681  -0.45988
 Alpha  occ. eigenvalues --   -0.45833  -0.45094  -0.44428  -0.43828  -0.42556
 Alpha  occ. eigenvalues --   -0.39718  -0.39061  -0.34016  -0.33934  -0.28600
 Alpha  occ. eigenvalues --   -0.25598  -0.25386  -0.24930  -0.24412  -0.24172
 Alpha  occ. eigenvalues --   -0.23865  -0.23653  -0.23111  -0.21990  -0.21633
 Alpha  occ. eigenvalues --   -0.20164  -0.13834  -0.12492
 Alpha virt. eigenvalues --    0.04855   0.05907   0.07005   0.13171   0.16431
 Alpha virt. eigenvalues --    0.21824   0.26426   0.28192   0.30061   0.31236
 Alpha virt. eigenvalues --    0.34232   0.38213   0.38951   0.39624   0.41131
 Alpha virt. eigenvalues --    0.41986   0.43580   0.44351   0.45806   0.47613
 Alpha virt. eigenvalues --    0.50644   0.51777   0.51907   0.55789   0.57341
 Alpha virt. eigenvalues --    0.57736   0.59595   0.62819   0.64485   0.65419
 Alpha virt. eigenvalues --    0.65941   0.66074   0.71440   0.72755   0.73549
 Alpha virt. eigenvalues --    0.75854   0.76133   0.77393   0.79471   0.81931
 Alpha virt. eigenvalues --    0.82138   0.82854   0.84808   0.86488   0.89203
 Alpha virt. eigenvalues --    0.90125   0.92141   0.93084   0.94371   0.97052
 Alpha virt. eigenvalues --    0.97399   0.99136   1.03621   1.04916   1.05224
 Alpha virt. eigenvalues --    1.05649   1.06047   1.07412   1.09149   1.09980
 Alpha virt. eigenvalues --    1.10722   1.12641   1.13430   1.14099   1.16157
 Alpha virt. eigenvalues --    1.16414   1.17316   1.18290   1.20123   1.21179
 Alpha virt. eigenvalues --    1.23645   1.24902   1.26055   1.28215   1.30701
 Alpha virt. eigenvalues --    1.30942   1.31576   1.36247   1.38386   1.39395
 Alpha virt. eigenvalues --    1.43422   1.44471   1.46003   1.48474   1.49311
 Alpha virt. eigenvalues --    1.51552   1.52591   1.56752   1.58066   1.58870
 Alpha virt. eigenvalues --    1.59999   1.62141   1.63605   1.67437   1.74826
 Alpha virt. eigenvalues --    1.79676   1.82121   1.83765   1.84048   1.85509
 Alpha virt. eigenvalues --    1.87976   1.88090   1.89979   1.90353   1.91572
 Alpha virt. eigenvalues --    1.95677   2.00149   2.00663   2.04335   2.07372
 Alpha virt. eigenvalues --    2.09924   2.14465   2.18372   2.20551   2.24641
 Alpha virt. eigenvalues --    2.26829   2.29548   2.31676   2.32504   2.34562
 Alpha virt. eigenvalues --    2.38413   2.42500   2.44349   2.45378   2.45991
 Alpha virt. eigenvalues --    2.47713   2.48784   2.50110   2.51837   2.61244
 Alpha virt. eigenvalues --    2.62115   2.62884   2.65966   2.69151   2.72000
 Alpha virt. eigenvalues --    2.72639   2.73992   2.74252   2.75007   2.75488
 Alpha virt. eigenvalues --    2.76281   2.77434   2.78862   2.80432   2.82532
 Alpha virt. eigenvalues --    2.83256   2.84446   2.86761   2.86785   2.87158
 Alpha virt. eigenvalues --    2.90273   2.91897   2.98667   3.02601   3.10769
 Alpha virt. eigenvalues --    3.11136   3.13735   3.14726   3.22159   3.26450
 Alpha virt. eigenvalues --    3.29924   3.31622   3.33070   3.34285   3.34765
 Alpha virt. eigenvalues --    3.44606   3.45725   3.48008   3.52313   3.67079
 Alpha virt. eigenvalues --    3.72601   3.79938   3.80532   3.81231   3.82788
 Alpha virt. eigenvalues --    3.83762
          Condensed to atoms (all electrons):
               1          2          3          4          5          6
     1  C    6.237962  -0.225870   0.143602  -0.271288   0.298983  -0.058994
     2  C   -0.225870   5.707177  -0.545339   0.251205  -0.333447   0.284626
     3  C    0.143602  -0.545339   6.526499  -0.114810   0.311145  -0.272218
     4  C   -0.271288   0.251205  -0.114810   5.712429  -0.073379   0.139512
     5  C    0.298983  -0.333447   0.311145  -0.073379   5.762836  -0.010346
     6  C   -0.058994   0.284626  -0.272218   0.139512  -0.010346   5.485249
     7  N    0.010628  -0.001673   0.008497  -0.072896   0.319394  -0.066648
     8  O    0.000121  -0.000053   0.003566   0.017264  -0.116258   0.005829
     9  O    0.003727  -0.000060   0.000121   0.005340  -0.120682   0.024328
    10  N    0.215707  -0.039626   0.014570  -0.001941   0.010089  -0.063705
    11  O   -0.029748  -0.008292  -0.000475  -0.000086  -0.000135  -0.008132
    12  O   -0.040052  -0.009304  -0.000504  -0.000056   0.000286  -0.002002
    13  N    0.011240  -0.083313   0.322281  -0.081843   0.011837  -0.002111
    14  O    0.001183  -0.002908  -0.082259   0.005870   0.000228  -0.000079
    15  O   -0.000074   0.001719  -0.126932   0.021455   0.003764  -0.000012
    16  O   -0.133142   0.780878  -0.133695   0.006804  -0.001229   0.006821
    17  H   -0.006131   0.024994  -0.064290   0.433098  -0.074425   0.020824
    18  H   -0.070874   0.020256  -0.005498   0.020347  -0.073861   0.443651
               7          8          9         10         11         12
     1  C    0.010628   0.000121   0.003727   0.215707  -0.029748  -0.040052
     2  C   -0.001673  -0.000053  -0.000060  -0.039626  -0.008292  -0.009304
     3  C    0.008497   0.003566   0.000121   0.014570  -0.000475  -0.000504
     4  C   -0.072896   0.017264   0.005340  -0.001941  -0.000086  -0.000056
     5  C    0.319394  -0.116258  -0.120682   0.010089  -0.000135   0.000286
     6  C   -0.066648   0.005829   0.024328  -0.063705  -0.008132  -0.002002
     7  N    5.944305   0.339611   0.340379  -0.000016   0.000000   0.000000
     8  O    0.339611   8.095636  -0.095629   0.000000  -0.000000  -0.000000
     9  O    0.340379  -0.095629   8.098807   0.000002  -0.000000  -0.000000
    10  N   -0.000016   0.000000   0.000002   6.019880   0.307827   0.301640
    11  O    0.000000  -0.000000  -0.000000   0.307827   8.069307  -0.089052
    12  O    0.000000  -0.000000  -0.000000   0.301640  -0.089052   8.091822
    13  N    0.000004  -0.000002   0.000000   0.000002   0.000001   0.000000
    14  O    0.000000  -0.000000  -0.000000   0.000005  -0.000000  -0.000000
    15  O   -0.000001  -0.000000  -0.000000   0.000000  -0.000000  -0.000000
    16  O    0.000000  -0.000000  -0.000000   0.005068  -0.001486  -0.000671
    17  H   -0.016450   0.022992   0.000448   0.000000   0.000000   0.000000
    18  H   -0.016611   0.000395   0.021172  -0.011222   0.000474   0.002483
              13         14         15         16         17         18
     1  C    0.011240   0.001183  -0.000074  -0.133142  -0.006131  -0.070874
     2  C   -0.083313  -0.002908   0.001719   0.780878   0.024994   0.020256
     3  C    0.322281  -0.082259  -0.126932  -0.133695  -0.064290  -0.005498
     4  C   -0.081843   0.005870   0.021455   0.006804   0.433098   0.020347
     5  C    0.011837   0.000228   0.003764  -0.001229  -0.074425  -0.073861
     6  C   -0.002111  -0.000079  -0.000012   0.006821   0.020824   0.443651
     7  N    0.000004   0.000000  -0.000001   0.000000  -0.016450  -0.016611
     8  O   -0.000002  -0.000000  -0.000000  -0.000000   0.022992   0.000395
     9  O    0.000000  -0.000000  -0.000000  -0.000000   0.000448   0.021172
    10  N    0.000002   0.000005   0.000000   0.005068   0.000000  -0.011222
    11  O    0.000001  -0.000000  -0.000000  -0.001486   0.000000   0.000474
    12  O    0.000000  -0.000000  -0.000000  -0.000671   0.000000   0.002483
    13  N    5.952187   0.357531   0.334909  -0.006141  -0.019277  -0.000000
    14  O    0.357531   8.043959  -0.096025  -0.014462   0.000457  -0.000000
    15  O    0.334909  -0.096025   8.127776  -0.000041   0.025696  -0.000000
    16  O   -0.006141  -0.014462  -0.000041   7.840954   0.000002  -0.000046
    17  H   -0.019277   0.000457   0.025696   0.000002   0.656194  -0.000168
    18  H   -0.000000  -0.000000  -0.000000  -0.000046  -0.000168   0.689231
 Mulliken charges:
               1
     1  C   -0.086979
     2  C    0.179029
     3  C    0.015739
     4  C    0.002976
     5  C    0.085200
     6  C    0.073408
     7  N    0.211476
     8  O   -0.273474
     9  O   -0.277953
    10  N    0.241720
    11  O   -0.240202
    12  O   -0.254591
    13  N    0.202695
    14  O   -0.213500
    15  O   -0.292235
    16  O   -0.349615
    17  H   -0.003965
    18  H   -0.019729
 Sum of Mulliken charges =  -1.00000
 Mulliken charges with hydrogens summed into heavy atoms:
               1
     1  C   -0.086979
     2  C    0.179029
     3  C    0.015739
     4  C   -0.000989
     5  C    0.085200
     6  C    0.053679
     7  N    0.211476
     8  O   -0.273474
     9  O   -0.277953
    10  N    0.241720
    11  O   -0.240202
    12  O   -0.254591
    13  N    0.202695
    14  O   -0.213500
    15  O   -0.292235
    16  O   -0.349615
 Electronic spatial extent (au):  <R**2>=           3593.4164
 Charge=             -1.0000 electrons
 Dipole moment (field-independent basis, Debye):
    X=              3.5945    Y=             -1.1971    Z=              0.0984  Tot=              3.7899
 Quadrupole moment (field-independent basis, Debye-Ang):
   XX=           -136.0068   YY=           -120.9829   ZZ=            -90.3551
   XY=              0.5002   XZ=              0.3549   YZ=             -0.3365
 Traceless Quadrupole moment (field-independent basis, Debye-Ang):
   XX=            -20.2252   YY=             -5.2013   ZZ=             25.4265
   XY=              0.5002   XZ=              0.3549   YZ=             -0.3365
 Octapole moment (field-independent basis, Debye-Ang**2):
  XXX=            -39.5955  YYY=            -36.4845  ZZZ=              0.0421  XYY=             30.9816
  XXY=              7.2616  XXZ=             -2.7270  XZZ=              6.2562  YZZ=             13.2424
  YYZ=              3.7031  XYZ=             -0.5035
 Hexadecapole moment (field-independent basis, Debye-Ang**3):
 XXXX=          -2653.4736 YYYY=          -2337.3634 ZZZZ=           -155.3085 XXXY=             53.2471
 XXXZ=              2.2607 YYYX=            -19.7520 YYYZ=            -11.1934 ZZZX=              0.7270
 ZZZY=             -0.8498 XXYY=           -817.1886 XXZZ=           -374.1367 YYZZ=           -369.9455
 XXYZ=              8.3703 YYXZ=             -0.7827 ZZXY=            -22.7100
 N-N= 1.079090034034D+03 E-N=-4.328325701027D+03  KE= 9.104873443599D+02
   1 Symmetry operations used in ECPInt.
 ECPInt:  NShTT=    5253 NPrTT=   20717 LenC2=    4834 LenP2D=   13453.
 LDataN:  DoStor=T MaxTD1= 5 Len=  102
 Calling FoFJK, ICntrl=      2127 FMM=F ISym2X=0 I1Cent= 0 IOpClX= 0 NMat=1 NMatS=1 NMatT=0.
 ***** Axes restored to original set *****
 -------------------------------------------------------------------
 Center     Atomic                   Forces (Hartrees/Bohr)
 Number     Number              X              Y              Z
 -------------------------------------------------------------------
      1        6          -0.031888238    0.052895963    0.014663339
      2        6           0.116756104   -0.125790350   -0.029351505
      3        6          -0.044857350    0.014637162   -0.000145161
      4        6           0.008277011   -0.008532921   -0.002349483
      5        6          -0.019448202    0.001144801   -0.001200050
      6        6           0.028697882   -0.016694598   -0.003768548
      7        7           0.000879501   -0.004967886   -0.001257557
      8        8           0.022154699    0.008406916    0.006347969
      9        8          -0.012364989   -0.017902615   -0.008496529
     10        7           0.026337040    0.002008753    0.008249878
     11        8          -0.007348532    0.012893719   -0.033601845
     12        8          -0.011015208   -0.017831008    0.025686915
     13        7           0.017659772   -0.014956087   -0.002544959
     14        8          -0.036095868    0.023437984    0.003146002
     15        8           0.016479071    0.000615815    0.002464509
     16        8          -0.073040280    0.089632252    0.022546533
     17        1           0.001200741   -0.000745347   -0.000255789
     18        1          -0.002383153    0.001747449   -0.000133718
 -------------------------------------------------------------------
 Cartesian Forces:  Max     0.125790350 RMS     0.033103676

 GradGradGradGradGradGradGradGradGradGradGradGradGradGradGradGradGradGrad
 Berny optimization.
 FormGI is forming the generalized inverse of G from B-inverse, IUseBI=4.
 Internal  Forces:  Max     0.117428270 RMS     0.018042803
 Search for a local minimum.
 Step number   1 out of a maximum of   91
 All quantities printed in internal units (Hartrees-Bohrs-Radians)
 Mixed Optimization -- RFO/linear search
 Second derivative matrix not updated -- first step.
 ITU=  0
     Eigenvalues ---    0.00762   0.00762   0.00784   0.00784   0.01070
     Eigenvalues ---    0.01101   0.01625   0.01680   0.01790   0.01991
     Eigenvalues ---    0.02006   0.02054   0.02066   0.02091   0.02105
     Eigenvalues ---    0.16000   0.16000   0.23497   0.23498   0.24998
     Eigenvalues ---    0.25000   0.25000   0.25000   0.25000   0.25000
     Eigenvalues ---    0.25000   0.25000   0.25000   0.25000   0.25000
     Eigenvalues ---    0.34692   0.34853   0.35702   0.35905   0.38644
     Eigenvalues ---    0.41054   0.41700   0.44528   0.45183   0.45365
     Eigenvalues ---    0.45799   0.51526   0.87030   0.88148   0.88166
     Eigenvalues ---    0.88212   0.88290   0.88435
 RFO step:  Lambda=-4.88647147D-02 EMin= 7.61589257D-03
 Linear search not attempted -- first point.
 Maximum step size (   0.300) exceeded in Quadratic search.
    -- Step size scaled by   0.950
 Iteration  1 RMS(Cart)=  0.07791281 RMS(Int)=  0.00297219
 Iteration  2 RMS(Cart)=  0.00386428 RMS(Int)=  0.00011105
 Iteration  3 RMS(Cart)=  0.00000611 RMS(Int)=  0.00011097
 Iteration  4 RMS(Cart)=  0.00000000 RMS(Int)=  0.00011097
 Variable       Old X    -DE/DX   Delta X   Delta X   Delta X     New X
                                 (Linear)    (Quad)   (Total)
    R1        2.64601   0.02978   0.00000   0.05854   0.05871   2.70472
    R2        2.64581  -0.02728   0.00000  -0.05128  -0.05126   2.59456
    R3        2.73439   0.00742   0.00000   0.01620   0.01620   2.75060
    R4        2.65443   0.03874   0.00000   0.07654   0.07669   2.73112
    R5        2.58356  -0.11743   0.00000  -0.19782  -0.19782   2.38574
    R6        2.66403  -0.02000   0.00000  -0.03885  -0.03887   2.62516
    R7        2.77531  -0.00817   0.00000  -0.01903  -0.01903   2.75628
    R8        2.65339  -0.01041   0.00000  -0.02239  -0.02257   2.63082
    R9        2.06178  -0.00105   0.00000  -0.00252  -0.00252   2.05926
   R10        2.64103   0.00712   0.00000   0.01079   0.01063   2.65166
   R11        2.77850  -0.01826   0.00000  -0.04275  -0.04275   2.73575
   R12        2.05914   0.00060   0.00000   0.00143   0.00143   2.06058
   R13        2.33768  -0.02399   0.00000  -0.02449  -0.02449   2.31319
   R14        2.33790  -0.02304   0.00000  -0.02353  -0.02353   2.31437
   R15        2.33731  -0.03620   0.00000  -0.03692  -0.03692   2.30040
   R16        2.33798  -0.03254   0.00000  -0.03324  -0.03324   2.30475
   R17        2.34333  -0.04132   0.00000  -0.04272  -0.04272   2.30061
   R18        2.33663  -0.01667   0.00000  -0.01698  -0.01698   2.31965
    A1        2.14333   0.00855   0.00000   0.03141   0.03160   2.17492
    A2        2.08979  -0.01155   0.00000  -0.03882  -0.03892   2.05088
    A3        2.05007   0.00299   0.00000   0.00741   0.00732   2.05738
    A4        2.05618  -0.02062   0.00000  -0.05683  -0.05648   1.99969
    A5        2.05911  -0.00179   0.00000  -0.01005  -0.01022   2.04889
    A6        2.16786   0.02240   0.00000   0.06687   0.06669   2.23455
    A7        2.10701   0.00273   0.00000   0.01301   0.01314   2.12015
    A8        2.11064   0.02029   0.00000   0.06236   0.06229   2.17293
    A9        2.06554  -0.02302   0.00000  -0.07536  -0.07543   1.99011
   A10        2.08856   0.00392   0.00000   0.00900   0.00880   2.09736
   A11        2.10075  -0.00296   0.00000  -0.00905  -0.00895   2.09179
   A12        2.09388  -0.00096   0.00000   0.00005   0.00016   2.09403
   A13        2.10609   0.00602   0.00000   0.01048   0.01014   2.11623
   A14        2.08990  -0.00313   0.00000  -0.00561  -0.00544   2.08446
   A15        2.08719  -0.00289   0.00000  -0.00487  -0.00470   2.08249
   A16        2.06519  -0.00062   0.00000  -0.00708  -0.00723   2.05797
   A17        2.09647   0.00326   0.00000   0.01698   0.01706   2.11353
   A18        2.12152  -0.00265   0.00000  -0.00990  -0.00983   2.11169
   A19        2.05031   0.00494   0.00000   0.01570   0.01570   2.06601
   A20        2.04987   0.00205   0.00000   0.00652   0.00652   2.05638
   A21        2.18301  -0.00699   0.00000  -0.02222  -0.02222   2.16079
   A22        2.03945   0.00432   0.00000   0.01447   0.01413   2.05358
   A23        2.03410   0.00536   0.00000   0.01777   0.01743   2.05153
   A24        2.20771  -0.00949   0.00000  -0.02945  -0.02979   2.17792
   A25        2.04633   0.01915   0.00000   0.06090   0.06090   2.10722
   A26        2.05840  -0.00917   0.00000  -0.02917  -0.02917   2.02923
   A27        2.17846  -0.00998   0.00000  -0.03173  -0.03173   2.14672
    D1       -0.00671  -0.00027   0.00000  -0.00381  -0.00382  -0.01053
    D2        3.12481  -0.00028   0.00000  -0.00439  -0.00438   3.12043
    D3        3.13473  -0.00023   0.00000  -0.00320  -0.00320   3.13153
    D4       -0.01693  -0.00023   0.00000  -0.00378  -0.00376  -0.02070
    D5        0.00564   0.00043   0.00000   0.00547   0.00550   0.01114
    D6       -3.13656   0.00027   0.00000   0.00350   0.00352  -3.13305
    D7       -3.13581   0.00039   0.00000   0.00488   0.00489  -3.13092
    D8        0.00518   0.00023   0.00000   0.00291   0.00290   0.00808
    D9       -1.40765   0.00248   0.00000   0.03945   0.03945  -1.36820
   D10        1.79624  -0.00029   0.00000  -0.00448  -0.00448   1.79176
   D11        1.73380   0.00252   0.00000   0.04003   0.04003   1.77383
   D12       -1.34550  -0.00025   0.00000  -0.00390  -0.00390  -1.34940
   D13        0.00312   0.00005   0.00000   0.00110   0.00105   0.00417
   D14       -3.14032   0.00003   0.00000   0.00122   0.00118  -3.13913
   D15       -3.12771   0.00023   0.00000   0.00227   0.00228  -3.12544
   D16        0.01204   0.00021   0.00000   0.00239   0.00241   0.01445
   D17        0.00130  -0.00004   0.00000  -0.00032  -0.00035   0.00095
   D18        3.14150  -0.00004   0.00000  -0.00033  -0.00034   3.14116
   D19       -3.13850  -0.00006   0.00000  -0.00058  -0.00060  -3.13910
   D20        0.00170  -0.00006   0.00000  -0.00059  -0.00060   0.00111
   D21        0.01619   0.00022   0.00000   0.00369   0.00369   0.01988
   D22       -3.12553  -0.00003   0.00000  -0.00064  -0.00064  -3.12617
   D23       -3.12720   0.00023   0.00000   0.00390   0.00390  -3.12331
   D24        0.01427  -0.00003   0.00000  -0.00043  -0.00044   0.01383
   D25       -0.00244   0.00011   0.00000   0.00181   0.00181  -0.00063
   D26        3.14042   0.00004   0.00000   0.00066   0.00067   3.14109
   D27        3.14054   0.00011   0.00000   0.00182   0.00181  -3.14084
   D28        0.00021   0.00004   0.00000   0.00067   0.00067   0.00088
   D29       -0.00091  -0.00031   0.00000  -0.00424  -0.00422  -0.00513
   D30        3.14130  -0.00014   0.00000  -0.00225  -0.00224   3.13906
   D31        3.13942  -0.00024   0.00000  -0.00309  -0.00308   3.13634
   D32       -0.00155  -0.00008   0.00000  -0.00110  -0.00110  -0.00266
   D33       -0.03100   0.00012   0.00000   0.00207   0.00206  -0.02894
   D34        3.10967   0.00028   0.00000   0.00471   0.00470   3.11437
   D35        3.11184   0.00005   0.00000   0.00093   0.00093   3.11278
   D36       -0.03067   0.00021   0.00000   0.00356   0.00357  -0.02710
         Item               Value     Threshold  Converged?
 Maximum Force            0.117428     0.000450     NO 
 RMS     Force            0.018043     0.000300     NO 
 Maximum Displacement     0.384859     0.001800     NO 
 RMS     Displacement     0.077087     0.001200     NO 
 Predicted change in Energy=-2.664963D-02
 GradGradGradGradGradGradGradGradGradGradGradGradGradGradGradGradGradGrad

                          Input orientation:                          
 ---------------------------------------------------------------------
 Center     Atomic      Atomic             Coordinates (Angstroms)
 Number     Number       Type             X           Y           Z
 ---------------------------------------------------------------------
      1          6           0        1.290272    0.341787    0.272419
      2          6           0        0.895133   -0.945008   -0.213975
      3          6           0       -0.525504   -1.094243   -0.433664
      4          6           0       -1.410826   -0.052246   -0.188198
      5          6           0       -0.938986    1.171340    0.279074
      6          6           0        0.428288    1.383025    0.512999
      7          7           0       -1.875696    2.246504    0.528925
      8          8           0       -3.060530    2.053053    0.289902
      9          8           0       -1.432268    3.300652    0.967179
     10          7           0        2.706783    0.557844    0.528251
     11          8           0        3.171072    0.102573    1.557342
     12          8           0        3.337280    1.199167   -0.295549
     13          7           0       -1.162487   -2.312069   -0.922082
     14          8           0       -0.502690   -3.307475   -1.158660
     15          8           0       -2.380237   -2.266540   -1.069674
     16          8           0        1.806109   -1.796936   -0.409409
     17          1           0       -2.477012   -0.193717   -0.363437
     18          1           0        0.793488    2.343899    0.876794
 ---------------------------------------------------------------------
                    Distance matrix (angstroms):
                    1          2          3          4          5
     1  C    0.000000
     2  C    1.431277   0.000000
     3  C    2.420285   1.445249   0.000000
     4  C    2.768278   2.472880   1.389175   0.000000
     5  C    2.378612   2.843592   2.410774   1.392170   0.000000
     6  C    1.372980   2.483178   2.818289   2.435985   1.403200
     7  N    3.703660   4.291287   3.729637   2.452472   1.447698
     8  O    4.675277   4.988941   4.105530   2.717055   2.297495
     9  O    4.080417   4.983728   4.701031   3.546446   2.291459
    10  N    1.455552   2.468104   3.755310   4.223767   3.705415
    11  O    2.290340   3.068368   4.365907   4.905575   4.434953
    12  O    2.290835   3.250880   4.494430   4.911422   4.314790
    13  N    3.806023   2.569839   1.458560   2.388945   3.691459
    14  O    4.310431   2.903031   2.329062   3.516109   4.724110
    15  O    4.698640   3.634105   2.284474   2.572908   3.964258
    16  O    2.303283   1.262479   2.435320   3.666272   4.101246
    17  H    3.857916   3.458054   2.150410   1.089714   2.154467
    18  H    2.149539   3.466557   3.908691   3.425598   2.175691
                    6          7          8          9         10
     6  C    0.000000
     7  N    2.460527   0.000000
     8  O    3.559573   1.224086   0.000000
     9  O    2.710210   1.224714   2.160196   0.000000
    10  N    2.423365   4.883717   5.962748   4.984716   0.000000
    11  O    3.202042   5.578884   6.651589   5.636199   1.217318
    12  O    3.024862   5.380687   6.481037   5.362771   1.219619
    13  N    4.271270   4.836805   4.911798   5.928299   5.031015
    14  O    5.065763   5.964878   6.113602   7.003617   5.299724
    15  O    4.869496   4.814316   4.579315   6.003419   6.033927
    16  O    3.586277   5.548474   6.244648   6.194149   2.689872
    17  H    3.419799   2.666940   2.411498   3.882351   5.313350
    18  H    1.090411   2.693519   3.909282   2.424363   2.640487
                   11         12         13         14         15
    11  O    0.000000
    12  O    2.159479   0.000000
    13  N    5.545968   5.741883   0.000000
    14  O    5.701019   5.983323   1.217429   0.000000
    15  O    6.582624   6.730556   1.227507   2.148638   0.000000
    16  O    3.056037   3.366613   3.056265   2.858961   4.264032
    17  H    5.973109   5.979191   2.554893   3.771712   2.191969
    18  H    3.337603   3.025835   5.360954   6.145012   5.925995
                   16         17         18
    16  O    0.000000
    17  H    4.573571   0.000000
    18  H    4.452666   4.321324   0.000000
 Stoichiometry    C6H2N3O7(1-)
 Framework group  C1[X(C6H2N3O7)]
 Deg. of freedom    48
 Full point group                 C1      NOp   1
 Largest Abelian subgroup         C1      NOp   1
 Largest concise Abelian subgroup C1      NOp   1
                         Standard orientation:                         
 ---------------------------------------------------------------------
 Center     Atomic      Atomic             Coordinates (Angstroms)
 Number     Number       Type             X           Y           Z
 ---------------------------------------------------------------------
      1          6           0       -1.174902   -0.630355   -0.002754
      2          6           0       -1.077089    0.797520   -0.015494
      3          6           0        0.275204    1.307413   -0.008033
      4          6           0        1.371832    0.454747    0.005168
      5          6           0        1.185370   -0.924870    0.010390
      6          6           0       -0.100884   -1.485646    0.003307
      7          7           0        2.339570   -1.798644    0.023528
      8          8           0        3.453389   -1.291525   -0.001478
      9          8           0        2.141549   -3.006770    0.057314
     10          7           0       -2.508837   -1.212771    0.003635
     11          8           0       -3.112591   -1.230729    1.060527
     12          8           0       -2.931832   -1.664986   -1.047101
     13          7           0        0.624181    2.723591   -0.015413
     14          8           0       -0.242923    3.578113   -0.007954
     15          8           0        1.822920    2.987630   -0.024418
     16          8           0       -2.155479    1.453373   -0.043510
     17          1           0        2.380153    0.867955    0.010136
     18          1           0       -0.242001   -2.566886    0.005069
 ---------------------------------------------------------------------
 Rotational constants (GHZ):           0.5578033           0.5222632           0.2803902
 Standard basis: def2SVP (5D, 7F)
 There are   250 symmetry adapted cartesian basis functions of A   symmetry.
 There are   234 symmetry adapted basis functions of A   symmetry.
   234 basis functions,   414 primitive gaussians,   250 cartesian basis functions
    58 alpha electrons       58 beta electrons
       nuclear repulsion energy      1086.0456521639 Hartrees.
 NAtoms=   18 NActive=   18 NUniq=   18 SFac= 1.00D+00 NAtFMM=   60 NAOKFM=F Big=F
 Integral buffers will be    131072 words long.
 Raffenetti 2 integral format.
 Two-electron integral symmetry is turned on.
 One-electron integrals computed using PRISM.
   1 Symmetry operations used in ECPInt.
 ECPInt:  NShTT=    5253 NPrTT=   20717 LenC2=    4842 LenP2D=   13480.
 LDataN:  DoStor=T MaxTD1= 4 Len=   56
 NBasis=   234 RedAO= T EigKep=  2.11D-04  NBF=   234
 NBsUse=   234 1.00D-06 EigRej= -1.00D+00 NBFU=   234
 Initial guess from the checkpoint file:  "pka_scale_frag1_pka_A_opt.chk"
 B after Tr=     0.000000    0.000000   -0.000000
         Rot=    0.961449    0.000705    0.000333    0.274982 Ang=  31.92 deg.
 ExpMin= 1.22D-01 ExpMax= 2.27D+03 ExpMxC= 3.41D+02 IAcc=3 IRadAn=         5 AccDes= 0.00D+00
 Harris functional with IExCor= 1009 and IRadAn=       5 diagonalized for initial guess.
 HarFok:  IExCor= 1009 AccDes= 0.00D+00 IRadAn=         5 IDoV= 1 UseB2=F ITyADJ=14
 ICtDFT=  3500011 ScaDFX=  1.000000  1.000000  1.000000  1.000000
 FoFCou: FMM=F IPFlag=           0 FMFlag=      100000 FMFlg1=           0
         NFxFlg=           0 DoJE=T BraDBF=F KetDBF=T FulRan=T
         wScrn=  0.000000 ICntrl=       500 IOpCl=  0 I1Cent=   200000004 NGrid=           0
         NMat0=    1 NMatS0=      1 NMatT0=    0 NMatD0=    1 NMtDS0=    0 NMtDT0=    0
 Petite list used in FoFCou.
 Requested convergence on RMS density matrix=1.00D-08 within 128 cycles.
 Requested convergence on MAX density matrix=1.00D-06.
 Requested convergence on             energy=1.00D-06.
 No special actions if energy rises.
 Integral accuracy reduced to 1.0D-05 until final iterations.
 Initial convergence to 1.0D-05 achieved.  Increase integral accuracy.
 SCF Done:  E(RMN15) =  -918.717892381     A.U. after   18 cycles
            NFock= 18  Conv=0.58D-08     -V/T= 2.0084
   1 Symmetry operations used in ECPInt.
 ECPInt:  NShTT=    5253 NPrTT=   20717 LenC2=    4842 LenP2D=   13480.
 LDataN:  DoStor=T MaxTD1= 5 Len=  102
 Calling FoFJK, ICntrl=      2127 FMM=F ISym2X=0 I1Cent= 0 IOpClX= 0 NMat=1 NMatS=1 NMatT=0.
 ***** Axes restored to original set *****
 -------------------------------------------------------------------
 Center     Atomic                   Forces (Hartrees/Bohr)
 Number     Number              X              Y              Z
 -------------------------------------------------------------------
      1        6          -0.019423569    0.031185843    0.009267369
      2        6           0.048786076   -0.052804727   -0.011893205
      3        6          -0.016025835    0.006626053    0.000455205
      4        6           0.003297542    0.003731686    0.001313762
      5        6          -0.011812042    0.004109679    0.000574690
      6        6           0.014203906   -0.004809189   -0.001317493
      7        7           0.002205690   -0.004664074   -0.001536870
      8        8           0.001006036    0.000830811    0.000709448
      9        8          -0.000206438    0.000642094    0.000128974
     10        7           0.011788917   -0.003312129    0.000934083
     11        8          -0.003397526    0.000615693   -0.004405427
     12        8          -0.003570076   -0.000724966    0.002821912
     13        7           0.002585944   -0.002490908    0.000094856
     14        8           0.003365198    0.006078229    0.002204948
     15        8          -0.001720902   -0.004290860   -0.001892577
     16        8          -0.030662132    0.017805612    0.002596966
     17        1           0.001581710    0.000535117    0.000265285
     18        1          -0.002002498    0.000936038   -0.000321925
 -------------------------------------------------------------------
 Cartesian Forces:  Max     0.052804727 RMS     0.012948786

 GradGradGradGradGradGradGradGradGradGradGradGradGradGradGradGradGradGrad
 Berny optimization.
 Using GEDIIS/GDIIS optimizer.
 FormGI is forming the generalized inverse of G from B-inverse, IUseBI=4.
 Internal  Forces:  Max     0.034542646 RMS     0.006581603
 Search for a local minimum.
 Step number   2 out of a maximum of   91
 All quantities printed in internal units (Hartrees-Bohrs-Radians)
 Mixed Optimization -- RFO/linear search
 Update second derivatives using D2CorX and points    1    2
 DE= -2.75D-02 DEPred=-2.66D-02 R= 1.03D+00
 TightC=F SS=  1.41D+00  RLast= 3.06D-01 DXNew= 5.0454D-01 9.1691D-01
 Trust test= 1.03D+00 RLast= 3.06D-01 DXMaxT set to 5.05D-01
 ITU=  1  0
 Use linear search instead of GDIIS.
     Eigenvalues ---    0.00762   0.00762   0.00784   0.00784   0.01069
     Eigenvalues ---    0.01080   0.01633   0.01683   0.01802   0.01991
     Eigenvalues ---    0.02006   0.02052   0.02067   0.02091   0.02105
     Eigenvalues ---    0.15934   0.16002   0.21694   0.23490   0.23561
     Eigenvalues ---    0.24998   0.25000   0.25000   0.25000   0.25000
     Eigenvalues ---    0.25000   0.25000   0.25000   0.25000   0.29219
     Eigenvalues ---    0.34677   0.34853   0.35837   0.36112   0.38530
     Eigenvalues ---    0.40714   0.41059   0.43126   0.45021   0.45320
     Eigenvalues ---    0.46191   0.51664   0.87228   0.87981   0.88193
     Eigenvalues ---    0.88227   0.88322   0.90342
 RFO step:  Lambda=-1.21372812D-02 EMin= 7.61565435D-03
 Quartic linear search produced a step of  0.15386.
 Iteration  1 RMS(Cart)=  0.04993278 RMS(Int)=  0.00167585
 Iteration  2 RMS(Cart)=  0.00215982 RMS(Int)=  0.00017992
 Iteration  3 RMS(Cart)=  0.00000195 RMS(Int)=  0.00017991
 Iteration  4 RMS(Cart)=  0.00000000 RMS(Int)=  0.00017991
 Variable       Old X    -DE/DX   Delta X   Delta X   Delta X     New X
                                 (Linear)    (Quad)   (Total)
    R1        2.70472   0.02162   0.00903   0.05858   0.06779   2.77252
    R2        2.59456  -0.00656  -0.00789  -0.01964  -0.02756   2.56699
    R3        2.75060   0.00407   0.00249   0.01282   0.01531   2.76591
    R4        2.73112   0.00755   0.01180   0.02539   0.03742   2.76855
    R5        2.38574  -0.03454  -0.03044  -0.09080  -0.12124   2.26450
    R6        2.62516   0.00227  -0.00598   0.00268  -0.00326   2.62190
    R7        2.75628  -0.00140  -0.00293  -0.00553  -0.00846   2.74782
    R8        2.63082  -0.00024  -0.00347  -0.00344  -0.00710   2.62372
    R9        2.05926  -0.00166  -0.00039  -0.00547  -0.00586   2.05341
   R10        2.65166   0.00633   0.00164   0.01527   0.01667   2.66833
   R11        2.73575  -0.00444  -0.00658  -0.01652  -0.02310   2.71266
   R12        2.06058   0.00005   0.00022   0.00024   0.00046   2.06104
   R13        2.31319  -0.00125  -0.00377  -0.00388  -0.00765   2.30554
   R14        2.31437   0.00053  -0.00362  -0.00151  -0.00513   2.30924
   R15        2.30040  -0.00525  -0.00568  -0.01017  -0.01585   2.28454
   R16        2.30475  -0.00413  -0.00511  -0.00841  -0.01352   2.29122
   R17        2.30061  -0.00358  -0.00657  -0.00862  -0.01519   2.28541
   R18        2.31965   0.00178  -0.00261   0.00070  -0.00191   2.31774
    A1        2.17492   0.00581   0.00486   0.02913   0.03412   2.20904
    A2        2.05088  -0.00860  -0.00599  -0.04049  -0.04655   2.00433
    A3        2.05738   0.00278   0.00113   0.01137   0.01243   2.06981
    A4        1.99969  -0.01191  -0.00869  -0.05093  -0.05916   1.94053
    A5        2.04889   0.01599  -0.00157   0.06782   0.06601   2.11490
    A6        2.23455  -0.00408   0.01026  -0.01686  -0.00683   2.22772
    A7        2.12015   0.00489   0.00202   0.02307   0.02537   2.14551
    A8        2.17293  -0.02075   0.00958  -0.08877  -0.07933   2.09360
    A9        1.99011   0.01585  -0.01161   0.06571   0.05396   2.04407
   A10        2.09736   0.00214   0.00135   0.00785   0.00904   2.10640
   A11        2.09179  -0.00075  -0.00138  -0.00182  -0.00311   2.08868
   A12        2.09403  -0.00139   0.00002  -0.00603  -0.00593   2.08810
   A13        2.11623  -0.00130   0.00156  -0.00914  -0.00802   2.10821
   A14        2.08446   0.00131  -0.00084   0.00744   0.00683   2.09129
   A15        2.08249  -0.00001  -0.00072   0.00169   0.00119   2.08368
   A16        2.05797   0.00036  -0.00111  -0.00004  -0.00145   2.05652
   A17        2.11353   0.00209   0.00262   0.01522   0.01799   2.13152
   A18        2.11169  -0.00245  -0.00151  -0.01518  -0.01655   2.09514
   A19        2.06601   0.00086   0.00242   0.00446   0.00685   2.07285
   A20        2.05638   0.00007   0.00100   0.00061   0.00158   2.05797
   A21        2.16079  -0.00093  -0.00342  -0.00504  -0.00849   2.15231
   A22        2.05358  -0.00168   0.00217  -0.00715  -0.00565   2.04793
   A23        2.05153  -0.00070   0.00268  -0.00271  -0.00070   2.05083
   A24        2.17792   0.00236  -0.00458   0.00864   0.00338   2.18130
   A25        2.10722  -0.01333   0.00937  -0.05578  -0.04655   2.06068
   A26        2.02923   0.01207  -0.00449   0.05170   0.04707   2.07630
   A27        2.14672   0.00126  -0.00488   0.00421  -0.00081   2.14591
    D1       -0.01053  -0.00022  -0.00059  -0.00676  -0.00734  -0.01787
    D2        3.12043  -0.00025  -0.00067  -0.00474  -0.00543   3.11500
    D3        3.13153  -0.00017  -0.00049  -0.00551  -0.00597   3.12557
    D4       -0.02070  -0.00020  -0.00058  -0.00349  -0.00406  -0.02475
    D5        0.01114   0.00031   0.00085   0.00823   0.00918   0.02032
    D6       -3.13305   0.00024   0.00054   0.00674   0.00735  -3.12570
    D7       -3.13092   0.00025   0.00075   0.00696   0.00774  -3.12317
    D8        0.00808   0.00019   0.00045   0.00546   0.00591   0.01399
    D9       -1.36820   0.00081   0.00607   0.01357   0.01967  -1.34853
   D10        1.79176   0.00157  -0.00069   0.08271   0.08200   1.87376
   D11        1.77383   0.00086   0.00616   0.01473   0.02092   1.79475
   D12       -1.34940   0.00162  -0.00060   0.08388   0.08325  -1.26615
   D13        0.00417   0.00007   0.00016   0.00259   0.00265   0.00682
   D14       -3.13913   0.00011   0.00018   0.00327   0.00333  -3.13580
   D15       -3.12544  -0.00003   0.00035  -0.00026   0.00009  -3.12534
   D16        0.01445   0.00000   0.00037   0.00041   0.00077   0.01522
   D17        0.00095  -0.00005  -0.00005  -0.00045  -0.00058   0.00037
   D18        3.14116  -0.00004  -0.00005  -0.00083  -0.00091   3.14025
   D19       -3.13910  -0.00005  -0.00009  -0.00092  -0.00111  -3.14021
   D20        0.00111  -0.00005  -0.00009  -0.00130  -0.00145  -0.00034
   D21        0.01988  -0.00025   0.00057  -0.01707  -0.01649   0.00339
   D22       -3.12617   0.00022  -0.00010   0.01358   0.01349  -3.11268
   D23       -3.12331  -0.00022   0.00060  -0.01646  -0.01587  -3.13918
   D24        0.01383   0.00025  -0.00007   0.01419   0.01411   0.02794
   D25       -0.00063   0.00007   0.00028   0.00153   0.00180   0.00117
   D26        3.14109   0.00003   0.00010   0.00021   0.00035   3.14144
   D27       -3.14084   0.00006   0.00028   0.00191   0.00213  -3.13871
   D28        0.00088   0.00002   0.00010   0.00060   0.00068   0.00156
   D29       -0.00513  -0.00019  -0.00065  -0.00512  -0.00570  -0.01083
   D30        3.13906  -0.00013  -0.00034  -0.00368  -0.00396   3.13510
   D31        3.13634  -0.00014  -0.00047  -0.00381  -0.00426   3.13209
   D32       -0.00266  -0.00009  -0.00017  -0.00237  -0.00252  -0.00518
   D33       -0.02894   0.00028   0.00032   0.01426   0.01456  -0.01438
   D34        3.11437   0.00009   0.00072   0.00111   0.00182   3.11619
   D35        3.11278   0.00023   0.00014   0.01297   0.01313   3.12591
   D36       -0.02710   0.00005   0.00055  -0.00017   0.00039  -0.02671
         Item               Value     Threshold  Converged?
 Maximum Force            0.034543     0.000450     NO 
 RMS     Force            0.006582     0.000300     NO 
 Maximum Displacement     0.210101     0.001800     NO 
 RMS     Displacement     0.050049     0.001200     NO 
 Predicted change in Energy=-7.180420D-03
 GradGradGradGradGradGradGradGradGradGradGradGradGradGradGradGradGradGrad

                          Input orientation:                          
 ---------------------------------------------------------------------
 Center     Atomic      Atomic             Coordinates (Angstroms)
 Number     Number       Type             X           Y           Z
 ---------------------------------------------------------------------
      1          6           0        1.269658    0.348999    0.268156
      2          6           0        0.894239   -0.980100   -0.226915
      3          6           0       -0.553427   -1.080608   -0.428255
      4          6           0       -1.424215   -0.029371   -0.179975
      5          6           0       -0.948582    1.191134    0.280273
      6          6           0        0.431058    1.391109    0.504778
      7          7           0       -1.866114    2.266273    0.530873
      8          8           0       -3.053766    2.086401    0.317281
      9          8           0       -1.413002    3.316473    0.961049
     10          7           0        2.700397    0.530628    0.517728
     11          8           0        3.153495    0.046427    1.528549
     12          8           0        3.320370    1.225712   -0.258519
     13          7           0       -1.134914   -2.323250   -0.909990
     14          8           0       -0.391750   -3.251747   -1.129580
     15          8           0       -2.345163   -2.377720   -1.101359
     16          8           0        1.721303   -1.823698   -0.427621
     17          1           0       -2.489410   -0.161858   -0.348915
     18          1           0        0.792012    2.356807    0.860678
 ---------------------------------------------------------------------
                    Distance matrix (angstroms):
                    1          2          3          4          5
     1  C    0.000000
     2  C    1.467153   0.000000
     3  C    2.419174   1.465052   0.000000
     4  C    2.756980   2.506256   1.387449   0.000000
     5  C    2.372747   2.892661   2.412255   1.388412   0.000000
     6  C    1.358394   2.524389   2.819423   2.434890   1.412020
     7  N    3.684838   4.328133   3.720846   2.443473   1.435476
     8  O    4.659718   5.028551   4.103348   2.716466   2.287941
     9  O    4.059885   5.019477   4.690774   3.535072   2.279519
    10  N    1.463656   2.469615   3.752111   4.220523   3.715872
    11  O    2.286698   3.039679   4.340572   4.886741   4.437971
    12  O    2.291600   3.279133   4.511566   4.908410   4.302958
    13  N    3.782977   2.527471   1.454082   2.424562   3.715150
    14  O    4.204677   2.762056   2.287321   3.514462   4.694352
    15  O    4.730486   3.634793   2.312117   2.685486   4.073827
    16  O    2.325661   1.198322   2.393027   3.629769   4.088840
    17  H    3.843480   3.483315   2.144394   1.086615   2.144904
    18  H    2.147213   3.511162   3.909908   3.418840   2.173783
                    6          7          8          9         10
     6  C    0.000000
     7  N    2.458372   0.000000
     8  O    3.558453   1.220038   0.000000
     9  O    2.704767   1.221999   2.149331   0.000000
    10  N    2.427034   4.885250   5.964143   4.987736   0.000000
    11  O    3.204363   5.578491   6.645206   5.645188   1.208928
    12  O    2.993009   5.348413   6.457704   5.316336   1.212464
    13  N    4.272037   4.865641   4.963185   5.948495   4.989250
    14  O    4.990416   5.948059   6.138042   6.968156   5.155711
    15  O    4.948854   4.945740   4.737408   6.127502   6.044634
    16  O    3.587351   5.524142   6.216514   6.178481   2.719404
    17  H    3.416084   2.656755   2.411842   3.869554   5.307043
    18  H    1.090654   2.680038   3.893380   2.406889   2.663546
                   11         12         13         14         15
    11  O    0.000000
    12  O    2.147597   0.000000
    13  N    5.472870   5.733159   0.000000
    14  O    5.523800   5.881005   1.209388   0.000000
    15  O    6.559584   6.767079   1.226495   2.140220   0.000000
    16  O    3.061885   3.447392   2.939424   2.645197   4.158968
    17  H    5.950683   5.973865   2.611720   3.815367   2.344573
    18  H    3.370536   2.987402   5.362019   6.067809   6.008927
                   16         17         18
    16  O    0.000000
    17  H    4.527473   0.000000
    18  H    4.472127   4.309816   0.000000
 Stoichiometry    C6H2N3O7(1-)
 Framework group  C1[X(C6H2N3O7)]
 Deg. of freedom    48
 Full point group                 C1      NOp   1
 Largest Abelian subgroup         C1      NOp   1
 Largest concise Abelian subgroup C1      NOp   1
                         Standard orientation:                         
 ---------------------------------------------------------------------
 Center     Atomic      Atomic             Coordinates (Angstroms)
 Number     Number       Type             X           Y           Z
 ---------------------------------------------------------------------
      1          6           0       -0.935341   -0.922151   -0.007028
      2          6           0       -1.266618    0.507045   -0.020784
      3          6           0       -0.055545    1.331371   -0.007847
      4          6           0        1.223119    0.793017    0.006566
      5          6           0        1.412895   -0.582362    0.008952
      6          6           0        0.310203   -1.464227   -0.004638
      7          7           0        2.744090   -1.119289    0.023757
      8          8           0        3.688693   -0.347154    0.018641
      9          8           0        2.870534   -2.334381    0.052835
     10          7           0       -2.090455   -1.820989    0.002617
     11          8           0       -2.673226   -1.964847    1.051994
     12          8           0       -2.336046   -2.428100   -1.017760
     13          7           0       -0.164171    2.781386   -0.011122
     14          8           0       -1.270814    3.269098   -0.021049
     15          8           0        0.861401    3.453763   -0.031159
     16          8           0       -2.405191    0.879648   -0.048981
     17          1           0        2.085198    1.454448    0.014467
     18          1           0        0.473457   -2.542586   -0.008721
 ---------------------------------------------------------------------
 Rotational constants (GHZ):           0.5575421           0.5263530           0.2811104
 Standard basis: def2SVP (5D, 7F)
 There are   250 symmetry adapted cartesian basis functions of A   symmetry.
 There are   234 symmetry adapted basis functions of A   symmetry.
   234 basis functions,   414 primitive gaussians,   250 cartesian basis functions
    58 alpha electrons       58 beta electrons
       nuclear repulsion energy      1089.0673991160 Hartrees.
 NAtoms=   18 NActive=   18 NUniq=   18 SFac= 1.00D+00 NAtFMM=   60 NAOKFM=F Big=F
 Integral buffers will be    131072 words long.
 Raffenetti 2 integral format.
 Two-electron integral symmetry is turned on.
 One-electron integrals computed using PRISM.
   1 Symmetry operations used in ECPInt.
 ECPInt:  NShTT=    5253 NPrTT=   20717 LenC2=    4845 LenP2D=   13490.
 LDataN:  DoStor=T MaxTD1= 4 Len=   56
 NBasis=   234 RedAO= T EigKep=  2.46D-04  NBF=   234
 NBsUse=   234 1.00D-06 EigRej= -1.00D+00 NBFU=   234
 Initial guess from the checkpoint file:  "pka_scale_frag1_pka_A_opt.chk"
 B after Tr=    -0.000000   -0.000000   -0.000000
         Rot=    0.990514    0.001717    0.000552   -0.137401 Ang=  15.80 deg.
 ExpMin= 1.22D-01 ExpMax= 2.27D+03 ExpMxC= 3.41D+02 IAcc=3 IRadAn=         5 AccDes= 0.00D+00
 Harris functional with IExCor= 1009 and IRadAn=       5 diagonalized for initial guess.
 HarFok:  IExCor= 1009 AccDes= 0.00D+00 IRadAn=         5 IDoV= 1 UseB2=F ITyADJ=14
 ICtDFT=  3500011 ScaDFX=  1.000000  1.000000  1.000000  1.000000
 FoFCou: FMM=F IPFlag=           0 FMFlag=      100000 FMFlg1=           0
         NFxFlg=           0 DoJE=T BraDBF=F KetDBF=T FulRan=T
         wScrn=  0.000000 ICntrl=       500 IOpCl=  0 I1Cent=   200000004 NGrid=           0
         NMat0=    1 NMatS0=      1 NMatT0=    0 NMatD0=    1 NMtDS0=    0 NMtDT0=    0
 Petite list used in FoFCou.
 Requested convergence on RMS density matrix=1.00D-08 within 128 cycles.
 Requested convergence on MAX density matrix=1.00D-06.
 Requested convergence on             energy=1.00D-06.
 No special actions if energy rises.
 Integral accuracy reduced to 1.0D-05 until final iterations.
 Initial convergence to 1.0D-05 achieved.  Increase integral accuracy.
 SCF Done:  E(RMN15) =  -918.721203280     A.U. after   16 cycles
            NFock= 16  Conv=0.63D-08     -V/T= 2.0081
   1 Symmetry operations used in ECPInt.
 ECPInt:  NShTT=    5253 NPrTT=   20717 LenC2=    4845 LenP2D=   13490.
 LDataN:  DoStor=T MaxTD1= 5 Len=  102
 Calling FoFJK, ICntrl=      2127 FMM=F ISym2X=0 I1Cent= 0 IOpClX= 0 NMat=1 NMatS=1 NMatT=0.
 ***** Axes restored to original set *****
 -------------------------------------------------------------------
 Center     Atomic                   Forces (Hartrees/Bohr)
 Number     Number              X              Y              Z
 -------------------------------------------------------------------
      1        6          -0.000194000    0.001902744    0.000438753
      2        6          -0.026916482    0.023996107    0.007182116
      3        6          -0.008232063    0.002299125    0.000871243
      4        6           0.001777275   -0.004372051   -0.001459498
      5        6          -0.002232098    0.003199239    0.000710978
      6        6           0.000775067    0.001227037   -0.001157313
      7        7           0.002552100   -0.003590443    0.001008339
      8        8          -0.006801223   -0.001955239   -0.002137418
      9        8           0.003626048    0.006688568    0.002013864
     10        7          -0.006783652    0.008388706    0.003604828
     11        8           0.003769453   -0.008963697    0.005324504
     12        8           0.004663233    0.003168825   -0.007234024
     13        7          -0.001408716    0.007458440   -0.002136313
     14        8           0.005865780   -0.010692755   -0.001145964
     15        8          -0.004075451    0.004530370    0.002597325
     16        8           0.036134352   -0.032393164   -0.007538444
     17        1          -0.002050877   -0.001108570   -0.000606460
     18        1          -0.000468747    0.000216758   -0.000336515
 -------------------------------------------------------------------
 Cartesian Forces:  Max     0.036134352 RMS     0.009250303

 GradGradGradGradGradGradGradGradGradGradGradGradGradGradGradGradGradGrad
 Berny optimization.
 Using GEDIIS/GDIIS optimizer.
 FormGI is forming the generalized inverse of G from B-inverse, IUseBI=4.
 Internal  Forces:  Max     0.049006220 RMS     0.006551227
 Search for a local minimum.
 Step number   3 out of a maximum of   91
 All quantities printed in internal units (Hartrees-Bohrs-Radians)
 Mixed Optimization -- RFO/linear search
 Update second derivatives using D2CorX and points    1    2    3
 DE= -3.31D-03 DEPred=-7.18D-03 R= 4.61D-01
 Trust test= 4.61D-01 RLast= 2.57D-01 DXMaxT set to 5.05D-01
 ITU=  0  1  0
 Use linear search instead of GDIIS.
     Eigenvalues ---    0.00761   0.00763   0.00784   0.00793   0.01037
     Eigenvalues ---    0.01170   0.01641   0.01680   0.01814   0.01990
     Eigenvalues ---    0.02006   0.02053   0.02067   0.02091   0.02105
     Eigenvalues ---    0.15832   0.16007   0.20346   0.23518   0.23533
     Eigenvalues ---    0.24999   0.25000   0.25000   0.25000   0.25000
     Eigenvalues ---    0.25000   0.25000   0.25000   0.25268   0.33806
     Eigenvalues ---    0.34739   0.34853   0.35836   0.36597   0.37763
     Eigenvalues ---    0.39171   0.41012   0.43560   0.45324   0.45448
     Eigenvalues ---    0.47735   0.70588   0.87394   0.88085   0.88193
     Eigenvalues ---    0.88232   0.88492   0.97741
 RFO step:  Lambda=-4.47801170D-03 EMin= 7.61217356D-03
 Quartic linear search produced a step of -0.33446.
 Iteration  1 RMS(Cart)=  0.04720004 RMS(Int)=  0.01224001
 Iteration  2 RMS(Cart)=  0.01545204 RMS(Int)=  0.00284944
 Iteration  3 RMS(Cart)=  0.00056686 RMS(Int)=  0.00279429
 Iteration  4 RMS(Cart)=  0.00000417 RMS(Int)=  0.00279429
 Iteration  5 RMS(Cart)=  0.00000006 RMS(Int)=  0.00279429
 Variable       Old X    -DE/DX   Delta X   Delta X   Delta X     New X
                                 (Linear)    (Quad)   (Total)
    R1        2.77252   0.00700  -0.02267   0.04567   0.02297   2.79549
    R2        2.56699   0.00303   0.00922  -0.01058  -0.00135   2.56564
    R3        2.76591   0.00222  -0.00512   0.01177   0.00665   2.77256
    R4        2.76855   0.00896  -0.01252   0.03319   0.02063   2.78918
    R5        2.26450   0.04901   0.04055  -0.00488   0.03567   2.30017
    R6        2.62190  -0.00136   0.00109  -0.00435  -0.00327   2.61863
    R7        2.74782  -0.00103   0.00283  -0.00653  -0.00370   2.74411
    R8        2.62372   0.00263   0.00238  -0.00086   0.00154   2.62526
    R9        2.05341   0.00224   0.00196   0.00094   0.00290   2.05630
   R10        2.66833   0.00162  -0.00557   0.01049   0.00495   2.67328
   R11        2.71266   0.00141   0.00772  -0.01031  -0.00259   2.71007
   R12        2.06104  -0.00007  -0.00015   0.00014  -0.00002   2.06102
   R13        2.30554   0.00728   0.00256   0.00115   0.00371   2.30925
   R14        2.30924   0.00780   0.00172   0.00280   0.00451   2.31376
   R15        2.28454   0.00946   0.00530  -0.00152   0.00378   2.28833
   R16        2.29122   0.00883   0.00452  -0.00075   0.00377   2.29499
   R17        2.28541   0.01202   0.00508   0.00071   0.00579   2.29120
   R18        2.31774   0.00342   0.00064   0.00133   0.00197   2.31971
    A1        2.20904   0.00135  -0.01141   0.02324   0.01181   2.22085
    A2        2.00433  -0.00126   0.01557  -0.02930  -0.01372   1.99061
    A3        2.06981  -0.00009  -0.00416   0.00605   0.00191   2.07172
    A4        1.94053  -0.00476   0.01979  -0.04276  -0.02306   1.91747
    A5        2.11490  -0.00123  -0.02208   0.03067   0.00863   2.12353
    A6        2.22772   0.00598   0.00229   0.01209   0.01441   2.24213
    A7        2.14551   0.00171  -0.00848   0.01837   0.00983   2.15535
    A8        2.09360   0.00766   0.02653  -0.02146   0.00510   2.09870
    A9        2.04407  -0.00938  -0.01805   0.00309  -0.01493   2.02913
   A10        2.10640   0.00217  -0.00302   0.00955   0.00654   2.11294
   A11        2.08868  -0.00199   0.00104  -0.00768  -0.00665   2.08204
   A12        2.08810  -0.00017   0.00198  -0.00187   0.00011   2.08821
   A13        2.10821  -0.00172   0.00268  -0.01024  -0.00749   2.10072
   A14        2.09129   0.00096  -0.00228   0.00686   0.00454   2.09582
   A15        2.08368   0.00075  -0.00040   0.00338   0.00294   2.08663
   A16        2.05652   0.00124   0.00048   0.00165   0.00218   2.05870
   A17        2.13152  -0.00009  -0.00602   0.01126   0.00522   2.13674
   A18        2.09514  -0.00115   0.00554  -0.01292  -0.00741   2.08773
   A19        2.07285  -0.00121  -0.00229   0.00123  -0.00159   2.07126
   A20        2.05797  -0.00018  -0.00053   0.00074  -0.00032   2.05765
   A21        2.15231   0.00141   0.00284  -0.00141   0.00089   2.15320
   A22        2.04793  -0.00096   0.00189   0.00223  -0.00987   2.03806
   A23        2.05083   0.00033   0.00023   0.00812  -0.00563   2.04520
   A24        2.18130   0.00126  -0.00113   0.01136  -0.00415   2.17714
   A25        2.06068   0.00684   0.01557  -0.00503   0.00768   2.06836
   A26        2.07630  -0.00968  -0.01574   0.00109  -0.01752   2.05878
   A27        2.14591   0.00292   0.00027   0.00694   0.00433   2.15024
    D1       -0.01787  -0.00006   0.00246  -0.00921  -0.00674  -0.02461
    D2        3.11500  -0.00015   0.00182  -0.01026  -0.00843   3.10657
    D3        3.12557  -0.00013   0.00200  -0.00962  -0.00761   3.11796
    D4       -0.02475  -0.00022   0.00136  -0.01066  -0.00929  -0.03405
    D5        0.02032   0.00021  -0.00307   0.01433   0.01126   0.03159
    D6       -3.12570   0.00017  -0.00246   0.01138   0.00892  -3.11678
    D7       -3.12317   0.00028  -0.00259   0.01472   0.01215  -3.11102
    D8        0.01399   0.00024  -0.00198   0.01177   0.00981   0.02380
    D9       -1.34853   0.00577  -0.00658   0.27529   0.26721  -1.08132
   D10        1.87376  -0.00240  -0.02743  -0.00422  -0.03016   1.84360
   D11        1.79475   0.00571  -0.00700   0.27489   0.26641   2.06116
   D12       -1.26615  -0.00246  -0.02784  -0.00462  -0.03096  -1.29711
   D13        0.00682  -0.00007  -0.00089   0.00088  -0.00000   0.00682
   D14       -3.13580  -0.00002  -0.00111   0.00330   0.00222  -3.13359
   D15       -3.12534   0.00008  -0.00003   0.00192   0.00189  -3.12345
   D16        0.01522   0.00013  -0.00026   0.00435   0.00411   0.01933
   D17        0.00037   0.00007   0.00019   0.00137   0.00156   0.00194
   D18        3.14025   0.00005   0.00030   0.00054   0.00085   3.14110
   D19       -3.14021   0.00001   0.00037  -0.00098  -0.00059  -3.14080
   D20       -0.00034  -0.00001   0.00048  -0.00181  -0.00131  -0.00164
   D21        0.00339   0.00156   0.00552   0.06112   0.06649   0.06988
   D22       -3.11268  -0.00165  -0.00451  -0.06653  -0.07089   3.09962
   D23       -3.13918   0.00161   0.00531   0.06342   0.06857  -3.07061
   D24        0.02794  -0.00160  -0.00472  -0.06423  -0.06881  -0.04086
   D25        0.00117   0.00003  -0.00060   0.00322   0.00262   0.00379
   D26        3.14144  -0.00004  -0.00012  -0.00075  -0.00085   3.14058
   D27       -3.13871   0.00005  -0.00071   0.00405   0.00335  -3.13536
[...]
 5,2.0075295,-0.8301301,-0.0903639,-0.8297598,2.2009668,0.511391,-0.090
 8959,0.5121133,0.5017939,-1.5098029,0.4061361,0.0023386,0.1432747,-0.5
 503621,-0.0574284,-0.0805908,-0.0323786,-0.3315641,-0.4950887,-0.07245
 31,-0.0466922,0.1883527,-1.4640986,-0.3506361,0.0405143,-0.3813351,-0.
 4325852,2.1398088,0.2145887,0.4225523,0.3032575,1.35179,-0.2730631,0.3
 805278,-0.2157387,0.4590253,-1.0459622,0.2742365,-0.234463,0.2182778,-
 0.6359038,0.1783893,-0.1754759,0.2046745,-0.3500801,-0.8868662,-0.3750
 046,-0.0808706,-0.464413,-0.9913565,0.0665195,-0.1131516,0.0320333,-0.
 3485818,1.1817851,0.3529494,0.6797795,0.3142368,2.017779,0.1837945,0.6
 141975,0.2680802,0.7514435,-0.4101792,0.0762785,-0.1391513,0.1163891,-
 1.2302457,0.0437483,-0.1639788,-0.0273955,-0.3915326,-0.987214,-0.2803
 225,-0.4666401,-0.2081412,-0.667305,-0.1092416,-0.3972505,-0.1235963,-
 0.5724019,-0.8065805,0.5223078,0.2177269,0.5192149,-0.9039044,-0.24318
 9,0.2244157,-0.2520153,-0.4268375,0.0968012,-0.0199014,-0.000698,0.003
 6305,0.1409025,0.0044355,-0.0009453,0.0308815,0.1186093,0.1460762,-0.0
 091075,0.005517,-0.0181327,0.104172,-0.0117503,-0.0254417,0.0029103,0.
 1060085\Polar=151.0205643,-14.8513179,152.459998,12.1296619,23.9550303
 ,58.16919\Quadrupole=-9.2802566,-9.535796,18.8160526,4.4438221,-3.5095
 01,-7.4503828\PG=C01 [X(C6H2N3O7)]\NImag=0\\0.59452135,-0.11283284,0.6
 5945983,0.02811165,0.14592772,0.18094482,-0.13495804,-0.02141101,-0.02
 051302,0.69621929,-0.03824871,-0.16495072,-0.03717500,-0.22464854,0.70
 451914,-0.02560037,-0.03854868,-0.08988236,-0.07200121,0.19732959,0.28
 004743,0.00090903,-0.02860986,-0.01109535,-0.19174105,-0.01523875,-0.0
 0965134,0.65167825,-0.03478813,0.01628851,-0.00452083,-0.03063874,-0.1
 2172046,-0.01446314,-0.12279620,0.61131944,-0.00905195,-0.00078547,0.0
 0752909,-0.01781791,-0.01176875,-0.07622313,0.02528658,0.12493346,0.17
 179963,-0.00105776,-0.00321958,-0.00070971,-0.02000337,0.02445251,0.00
 517780,-0.25095216,0.17193959,0.02945744,0.76628568,0.02362641,-0.0320
 4672,-0.00557846,0.05019956,0.03376337,0.01603272,0.12684068,-0.257247
 36,-0.04921978,-0.03167880,0.68637436,0.00830569,-0.00934534,-0.002743
 40,0.01386116,0.01169876,0.00699385,0.01649903,-0.04652664,-0.07359775
 ,0.05889216,0.16559398,0.20549531,-0.05931193,0.05208968,0.00706061,-0
 .02450984,-0.02911989,-0.01150976,0.03150396,-0.00716887,0.00167185,-0
 .14591365,-0.06213718,-0.02899909,0.69758071,0.01359269,0.01892394,0.0
 0402238,-0.02943447,-0.00980336,-0.00451648,0.03255995,-0.06398815,-0.
 01771122,-0.10919297,-0.26914856,-0.07879941,0.05002726,0.62136571,-0.
 00447798,0.01183141,0.01099330,-0.01082476,-0.00541535,-0.00838090,0.0
 1055727,-0.02202324,0.00307230,-0.04265630,-0.07345710,-0.08862019,0.0
 8155356,0.16567513,0.17722477,-0.21062752,0.11644523,0.02174975,0.0508
 6417,0.03503740,0.01645463,-0.02779983,0.03043187,0.00502389,-0.016418
 31,-0.06266227,-0.02138582,-0.32277891,-0.02357282,-0.03701350,0.72735
 007,0.16014483,-0.29734341,-0.05412485,0.00852635,-0.03068001,-0.00912
 736,0.00310864,-0.00666725,-0.00130219,-0.02996889,0.00657811,-0.00430
 383,-0.07025386,-0.10840770,-0.02463059,-0.02430532,0.72000356,0.03774
 781,-0.06081449,-0.07385477,0.00940368,-0.00694714,0.00056365,-0.00298
 653,0.00113686,-0.00137111,-0.01191957,-0.00866684,0.00364605,-0.05147
 678,-0.01821763,-0.07250843,0.05958169,0.17915415,0.21083333,0.0000991
 2,-0.01152444,-0.00419165,-0.00613182,0.00402275,0.00171363,0.00681121
 ,-0.01610952,-0.00443098,0.01299439,0.02577086,0.00947171,-0.13554713,
 0.02830375,0.00158988,-0.03653647,0.03436887,0.00776428,0.92052310,-0.
 01386480,0.01292837,0.00017739,0.00455522,-0.00754725,-0.00199253,-0.0
 1311761,0.00615203,-0.00153730,0.02354941,-0.04685879,-0.00962054,0.02
 838001,-0.14148462,-0.02018993,0.03611848,-0.00224714,0.00679796,0.126
 44070,0.80107887,-0.00640103,0.00088259,0.00508567,0.00056983,-0.00048
 497,-0.00304455,-0.00360856,-0.00041455,0.00515279,0.01004038,-0.00952
 954,-0.00973797,0.00143880,-0.01998834,-0.07460011,0.00819607,0.005385
 84,-0.00481514,0.11528347,0.19251043,0.31666232,-0.00360757,0.00459077
 ,0.00119270,0.00105838,-0.00416644,-0.00175957,-0.00399148,0.00677422,
 0.00152136,-0.00091554,-0.01625143,-0.00509114,-0.07311172,0.02650568,
 -0.00155564,0.00717291,0.00327181,0.00154244,-0.57512653,-0.06040455,-
 0.07355368,0.69778745,0.00305524,-0.00037569,0.00057281,-0.00020697,0.
 00091554,0.00037472,0.00119771,0.00205797,0.00079752,0.00291630,-0.006
 86795,-0.00212612,0.03169317,0.01404805,0.00232318,-0.00138077,-0.0030
 5279,-0.00311309,-0.04060536,-0.13869490,-0.02251140,0.08925791,0.1443
 9835,0.00099344,0.00056212,-0.00043754,0.00005253,-0.00051845,0.000558
 77,-0.00013536,0.00140195,-0.00007125,0.00064760,-0.00444978,0.0001728
 4,0.00021387,0.00160096,0.01846223,-0.00030773,-0.00225087,0.00449650,
 -0.06727496,-0.02461852,-0.09770896,0.10195260,0.04597394,0.05737152,0
 .00367088,-0.00058766,0.00045641,-0.00000604,0.00014415,-0.00025052,0.
 00129454,0.00217884,0.00080222,-0.00303544,0.00070476,-0.00046661,0.02
 260495,0.01107440,0.00399534,-0.01032600,0.00505671,0.00003221,-0.1887
 4247,-0.12413126,-0.05140186,-0.04874547,-0.09098165,-0.03754175,0.223
 51690,0.00494237,-0.00510171,-0.00074198,-0.00417715,0.00178702,0.0004
 0341,0.00354678,-0.00465920,-0.00086464,0.00561644,0.00619340,0.000570
 33,0.00578706,-0.07248960,-0.02825939,-0.01407252,0.00182872,-0.001714
 20,-0.14388054,-0.48808944,-0.14568666,-0.05531724,-0.00980444,-0.0181
 1483,0.19175980,0.57329114,0.00220752,-0.00147182,-0.00057474,-0.00128
 591,0.00027282,0.00075137,0.00135983,-0.00132552,-0.00105767,0.0008266
 4,0.00044103,0.00546111,0.00243413,-0.02781331,0.00927791,-0.00578289,
 0.00071250,0.00088366,-0.05778485,-0.14344122,-0.13468711,-0.02620814,
 -0.02210248,0.01801493,0.08250986,0.19448451,0.10274400,-0.14390242,-0
 .02026534,-0.01117543,0.00248898,-0.02707320,-0.00698264,-0.00661044,0
 .00607412,-0.00222164,0.00298666,-0.01491336,-0.00393533,0.02517964,0.
 00901901,0.00279449,-0.06473276,0.01953742,-0.00647637,-0.00623109,0.0
 1097398,0.00311795,0.00448007,-0.00211435,-0.00012994,-0.00053792,-0.0
 0560460,-0.00195832,0.71899167,-0.01504302,-0.11031029,-0.02157098,-0.
 04136273,0.01383074,0.00135711,-0.00128965,-0.00495381,-0.00210763,-0.
 00031271,-0.00326258,-0.00116139,0.01131903,-0.00624001,-0.00302765,0.
 01395138,0.01863195,0.00783219,-0.00013263,0.00756172,0.00164292,0.001
 69499,-0.00153059,0.00002511,-0.00176516,-0.00353431,-0.00118531,-0.05
 830252,1.03057579,-0.01301490,-0.02058629,-0.09031458,-0.00868092,-0.0
 0396847,-0.00058626,-0.00194237,-0.00135610,0.00348785,0.00090710,-0.0
 0470355,-0.00204393,0.00421683,-0.00099242,0.00804571,0.00175369,0.007
 76346,0.00017911,-0.00084748,0.00077149,0.00409620,0.00114067,-0.00021
 888,-0.00128208,0.00009716,-0.00066421,-0.00056828,0.12824508,-0.12308
 203,0.29990709,-0.04914043,0.04284181,-0.02094889,-0.00571013,0.006929
 84,0.00065722,0.00435750,-0.00242369,0.00026079,-0.00120851,0.00652950
 ,0.00161687,-0.00842439,-0.00172360,0.00047037,0.00352696,-0.00833777,
 -0.00291898,0.00170415,-0.00419227,-0.00066919,-0.00214592,0.00109006,
 -0.00009833,-0.00013029,0.00175616,0.00058243,-0.32415956,0.23954013,-
 0.10261236,0.33197727,0.03342953,0.00292060,0.01344356,0.00771431,-0.0
 1184289,-0.00466393,-0.00269878,0.00202741,-0.00047540,0.00045519,-0.0
 0405110,-0.00113089,0.00305060,0.00328529,0.00039344,-0.00371776,0.002
 24884,-0.00112869,-0.00043774,-0.00029373,0.00012127,0.00038070,-0.000
 10308,-0.00000491,0.00046391,0.00038075,0.00003447,0.21932087,-0.40850
 853,0.11240642,-0.28390864,0.52160747,-0.01829740,0.01453688,0.0152428
 5,0.00146534,0.00135362,-0.00109212,-0.00005894,0.00011161,-0.00043708
 ,-0.00028855,0.00069536,0.00042893,-0.00040869,0.00050876,-0.00055480,
 -0.00302536,-0.00326227,0.00183279,0.00033889,-0.00015536,-0.00094545,
 -0.00056564,0.00014083,0.00025165,-0.00026193,0.00013248,0.00014358,-0
 .10397322,0.11328542,-0.12567147,0.12844219,-0.15146307,0.09016787,-0.
 02885158,-0.05004899,-0.00570699,-0.00816473,0.00825899,0.00319491,0.0
 0011780,-0.00337157,-0.00077647,-0.00117628,0.00170937,0.00015264,-0.0
 0350271,-0.00169815,-0.00112458,-0.00064736,-0.00501887,0.00076537,0.0
 0237300,-0.00364948,-0.00086614,-0.00167968,0.00077266,0.00009140,-0.0
 0014337,0.00210213,0.00061531,-0.19295419,-0.16290033,-0.00422088,0.04
 471616,0.04196405,-0.00073514,0.19120450,-0.04392683,-0.02229003,-0.00
 178289,0.00007350,0.00100388,-0.00053671,0.00078217,-0.00190133,0.0001
 5456,0.00046065,0.00275006,0.00106732,-0.00950711,0.00178519,-0.000145
 59,0.01600171,-0.00997462,-0.00081658,0.00176411,-0.00622251,-0.002323
 99,-0.00136246,0.00107446,0.00029041,0.00120078,0.00335270,0.00117813,
 -0.14509965,-0.52535894,0.02833429,0.00746295,-0.11011988,0.02884558,0
 .17658735,0.66211668,-0.00629080,-0.00345421,0.02201600,-0.00203908,-0
 .00081353,0.00183938,0.00110382,0.00014741,-0.00126165,-0.00016354,0.0
 0155634,0.00047066,-0.00162573,0.00003615,-0.00070782,0.00098465,-0.00
 216374,0.00025034,0.00009810,-0.00076055,-0.00076640,-0.00026096,0.000
 16790,0.00020137,0.00012405,0.00034495,0.00028310,-0.00415295,0.024741
 11,-0.08618700,0.00065046,0.03359344,0.02215681,0.00999297,-0.05323611
 ,0.04041927,-0.00438887,-0.00178362,-0.00182805,-0.00184555,-0.0377755
 3,-0.01454522,-0.13083789,-0.02225007,-0.00308492,0.02356865,-0.004054
 36,0.00302396,-0.00059287,0.01631258,0.00441330,-0.00764460,0.00215738
 ,0.00009733,0.00930458,-0.00313141,-0.00098449,-0.00491116,-0.00054743
 ,-0.00067045,-0.00136614,0.00289922,0.00103027,-0.00294010,-0.00324964
 ,-0.00087041,0.00131053,0.00014517,0.00022838,0.00038044,0.00104598,0.
 00019779,0.80453779,0.00472468,-0.00763381,-0.00028210,-0.02725270,0.0
 1891805,0.00176444,-0.02572848,-0.12745854,-0.02268193,-0.00188908,-0.
 06218108,-0.01422303,0.01474255,0.01674768,0.00631807,-0.01330378,0.00
 596335,0.00016308,0.00724115,-0.00650087,-0.00303185,-0.00425701,0.000
 93303,0.00008463,-0.00085479,0.00370878,0.00157250,-0.00685271,0.00007
 346,-0.00171503,0.00324401,-0.00140231,0.00088165,0.00271406,0.0014642
 5,0.00047318,-0.15125194,0.84047670,-0.00026883,-0.00345676,0.00394071
 ,-0.00474917,-0.00358954,-0.00132977,-0.00501053,-0.01869676,-0.086242
 45,0.00219823,-0.02388570,-0.00732139,0.00141201,0.00635785,0.01083998
 ,-0.00290488,0.00128227,-0.00064067,0.00457146,-0.00425709,0.00262492,
 -0.00300766,-0.00006402,-0.00066463,-0.00036216,0.00197698,-0.00067441
 ,-0.00135229,-0.00080880,-0.00130488,0.00044612,0.00032506,0.00020352,
 0.00085886,0.00111564,0.00028392,0.29154053,-0.05429456,0.40440157,0.0
 0075069,-0.00212641,0.00023526,-0.00857237,0.00720774,0.00376446,0.022
 90338,0.01155049,-0.00174586,-0.00173522,-0.00350837,-0.00124993,0.002
 80995,0.00010686,0.00116686,-0.00216127,0.00059665,-0.00018940,-0.0011
 0766,0.00026026,0.00002824,0.00075794,0.00008610,0.00017448,0.00012766
 ,-0.00026770,-0.00013380,-0.00001374,0.00064980,-0.00029765,0.00010340
 ,-0.00027445,0.00007131,-0.00002882,-0.00032594,0.00009418,-0.21668938
 ,0.18372702,-0.07272156,0.25896569,-0.00154494,0.00520641,0.00088100,0
 .00878189,-0.00916545,-0.00116169,0.01920040,-0.07316880,0.00364332,-0
 .00830271,0.00547169,-0.00006929,-0.00364438,-0.00688398,-0.00445132,0
 .00713886,-0.00293287,0.00011306,-0.00337664,0.00247700,0.00036772,0.0
 0149585,-0.00061583,-0.00014896,0.00054511,-0.00231943,-0.00058345,0.0
 0359440,0.00001059,0.00133326,-0.00179403,0.00083590,-0.00054846,-0.00
 124822,-0.00052202,-0.00036927,0.20179985,-0.52630524,0.09971774,-0.26
 406989,0.59413224,-0.00009780,0.00115528,-0.00000959,-0.00210901,-0.00
 049945,-0.00090143,-0.00060883,-0.00243318,0.01927869,-0.00076991,0.00
 156790,0.00387616,-0.00015792,-0.00166627,-0.00162160,0.00071083,-0.00
 038792,0.00026236,-0.00123302,0.00097759,-0.00090380,0.00076642,0.0000
 8514,0.00025172,0.00011026,-0.00043540,0.00019425,0.00025330,0.0003391
 5,0.00011473,-0.00009095,-0.00013462,0.00007657,-0.00014278,-0.0002807
 2,-0.00004637,-0.06669866,0.09269590,-0.11531626,0.11635988,-0.1335444
 8,0.09065721,-0.00199924,0.00160373,0.00023060,0.00175548,-0.00235611,
 -0.00100809,-0.03244828,-0.03009219,-0.03452476,-0.00717698,0.01631099
 ,0.00310745,-0.00080705,-0.00934819,-0.00311796,0.00354723,-0.00060357
 ,0.00012670,-0.00651370,0.00311406,0.00096345,0.00385392,0.00025222,0.
 00047050,0.00090384,-0.00170899,-0.00061183,0.00248373,0.00072625,-0.0
 0000632,-0.00091633,-0.00005202,-0.00011942,-0.00119385,-0.00121921,-0
 .00002775,-0.46889535,0.00615513,-0.21238122,-0.05173578,0.04902214,-0
 .04780080,0.55818144,-0.00253579,0.00057745,0.00031530,0.00616212,-0.0
 0815391,-0.00423695,-0.03582125,0.00108167,-0.01984142,-0.00226688,-0.
 00389670,-0.00373955,-0.00244840,-0.00021275,0.00011280,0.00076345,-0.
 00149881,-0.00011227,-0.00116289,0.00180811,0.00041275,0.00083073,-0.0
 0063518,-0.00013354,0.00017403,-0.00113126,-0.00039319,0.00209140,-0.0
 0046297,0.00026481,-0.00095029,0.00042364,-0.00024569,-0.00106265,-0.0
 0051492,-0.00008339,-0.01056811,-0.13600622,-0.00843138,0.08002207,0.0
 0577171,0.04448272,-0.02819100,0.13999854,-0.00167467,0.00036119,-0.00
 162433,0.00350458,-0.00301118,0.00108084,-0.03478009,-0.01708208,0.002
 23473,-0.00238844,0.00454619,0.00070135,-0.00065543,-0.00264683,-0.001
 40407,0.00018435,-0.00026245,-0.00000437,-0.00244709,0.00207380,0.0000
 8759,0.00165558,-0.00021584,0.00027475,0.00028380,-0.00098633,-0.00017
 632,0.00130552,0.00004951,0.00010788,-0.00040686,-0.00008971,-0.000104
 53,-0.00088325,-0.00078785,0.00000789,-0.21480244,-0.00173147,-0.19955
 553,-0.04160912,0.02976728,0.00268760,0.29469589,-0.00745729,0.1955571
 1,0.02667296,0.01869727,0.01145950,-0.34908935,0.28912877,0.11389498,-
 0.06252209,0.04213414,0.01237976,-0.00356866,-0.01717317,-0.00634751,0
 .00211316,0.01041911,0.00369000,-0.00653460,-0.00146730,-0.00316929,0.
 00462672,-0.00544542,-0.00093351,-0.00196815,0.00090793,0.00001454,-0.
 00003946,0.00321360,0.00099613,-0.01574725,0.01421809,-0.00397763,0.00
 334425,-0.01460879,-0.00374819,0.00376735,-0.00231733,0.00181646,0.004
 37900,0.00978391,0.00306687,-0.00504583,-0.00709356,0.00121554,-0.0011
 2774,-0.00197351,-0.00167280,0.40157699,0.02509396,-0.06275600,-0.0319
 1601,0.28980373,-0.40894127,-0.13366568,0.03721333,0.01566854,-0.00301
 473,-0.00304141,-0.00229464,-0.00058976,0.01048770,-0.00242207,-0.0001
 3197,-0.01625418,0.00131731,-0.00204297,-0.00516107,0.00646730,0.00106
 661,0.00351992,-0.00086215,0.00020758,0.00039096,-0.00259835,-0.000668
 92,0.01310472,-0.00191107,0.00444456,-0.00634213,0.00212638,-0.0043678
 9,-0.00307322,0.00016261,-0.00031426,0.00716638,-0.02138985,0.00229005
 ,-0.01343458,0.00728269,-0.00085028,-0.00082886,0.00495201,-0.00085548
 ,-0.33985088,0.46676074,0.01126807,-0.03076585,0.00776673,0.11243780,-
 0.13174954,-0.12454572,0.00939911,0.00001626,0.01855672,-0.00103962,-0
 .00312118,0.00281507,0.00354978,0.00005444,0.00116152,-0.00707642,-0.0
 0135772,0.00217786,-0.00154293,0.00186932,0.00051553,0.00115357,-0.000
 35567,-0.00010052,0.00030828,-0.00070009,-0.00029273,0.00444323,0.0022
 3628,-0.00236802,-0.00394058,-0.00280325,-0.00195268,-0.00137895,-0.00
 152844,0.00071870,0.00267493,-0.00607143,-0.00301444,-0.00272472,0.003
 02500,0.00127939,0.00067881,0.00146895,0.00082161,-0.12919562,0.169549
 71,0.09932779,0.00068922,0.00009409,0.00033533,0.00167578,0.00211874,-
 0.00042426,-0.01249686,-0.00232178,-0.00312260,-0.34754519,-0.03972241
 ,-0.04670577,-0.00382342,-0.00018861,-0.00122951,0.00063809,-0.0008470
 7,-0.00086525,-0.00238047,-0.00032612,0.00015482,-0.00030241,0.0036780
 2,0.00112775,0.00013451,-0.00008620,-0.00005691,-0.00036407,-0.0001077
 0,-0.00005509,0.00011354,-0.00003099,0.00001095,0.00008811,0.00011600,
 0.00003023,-0.00294266,-0.00062018,-0.00110943,0.00061182,-0.00058471,
 0.00020992,0.00179467,-0.00300698,-0.00034900,-0.00112280,0.00005653,0
 .00023736,0.36529694,0.00091314,-0.00045179,0.00006380,0.00030984,-0.0
 0313089,-0.00305546,0.02050633,0.00696010,0.00165828,-0.04000622,-0.05
 442196,-0.00658960,-0.02278326,0.00268037,-0.00368801,-0.00097546,-0.0
 0424184,-0.00285587,-0.00469021,0.00074251,0.00099306,0.00377274,-0.00
 084698,0.00025321,0.00120967,0.00109125,0.00036149,-0.00056086,-0.0003
 6192,0.00006667,0.00010047,-0.00003215,-0.00003248,0.00000201,0.000337
 87,0.00001611,0.00315395,0.00070744,0.00429183,-0.00026691,0.00066690,
 -0.00109675,-0.00279872,-0.00219855,-0.00164385,0.00157220,-0.00013831
 ,0.00041471,0.04171376,0.05243609,-0.00007018,0.00015584,-0.00055549,-
 0.00106138,-0.00320918,0.00673666,0.00550834,0.00025333,0.00950225,-0.
 04691530,-0.00655757,-0.04960366,-0.00804130,-0.00171355,0.00461900,-0
 .00021445,-0.00243380,0.00322918,-0.00136050,0.00122504,-0.00338737,0.
 00113041,0.00027050,-0.00014369,0.00035090,0.00028725,0.00048415,0.000
 26139,-0.00001447,-0.00032499,0.00001806,0.00021095,0.00001418,0.00000
 223,-0.00007010,0.00012269,0.00039133,0.00043520,-0.00572009,-0.001045
 38,0.00191234,0.00014281,-0.00083672,-0.00231754,-0.00084873,0.0004357
 4,0.00056239,-0.00137187,0.05180932,0.01096906,0.03704469,0.01053210,0
 .01604714,0.00533727,-0.00332981,0.00132624,-0.00112465,-0.00017560,0.
 00087749,0.00037320,-0.00512832,0.00040921,-0.00074946,-0.00346877,-0.
 02276249,-0.00823085,-0.08689181,-0.09596601,-0.03705934,-0.00011892,-
 0.00512918,-0.00137455,0.00139496,0.00092919,0.00041979,0.00081933,0.0
 0349139,0.00126053,0.00158279,0.00236640,0.00016551,0.00068179,-0.0011
 9517,0.00092543,-0.00430478,-0.00173666,-0.00053190,-0.00042642,-0.000
 32183,-0.00022635,0.00005953,0.00008059,0.00008354,0.00029398,-0.00005
 606,0.00003946,0.00028549,0.00114909,0.00074790,-0.00006481,-0.0011724
 6,-0.00036252,0.08825927,-0.00673778,-0.01304493,-0.00771084,0.0030057
 9,0.00119845,-0.00129338,0.00034457,0.00020921,0.00012332,0.00048916,0
 .00114645,-0.00070499,-0.00051414,0.00224456,-0.00123390,-0.09564351,-
 0.28952541,-0.08876753,-0.00083115,-0.00127666,0.00058810,-0.00033621,
 -0.00003780,-0.00016005,0.00341742,-0.00190602,-0.00007222,-0.00292932
 ,-0.00424923,0.00190203,0.00017748,0.00049741,-0.00041698,-0.00203915,
 0.00285655,0.00011845,-0.00006839,-0.00011482,0.00012718,0.00006725,0.
 00005849,0.00002541,0.00001434,0.00009814,-0.00002761,-0.00014506,-0.0
 0142388,-0.00018149,0.00006560,0.00020186,0.00003431,0.10166311,0.3030
 6763,-0.00338826,-0.00618412,0.00647763,-0.00021255,-0.00150423,0.0074
 1430,0.00016390,0.00084117,-0.00035194,-0.00129639,-0.00126402,0.00360
 697,-0.00067676,-0.00419021,0.00470121,-0.03692849,-0.08869063,-0.0751
 6036,0.00028202,0.00017004,-0.00362814,-0.00005332,0.00000094,0.000352
 40,0.00121433,-0.00003218,-0.00020680,0.00193719,0.00144947,-0.0052871
 0,-0.00145837,0.00136584,0.00023938,0.00016148,0.00052305,0.00019911,-
 0.00011319,-0.00035724,-0.00051010,-0.00017726,0.00011620,-0.00002243,
 0.00016147,-0.00006512,0.00015653,0.00007505,0.00029706,-0.00149494,0.
 00000217,-0.00012619,0.00006028,0.04030700,0.09765020,0.06345402\\0.00
 000161,-0.00003881,-0.00001395,0.00001250,0.00003662,0.00003490,-0.000
 01823,-0.00002447,-0.00000200,0.00000694,0.00000342,-0.00001185,0.0000
 0396,0.00000472,0.00000147,-0.00000576,0.00001502,0.00000056,-0.000011
 09,0.00000922,0.00000245,0.00001175,-0.00000210,-0.00000150,0.00000419
 ,-0.00001271,-0.00000722,0.00003477,0.00000906,0.00001658,-0.00001945,
 -0.00001275,-0.00000414,-0.00002400,0.00000014,-0.00000853,0.00000738,
 0.00001075,-0.00000482,-0.00001180,0.00000463,-0.00000243,0.00000804,-
 0.00001084,0.00001089,0.00000050,0.00000714,-0.00001372,-0.00000006,0.
 00000259,0.00000299,-0.00000125,-0.00000161,0.00000031\\\@


 Other things may change us, but we start and end with family.
 -- Anthony Brandt
 Job cpu time:       0 days  0 hours 42 minutes 21.0 seconds.
 Elapsed time:       0 days  0 hours  0 minutes 40.8 seconds.
 File lengths (MBytes):  RWF=    135 Int=      0 D2E=      0 Chk=      6 Scr=      1
 Normal termination of Gaussian 16 at Wed Jun 10 15:29:40 2026.
