 Entering Gaussian System, Link 0=/project/xlzhang/shared/bin/g16/g16
 Input=/lustre/project/xlzhang/jingyi/chemsmart/test_pka/gaussian/pka_scale_frag4_pka_HA_opt.com
 Output=/lustre/project/xlzhang/jingyi/chemsmart/test_pka/gaussian/pka_scale_frag4_pka_HA_opt.log
 Initial command:
 /project/xlzhang/shared/bin/g16/l1.exe "/lustre/project/xlzhang/jingyi/chemsmart/test_pka/gaussian/Gau-781708.inp" -scrdir="/lustre/project/xlzhang/jingyi/chemsmart/test_pka/gaussian/"
 Entering Link 1 = /project/xlzhang/shared/bin/g16/l1.exe PID=    781709.
  
 Copyright (c) 1988-2017, Gaussian, Inc.  All Rights Reserved.
  
 This is part of the Gaussian(R) 16 program.  It is based on
 the Gaussian(R) 09 system (copyright 2009, Gaussian, Inc.),
 the Gaussian(R) 03 system (copyright 2003, Gaussian, Inc.),
 the Gaussian(R) 98 system (copyright 1998, Gaussian, Inc.),
 the Gaussian(R) 94 system (copyright 1995, Gaussian, Inc.),
 the Gaussian 92(TM) system (copyright 1992, Gaussian, Inc.),
 the Gaussian 90(TM) system (copyright 1990, Gaussian, Inc.),
 the Gaussian 88(TM) system (copyright 1988, Gaussian, Inc.),
 the Gaussian 86(TM) system (copyright 1986, Carnegie Mellon
 University), and the Gaussian 82(TM) system (copyright 1983,
 Carnegie Mellon University). Gaussian is a federally registered
 trademark of Gaussian, Inc.
  
 This software contains proprietary and confidential information,
 including trade secrets, belonging to Gaussian, Inc.
  
 This software is provided under written license and may be
 used, copied, transmitted, or stored only in accord with that
 written license.
  
 The following legend is applicable only to US Government
 contracts under FAR:
  
                    RESTRICTED RIGHTS LEGEND
  
 Use, reproduction and disclosure by the US Government is
 subject to restrictions as set forth in subparagraphs (a)
 and (c) of the Commercial Computer Software - Restricted
 Rights clause in FAR 52.227-19.
  
 Gaussian, Inc.
 340 Quinnipiac St., Bldg. 40, Wallingford CT 06492
  
  
 ---------------------------------------------------------------
 Warning -- This program may not be used in any manner that
 competes with the business of Gaussian, Inc. or will provide
 assistance to any competitor of Gaussian, Inc.  The licensee
 of this program is prohibited from giving any competitor of
 Gaussian, Inc. access to this program.  By using this program,
 the user acknowledges that Gaussian, Inc. is engaged in the
 business of creating and licensing software in the field of
 computational chemistry and represents and warrants to the
 licensee that it is not a competitor of Gaussian, Inc. and that
 it will not use this program in any manner prohibited above.
 ---------------------------------------------------------------
  

 Cite this work as:
 Gaussian 16, Revision B.01,
 M. J. Frisch, G. W. Trucks, H. B. Schlegel, G. E. Scuseria, 
 M. A. Robb, J. R. Cheeseman, G. Scalmani, V. Barone, 
 G. A. Petersson, H. Nakatsuji, X. Li, M. Caricato, A. V. Marenich, 
 J. Bloino, B. G. Janesko, R. Gomperts, B. Mennucci, H. P. Hratchian, 
 J. V. Ortiz, A. F. Izmaylov, J. L. Sonnenberg, D. Williams-Young, 
 F. Ding, F. Lipparini, F. Egidi, J. Goings, B. Peng, A. Petrone, 
 T. Henderson, D. Ranasinghe, V. G. Zakrzewski, J. Gao, N. Rega, 
 G. Zheng, W. Liang, M. Hada, M. Ehara, K. Toyota, R. Fukuda, 
 J. Hasegawa, M. Ishida, T. Nakajima, Y. Honda, O. Kitao, H. Nakai, 
 T. Vreven, K. Throssell, J. A. Montgomery, Jr., J. E. Peralta, 
 F. Ogliaro, M. J. Bearpark, J. J. Heyd, E. N. Brothers, K. N. Kudin, 
 V. N. Staroverov, T. A. Keith, R. Kobayashi, J. Normand, 
 K. Raghavachari, A. P. Rendell, J. C. Burant, S. S. Iyengar, 
 J. Tomasi, M. Cossi, J. M. Millam, M. Klene, C. Adamo, R. Cammi, 
 J. W. Ochterski, R. L. Martin, K. Morokuma, O. Farkas, 
 J. B. Foresman, and D. J. Fox, Gaussian, Inc., Wallingford CT, 2016.
 
 ******************************************
 Gaussian 16:  ES64L-G16RevB.01 20-Dec-2017
                10-Jun-2026 
 ******************************************
 %chk=pka_scale_frag4_pka_HA_opt.chk
 %nprocshared=64
 Will use up to   64 processors via shared memory.
 %mem=180GB
 -----------------------
 # opt freq mn15 def2svp
 -----------------------
 1/18=20,19=15,26=3,38=1/1,3;
 2/9=110,12=2,17=6,18=5,40=1/2;
 3/5=43,7=101,11=2,25=1,30=1,71=1,74=-73/1,2,3;
 4//1;
 5/5=2,38=5/2;
 6/7=2,8=2,9=2,10=2,28=1/1;
 7//1,2,3,16;
 1/18=20,19=15,26=3/3(2);
 2/9=110/2;
 99//99;
 2/9=110/2;
 3/5=43,7=101,11=2,25=1,30=1,71=1,74=-73/1,2,3;
 4/5=5,16=3,69=1/1;
 5/5=2,38=5/2;
 7//1,2,3,16;
 1/18=20,19=15,26=3/3(-5);
 2/9=110/2;
 6/7=2,8=2,9=2,10=2,19=2,28=1/1;
 99/9=1/99;
 ----------------------------
 Gaussian pKa calculation job
 ----------------------------
 Symbolic Z-matrix:
 Charge =  0 Multiplicity = 1
 C                     0.04512   1.74166   0.29268 
 C                    -1.10452   0.95722   0.17689 
 C                    -0.98737  -0.42158  -0.05698 
 C                     0.28052  -1.01618  -0.17512 
 C                     1.42455  -0.21384  -0.05624 
 C                     1.31131   1.16319   0.17728 
 O                    -2.28238   1.63954   0.30852 
 N                    -2.17813  -1.2673   -0.18249 
 O                    -3.28444  -0.71532  -0.07391 
 O                    -2.0128   -2.47632  -0.38838 
 N                     2.75718  -0.82183  -0.17755 
 O                     2.81306  -2.04141  -0.38381 
 O                     3.74121  -0.07848  -0.06625 
 H                    -0.04716   2.81148   0.47416 
 H                     0.37638  -2.08619  -0.35668 
 H                     2.19168   1.79739   0.27159 
 H                    -3.04421   1.02798   0.21631 
 

 GradGradGradGradGradGradGradGradGradGradGradGradGradGradGradGradGradGrad
 Berny optimization.
 Initialization pass.
                           ----------------------------
                           !    Initial Parameters    !
                           ! (Angstroms and Degrees)  !
 --------------------------                            --------------------------
 ! Name  Definition              Value          Derivative Info.                !
 --------------------------------------------------------------------------------
 ! R1    R(1,2)                  1.3966         estimate D2E/DX2                !
 ! R2    R(1,6)                  1.3969         estimate D2E/DX2                !
 ! R3    R(1,14)                 1.089          estimate D2E/DX2                !
 ! R4    R(2,3)                  1.4034         estimate D2E/DX2                !
 ! R5    R(2,7)                  1.3676         estimate D2E/DX2                !
 ! R6    R(3,4)                  1.4054         estimate D2E/DX2                !
 ! R7    R(3,8)                  1.4659         estimate D2E/DX2                !
 ! R8    R(4,5)                  1.4024         estimate D2E/DX2                !
 ! R9    R(4,15)                 1.0895         estimate D2E/DX2                !
 ! R10   R(5,6)                  1.4013         estimate D2E/DX2                !
 ! R11   R(5,11)                 1.4698         estimate D2E/DX2                !
 ! R12   R(6,16)                 1.0891         estimate D2E/DX2                !
 ! R13   R(7,17)                 0.9813         estimate D2E/DX2                !
 ! R14   R(8,9)                  1.2411         estimate D2E/DX2                !
 ! R15   R(8,10)                 1.2375         estimate D2E/DX2                !
 ! R16   R(11,12)                1.2382         estimate D2E/DX2                !
 ! R17   R(11,13)                1.2383         estimate D2E/DX2                !
 ! A1    A(2,1,6)              120.4462         estimate D2E/DX2                !
 ! A2    A(2,1,14)             119.7254         estimate D2E/DX2                !
 ! A3    A(6,1,14)             119.8283         estimate D2E/DX2                !
 ! A4    A(1,2,3)              119.798          estimate D2E/DX2                !
 ! A5    A(1,2,7)              114.8832         estimate D2E/DX2                !
 ! A6    A(3,2,7)              125.3188         estimate D2E/DX2                !
 ! A7    A(2,3,4)              120.3312         estimate D2E/DX2                !
 ! A8    A(2,3,8)              120.8823         estimate D2E/DX2                !
 ! A9    A(4,3,8)              118.7865         estimate D2E/DX2                !
 ! A10   A(3,4,5)              119.1293         estimate D2E/DX2                !
 ! A11   A(3,4,15)             120.5907         estimate D2E/DX2                !
 ! A12   A(5,4,15)             120.28           estimate D2E/DX2                !
 ! A13   A(4,5,6)              120.6926         estimate D2E/DX2                !
 ! A14   A(4,5,11)             119.7345         estimate D2E/DX2                !
 ! A15   A(6,5,11)             119.5729         estimate D2E/DX2                !
 ! A16   A(1,6,5)              119.6026         estimate D2E/DX2                !
 ! A17   A(1,6,16)             118.9745         estimate D2E/DX2                !
 ! A18   A(5,6,16)             121.4229         estimate D2E/DX2                !
 ! A19   A(2,7,17)             110.4064         estimate D2E/DX2                !
 ! A20   A(3,8,9)              117.3861         estimate D2E/DX2                !
 ! A21   A(3,8,10)             117.993          estimate D2E/DX2                !
 ! A22   A(9,8,10)             124.6209         estimate D2E/DX2                !
 ! A23   A(5,11,12)            117.524          estimate D2E/DX2                !
 ! A24   A(5,11,13)            117.6962         estimate D2E/DX2                !
 ! A25   A(12,11,13)           124.7798         estimate D2E/DX2                !
 ! D1    D(6,1,2,3)              0.0002         estimate D2E/DX2                !
 ! D2    D(6,1,2,7)            180.0            estimate D2E/DX2                !
 ! D3    D(14,1,2,3)          -179.9997         estimate D2E/DX2                !
 ! D4    D(14,1,2,7)             0.0001         estimate D2E/DX2                !
 ! D5    D(2,1,6,5)              0.0            estimate D2E/DX2                !
 ! D6    D(2,1,6,16)          -179.9999         estimate D2E/DX2                !
 ! D7    D(14,1,6,5)           179.9999         estimate D2E/DX2                !
 ! D8    D(14,1,6,16)            0.0            estimate D2E/DX2                !
 ! D9    D(1,2,3,4)             -0.0003         estimate D2E/DX2                !
 ! D10   D(1,2,3,8)            179.9996         estimate D2E/DX2                !
 ! D11   D(7,2,3,4)            179.9999         estimate D2E/DX2                !
 ! D12   D(7,2,3,8)             -0.0002         estimate D2E/DX2                !
 ! D13   D(1,2,7,17)           179.9977         estimate D2E/DX2                !
 ! D14   D(3,2,7,17)            -0.0025         estimate D2E/DX2                !
 ! D15   D(2,3,4,5)              0.0002         estimate D2E/DX2                !
 ! D16   D(2,3,4,15)          -180.0            estimate D2E/DX2                !
 ! D17   D(8,3,4,5)           -179.9996         estimate D2E/DX2                !
 ! D18   D(8,3,4,15)             0.0002         estimate D2E/DX2                !
 ! D19   D(2,3,8,9)              0.0044         estimate D2E/DX2                !
 ! D20   D(2,3,8,10)          -179.9962         estimate D2E/DX2                !
 ! D21   D(4,3,8,9)           -179.9958         estimate D2E/DX2                !
 ! D22   D(4,3,8,10)             0.0037         estimate D2E/DX2                !
 ! D23   D(3,4,5,6)              0.0            estimate D2E/DX2                !
 ! D24   D(3,4,5,11)           179.9997         estimate D2E/DX2                !
 ! D25   D(15,4,5,6)          -179.9998         estimate D2E/DX2                !
 ! D26   D(15,4,5,11)           -0.0001         estimate D2E/DX2                !
 ! D27   D(4,5,6,1)             -0.0001         estimate D2E/DX2                !
 ! D28   D(4,5,6,16)           179.9999         estimate D2E/DX2                !
 ! D29   D(11,5,6,1)          -179.9998         estimate D2E/DX2                !
 ! D30   D(11,5,6,16)            0.0001         estimate D2E/DX2                !
 ! D31   D(4,5,11,12)            0.004          estimate D2E/DX2                !
 ! D32   D(4,5,11,13)         -179.996          estimate D2E/DX2                !
 ! D33   D(6,5,11,12)         -179.9963         estimate D2E/DX2                !
 ! D34   D(6,5,11,13)            0.0038         estimate D2E/DX2                !
 --------------------------------------------------------------------------------
 Trust Radius=3.00D-01 FncErr=1.00D-07 GrdErr=1.00D-06 EigMax=2.50D+02 EigMin=1.00D-04
 Number of steps in this run=     86 maximum allowed number of steps=    102.
 GradGradGradGradGradGradGradGradGradGradGradGradGradGradGradGradGradGrad

                          Input orientation:                          
 ---------------------------------------------------------------------
 Center     Atomic      Atomic             Coordinates (Angstroms)
 Number     Number       Type             X           Y           Z
 ---------------------------------------------------------------------
      1          6           0        0.045118    1.741658    0.292676
      2          6           0       -1.104524    0.957221    0.176888
      3          6           0       -0.987373   -0.421584   -0.056980
      4          6           0        0.280517   -1.016184   -0.175122
      5          6           0        1.424551   -0.213837   -0.056240
      6          6           0        1.311312    1.163185    0.177277
      7          8           0       -2.282377    1.639542    0.308523
      8          7           0       -2.178128   -1.267303   -0.182494
      9          8           0       -3.284438   -0.715315   -0.073906
     10          8           0       -2.012800   -2.476324   -0.388380
     11          7           0        2.757182   -0.821833   -0.177550
     12          8           0        2.813057   -2.041409   -0.383809
     13          8           0        3.741211   -0.078481   -0.066255
     14          1           0       -0.047164    2.811480    0.474159
     15          1           0        0.376382   -2.086195   -0.356684
     16          1           0        2.191682    1.797395    0.271588
     17          1           0       -3.044208    1.027983    0.216308
 ---------------------------------------------------------------------
                    Distance matrix (angstroms):
                    1          2          3          4          5
     1  C    0.000000
     2  C    1.396575   0.000000
     3  C    2.422377   1.403397   0.000000
     4  C    2.807123   2.436510   1.405366   0.000000
     5  C    2.418375   2.796774   2.420855   1.402393   0.000000
     6  C    1.396852   2.424599   2.801843   2.436468   1.401265
     7  O    2.329787   1.367563   2.461477   3.722260   4.160454
     8  N    3.771266   2.496054   1.465909   2.471447   3.755665
     9  O    4.154159   2.759040   2.315830   3.579060   4.735648
    10  O    4.742386   3.596349   2.320190   2.727048   4.128504
    11  N    3.761368   4.266548   3.767815   2.484280   1.469790
    12  O    4.736107   4.965239   4.144143   2.740144   2.318463
    13  O    4.135559   4.961144   4.741025   3.587136   2.320633
    14  H    1.089024   2.155147   3.408637   3.896147   3.405850
    15  H    3.896647   3.426392   2.172689   1.089530   2.166714
    16  H    2.147392   3.402915   3.890786   3.430500   2.177387
    17  H    3.171608   1.941375   2.531107   3.922453   4.646096
                    6          7          8          9         10
     6  C    0.000000
     7  O    3.627497   0.000000
     8  N    4.267657   2.949866   0.000000
     9  O    4.971194   2.587611   1.241130   0.000000
    10  O    4.961423   4.183144   1.237520   2.194791   0.000000
    11  N    2.481278   5.629546   4.955376   6.043447   5.053169
    12  O    3.583222   6.323936   5.054868   6.247720   4.845417
    13  O    2.739609   6.275004   6.038657   7.054457   6.241960
    14  H    2.156495   2.529239   4.648513   4.818569   5.706888
    15  H    3.423109   4.625215   2.688205   3.919295   2.421032
    16  H    1.089113   4.476995   5.356659   6.034978   6.031409
    17  H    4.357793   0.981272   2.485453   1.783542   3.702650
                   11         12         13         14         15
    11  N    0.000000
    12  O    1.238155   0.000000
    13  O    1.238254   2.194401   0.000000
    14  H    4.635736   5.698026   4.795385   0.000000
    15  H    2.701649   2.437237   3.929038   4.985671   0.000000
    16  H    2.716960   3.943610   2.456439   2.466138   4.332702
    17  H    6.101891   6.639944   6.880845   3.497088   4.661208
                   16         17
    16  H    0.000000
    17  H    5.292409   0.000000
 Stoichiometry    C6H4N2O5
 Framework group  C1[X(C6H4N2O5)]
 Deg. of freedom    45
 Full point group                 C1      NOp   1
 Largest Abelian subgroup         C1      NOp   1
 Largest concise Abelian subgroup C1      NOp   1
                         Standard orientation:                         
 ---------------------------------------------------------------------
 Center     Atomic      Atomic             Coordinates (Angstroms)
 Number     Number       Type             X           Y           Z
 ---------------------------------------------------------------------
      1          6           0        0.070813    2.058442   -0.000000
      2          6           0        1.179183    1.208773   -0.000001
      3          6           0        0.991741   -0.182050   -0.000001
      4          6           0       -0.305181   -0.723387    0.000005
      5          6           0       -1.407035    0.144153    0.000007
      6          6           0       -1.223591    1.533358    0.000004
      7          8           0        2.390643    1.843275   -0.000006
      8          7           0        2.138053   -1.095757   -0.000012
      9          8           0        3.271386   -0.589834    0.000064
     10          8           0        1.911156   -2.312298   -0.000085
     11          7           0       -2.769314   -0.407642    0.000008
     12          8           0       -2.887415   -1.640152    0.000082
     13          8           0       -3.714344    0.392478   -0.000067
     14          1           0        0.217633    3.137523   -0.000004
     15          1           0       -0.455590   -1.802485    0.000005
     16          1           0       -2.070646    2.217950    0.000003
     17          1           0        3.120440    1.187309    0.000031
 ---------------------------------------------------------------------
 Rotational constants (GHZ):           1.5174892           0.5421261           0.3994292
 Standard basis: def2SVP (5D, 7F)
 There are   215 symmetry adapted cartesian basis functions of A   symmetry.
 There are   202 symmetry adapted basis functions of A   symmetry.
   202 basis functions,   353 primitive gaussians,   215 cartesian basis functions
    47 alpha electrons       47 beta electrons
       nuclear repulsion energy       774.4985785491 Hartrees.
 NAtoms=   17 NActive=   17 NUniq=   17 SFac= 1.00D+00 NAtFMM=   60 NAOKFM=F Big=F
 Integral buffers will be    131072 words long.
 Raffenetti 2 integral format.
 Two-electron integral symmetry is turned on.
 One-electron integrals computed using PRISM.
   1 Symmetry operations used in ECPInt.
 ECPInt:  NShTT=    4095 NPrTT=   15757 LenC2=    3876 LenP2D=   10992.
 LDataN:  DoStor=T MaxTD1= 4 Len=   56
 NBasis=   202 RedAO= T EigKep=  2.07D-04  NBF=   202
 NBsUse=   202 1.00D-06 EigRej= -1.00D+00 NBFU=   202
 ExpMin= 1.22D-01 ExpMax= 2.27D+03 ExpMxC= 3.41D+02 IAcc=3 IRadAn=         5 AccDes= 0.00D+00
 Harris functional with IExCor= 1009 and IRadAn=       5 diagonalized for initial guess.
 HarFok:  IExCor= 1009 AccDes= 0.00D+00 IRadAn=         5 IDoV= 1 UseB2=F ITyADJ=14
 ICtDFT=  3500011 ScaDFX=  1.000000  1.000000  1.000000  1.000000
 FoFCou: FMM=F IPFlag=           0 FMFlag=      100000 FMFlg1=           0
         NFxFlg=           0 DoJE=T BraDBF=F KetDBF=T FulRan=T
         wScrn=  0.000000 ICntrl=       500 IOpCl=  0 I1Cent=   200000004 NGrid=           0
         NMat0=    1 NMatS0=      1 NMatT0=    0 NMatD0=    1 NMtDS0=    0 NMtDT0=    0
 Petite list used in FoFCou.
 Requested convergence on RMS density matrix=1.00D-08 within 128 cycles.
 Requested convergence on MAX density matrix=1.00D-06.
 Requested convergence on             energy=1.00D-06.
 No special actions if energy rises.
 Integral accuracy reduced to 1.0D-05 until final iterations.
 Initial convergence to 1.0D-05 achieved.  Increase integral accuracy.
 SCF Done:  E(RMN15) =  -715.112328136     A.U. after   17 cycles
            NFock= 17  Conv=0.52D-08     -V/T= 2.0096

 **********************************************************************

            Population analysis using the SCF Density.

 **********************************************************************

 Orbital symmetries:
       Occupied  (A) (A) (A) (A) (A) (A) (A) (A) (A) (A) (A) (A)
                 (A) (A) (A) (A) (A) (A) (A) (A) (A) (A) (A) (A)
                 (A) (A) (A) (A) (A) (A) (A) (A) (A) (A) (A) (A)
                 (A) (A) (A) (A) (A) (A) (A) (A) (A) (A) (A)
       Virtual   (A) (A) (A) (A) (A) (A) (A) (A) (A) (A) (A) (A)
                 (A) (A) (A) (A) (A) (A) (A) (A) (A) (A) (A) (A)
                 (A) (A) (A) (A) (A) (A) (A) (A) (A) (A) (A) (A)
                 (A) (A) (A) (A) (A) (A) (A) (A) (A) (A) (A) (A)
                 (A) (A) (A) (A) (A) (A) (A) (A) (A) (A) (A) (A)
                 (A) (A) (A) (A) (A) (A) (A) (A) (A) (A) (A) (A)
                 (A) (A) (A) (A) (A) (A) (A) (A) (A) (A) (A) (A)
                 (A) (A) (A) (A) (A) (A) (A) (A) (A) (A) (A) (A)
                 (A) (A) (A) (A) (A) (A) (A) (A) (A) (A) (A) (A)
                 (A) (A) (A) (A) (A) (A) (A) (A) (A) (A) (A) (A)
                 (A) (A) (A) (A) (A) (A) (A) (A) (A) (A) (A) (A)
                 (A) (A) (A) (A) (A) (A) (A) (A) (A) (A) (A) (A)
                 (A) (A) (A) (A) (A) (A) (A) (A) (A) (A) (A)
 The electronic state is 1-A.
 Alpha  occ. eigenvalues --  -18.88715 -18.88316 -18.87938 -18.86256 -18.86191
 Alpha  occ. eigenvalues --  -14.38131 -14.35902 -10.18725 -10.15612 -10.14669
 Alpha  occ. eigenvalues --  -10.13091 -10.12237 -10.10613  -1.28826  -1.26592
 Alpha  occ. eigenvalues --   -1.13011  -1.10901  -1.09216  -0.96749  -0.89537
 Alpha  occ. eigenvalues --   -0.86031  -0.78394  -0.76229  -0.70177  -0.66809
 Alpha  occ. eigenvalues --   -0.63230  -0.62447  -0.61386  -0.60306  -0.60015
 Alpha  occ. eigenvalues --   -0.59692  -0.57289  -0.55315  -0.52669  -0.50700
 Alpha  occ. eigenvalues --   -0.50022  -0.47804  -0.45020  -0.43556  -0.39149
 Alpha  occ. eigenvalues --   -0.38648  -0.38238  -0.37345  -0.36502  -0.35897
 Alpha  occ. eigenvalues --   -0.35353  -0.32057
 Alpha virt. eigenvalues --   -0.10074  -0.08370  -0.02066   0.01395   0.07598
 Alpha virt. eigenvalues --    0.11775   0.13201   0.14975   0.15644   0.17771
 Alpha virt. eigenvalues --    0.18894   0.23869   0.25024   0.26088   0.27086
 Alpha virt. eigenvalues --    0.27533   0.29473   0.31035   0.31963   0.35023
 Alpha virt. eigenvalues --    0.36585   0.40476   0.42753   0.43240   0.44579
 Alpha virt. eigenvalues --    0.47246   0.49533   0.50562   0.50677   0.51187
 Alpha virt. eigenvalues --    0.52009   0.56177   0.57569   0.58900   0.59344
 Alpha virt. eigenvalues --    0.63323   0.65516   0.66086   0.68903   0.69208
 Alpha virt. eigenvalues --    0.69852   0.70259   0.74808   0.75540   0.76212
 Alpha virt. eigenvalues --    0.79729   0.80561   0.81389   0.87460   0.88899
 Alpha virt. eigenvalues --    0.92692   0.94335   0.95541   0.96104   0.97877
 Alpha virt. eigenvalues --    0.98130   0.98794   1.00570   1.01544   1.02875
 Alpha virt. eigenvalues --    1.04274   1.04653   1.09398   1.15092   1.15645
 Alpha virt. eigenvalues --    1.16606   1.17549   1.19624   1.20014   1.23004
 Alpha virt. eigenvalues --    1.23067   1.29306   1.30265   1.31409   1.32610
 Alpha virt. eigenvalues --    1.35274   1.38065   1.38189   1.40716   1.45607
 Alpha virt. eigenvalues --    1.45930   1.47431   1.50446   1.51725   1.61545
 Alpha virt. eigenvalues --    1.65043   1.67676   1.68984   1.69034   1.70085
 Alpha virt. eigenvalues --    1.72100   1.73908   1.74130   1.76046   1.79560
 Alpha virt. eigenvalues --    1.81296   1.84511   1.86109   1.87968   1.95896
 Alpha virt. eigenvalues --    1.96524   2.00535   2.01094   2.06874   2.07443
 Alpha virt. eigenvalues --    2.11820   2.15406   2.16489   2.16610   2.20340
 Alpha virt. eigenvalues --    2.23774   2.25236   2.26437   2.30752   2.32009
 Alpha virt. eigenvalues --    2.33592   2.35975   2.38490   2.48131   2.48525
 Alpha virt. eigenvalues --    2.48556   2.50372   2.57243   2.58009   2.59775
 Alpha virt. eigenvalues --    2.60714   2.62690   2.63125   2.65549   2.66413
 Alpha virt. eigenvalues --    2.68609   2.72297   2.74280   2.76146   2.80939
 Alpha virt. eigenvalues --    2.82799   2.84825   2.92648   2.93192   2.97117
 Alpha virt. eigenvalues --    2.98881   3.09453   3.13797   3.17921   3.18718
 Alpha virt. eigenvalues --    3.20312   3.26079   3.32313   3.39679   3.45384
 Alpha virt. eigenvalues --    3.63809   3.66800   3.67602   3.68432   3.72657
          Condensed to atoms (all electrons):
               1          2          3          4          5          6
     1  C    5.337327   0.133207   0.104802  -0.147220   0.202826   0.103275
     2  C    0.133207   5.472366  -0.208361   0.131367  -0.263857   0.212724
     3  C    0.104802  -0.208361   5.940491   0.051460   0.232172  -0.206501
     4  C   -0.147220   0.131367   0.051460   5.472121   0.057497   0.078555
     5  C    0.202826  -0.263857   0.232172   0.057497   5.579714   0.092773
     6  C    0.103275   0.212724  -0.206501   0.078555   0.092773   5.319907
     7  O   -0.085874   0.510912  -0.097615   0.003698  -0.000236   0.004604
     8  N    0.005497  -0.062171   0.293229  -0.062051   0.009783  -0.001026
     9  O    0.001542  -0.006198  -0.074129   0.006206   0.000180  -0.000070
    10  O    0.000036   0.002325  -0.109132   0.018713   0.003406  -0.000016
    11  N    0.007615  -0.001167   0.008707  -0.067763   0.280123  -0.060611
    12  O    0.000068  -0.000019   0.003654   0.019698  -0.113348   0.005277
    13  O    0.002931  -0.000099   0.000148   0.005012  -0.113512   0.022674
    14  H    0.452783  -0.074376   0.025640  -0.003687   0.016595  -0.076365
    15  H   -0.004110   0.021995  -0.054561   0.434757  -0.064834   0.016448
    16  H   -0.062685   0.017373  -0.003608   0.016900  -0.071940   0.449643
    17  H    0.010738  -0.001717  -0.029103  -0.000380  -0.000115  -0.000318
               7          8          9         10         11         12
     1  C   -0.085874   0.005497   0.001542   0.000036   0.007615   0.000068
     2  C    0.510912  -0.062171  -0.006198   0.002325  -0.001167  -0.000019
     3  C   -0.097615   0.293229  -0.074129  -0.109132   0.008707   0.003654
     4  C    0.003698  -0.062051   0.006206   0.018713  -0.067763   0.019698
     5  C   -0.000236   0.009783   0.000180   0.003406   0.280123  -0.113348
     6  C    0.004604  -0.001026  -0.000070  -0.000016  -0.060611   0.005277
     7  O    7.531567  -0.002992  -0.026511  -0.000045   0.000000  -0.000000
     8  N   -0.002992   5.958745   0.287187   0.356869   0.000005  -0.000002
     9  O   -0.026511   0.287187   8.118585  -0.088273   0.000000  -0.000000
    10  O   -0.000045   0.356869  -0.088273   7.997099  -0.000001   0.000000
    11  N    0.000000   0.000005   0.000000  -0.000001   5.973525   0.336595
    12  O   -0.000000  -0.000002  -0.000000   0.000000   0.336595   8.047121
    13  O   -0.000000   0.000000  -0.000000  -0.000000   0.338609  -0.096108
    14  H   -0.000648  -0.000038   0.000025   0.000002  -0.000066   0.000001
    15  H   -0.000005  -0.018100   0.000347   0.020454  -0.014610   0.021875
    16  H   -0.000050   0.000003  -0.000000  -0.000000  -0.014850   0.000368
    17  H    0.332632  -0.001479   0.047142   0.000553  -0.000000  -0.000000
              13         14         15         16         17
     1  C    0.002931   0.452783  -0.004110  -0.062685   0.010738
     2  C   -0.000099  -0.074376   0.021995   0.017373  -0.001717
     3  C    0.000148   0.025640  -0.054561  -0.003608  -0.029103
     4  C    0.005012  -0.003687   0.434757   0.016900  -0.000380
     5  C   -0.113512   0.016595  -0.064834  -0.071940  -0.000115
     6  C    0.022674  -0.076365   0.016448   0.449643  -0.000318
     7  O   -0.000000  -0.000648  -0.000005  -0.000050   0.332632
     8  N    0.000000  -0.000038  -0.018100   0.000003  -0.001479
     9  O   -0.000000   0.000025   0.000347  -0.000000   0.047142
    10  O   -0.000000   0.000002   0.020454  -0.000000   0.000553
    11  N    0.338609  -0.000066  -0.014610  -0.014850  -0.000000
    12  O   -0.096108   0.000001   0.021875   0.000368  -0.000000
    13  O    8.048321  -0.000005   0.000430   0.019245   0.000000
    14  H   -0.000005   0.656916  -0.000010  -0.013300  -0.000122
    15  H    0.000430  -0.000010   0.605071  -0.000151  -0.000036
    16  H    0.019245  -0.013300  -0.000151   0.633873   0.000008
    17  H    0.000000  -0.000122  -0.000036   0.000008   0.435765
 Mulliken charges:
               1
     1  C   -0.062758
     2  C    0.115696
     3  C    0.122706
     4  C   -0.014882
     5  C    0.152772
     6  C    0.039028
     7  O   -0.169438
     8  N    0.236538
     9  O   -0.266033
    10  O   -0.201989
    11  N    0.213889
    12  O   -0.225180
    13  O   -0.227646
    14  H    0.016656
    15  H    0.035038
    16  H    0.029171
    17  H    0.206433
 Sum of Mulliken charges =  -0.00000
 Mulliken charges with hydrogens summed into heavy atoms:
               1
     1  C   -0.046103
     2  C    0.115696
     3  C    0.122706
     4  C    0.020156
     5  C    0.152772
     6  C    0.068199
     7  O    0.036995
     8  N    0.236538
     9  O   -0.266033
    10  O   -0.201989
    11  N    0.213889
    12  O   -0.225180
    13  O   -0.227646
 Electronic spatial extent (au):  <R**2>=           2494.8926
 Charge=             -0.0000 electrons
 Dipole moment (field-independent basis, Debye):
    X=              1.5068    Y=              3.0685    Z=              0.0000  Tot=              3.4185
 Quadrupole moment (field-independent basis, Debye-Ang):
   XX=            -90.0081   YY=            -75.1957   ZZ=            -70.7160
   XY=             -1.1009   XZ=             -0.0001   YZ=              0.0001
 Traceless Quadrupole moment (field-independent basis, Debye-Ang):
   XX=            -11.3682   YY=              3.4443   ZZ=              7.9239
   XY=             -1.1009   XZ=             -0.0001   YZ=              0.0001
 Octapole moment (field-independent basis, Debye-Ang**2):
  XXX=             53.4806  YYY=             15.2863  ZZZ=             -0.0001  XYY=            -10.4874
  XXY=             17.3243  XXZ=              0.0003  XZZ=              1.4506  YZZ=             -7.6787
  YYZ=              0.0004  XYZ=             -0.0010
 Hexadecapole moment (field-independent basis, Debye-Ang**3):
 XXXX=          -2323.4970 YYYY=           -826.5593 ZZZZ=            -63.0398 XXXY=             32.2483
 XXXZ=             -0.0048 YYYX=            -17.8700 YYYZ=             -0.0010 ZZZX=              0.0000
 ZZZY=              0.0001 XXYY=           -535.6730 XXZZ=           -334.4332 YYZZ=           -151.0242
 XXYZ=              0.0034 YYXZ=              0.0027 ZZXY=              0.6032
 N-N= 7.744985785491D+02 E-N=-3.221302549194D+03  KE= 7.083367605431D+02
   1 Symmetry operations used in ECPInt.
 ECPInt:  NShTT=    4095 NPrTT=   15757 LenC2=    3876 LenP2D=   10992.
 LDataN:  DoStor=T MaxTD1= 5 Len=  102
 Calling FoFJK, ICntrl=      2127 FMM=F ISym2X=0 I1Cent= 0 IOpClX= 0 NMat=1 NMatS=1 NMatT=0.
 ***** Axes restored to original set *****
 -------------------------------------------------------------------
 Center     Atomic                   Forces (Hartrees/Bohr)
 Number     Number              X              Y              Z
 -------------------------------------------------------------------
      1        6           0.024425843   -0.008598452   -0.001794720
      2        6          -0.046444561    0.030497635    0.005795469
      3        6           0.007768753   -0.011266431   -0.002007607
      4        6           0.006382222    0.006325593    0.000975050
      5        6          -0.011117148   -0.005355158   -0.000744045
      6        6          -0.010599897    0.007333224    0.001385946
      7        8           0.027016819   -0.015998846   -0.003078301
      8        7          -0.002778007   -0.025513542   -0.004257687
      9        8           0.018478764   -0.013022789   -0.002453206
     10        8          -0.007622821    0.042328821    0.007234359
     11        7           0.025147531   -0.014121031   -0.002735290
     12        8          -0.003768128    0.034577201    0.005879015
     13        8          -0.030301485   -0.018964337   -0.002766028
     14        1          -0.003881729   -0.000015366    0.000052362
     15        1          -0.000647164   -0.000726832   -0.000113240
     16        1           0.003503669   -0.003408258   -0.000623713
     17        1           0.004437338   -0.004071434   -0.000748362
 -------------------------------------------------------------------
 Cartesian Forces:  Max     0.046444561 RMS     0.015291983

 GradGradGradGradGradGradGradGradGradGradGradGradGradGradGradGradGradGrad
 Berny optimization.
 FormGI is forming the generalized inverse of G from B-inverse, IUseBI=4.
 Internal  Forces:  Max     0.043575275 RMS     0.010128237
 Search for a local minimum.
 Step number   1 out of a maximum of   86
 All quantities printed in internal units (Hartrees-Bohrs-Radians)
 Mixed Optimization -- RFO/linear search
 Second derivative matrix not updated -- first step.
 ITU=  0
     Eigenvalues ---    0.00769   0.00769   0.00820   0.00820   0.01650
     Eigenvalues ---    0.01689   0.02034   0.02040   0.02069   0.02088
     Eigenvalues ---    0.02101   0.02116   0.02121   0.02132   0.16000
     Eigenvalues ---    0.16000   0.16000   0.16000   0.22374   0.23497
     Eigenvalues ---    0.24609   0.25000   0.25000   0.25000   0.25000
     Eigenvalues ---    0.25000   0.25000   0.25000   0.34867   0.34915
     Eigenvalues ---    0.34926   0.35765   0.36234   0.41399   0.41700
     Eigenvalues ---    0.44991   0.45262   0.45670   0.46042   0.51139
     Eigenvalues ---    0.51448   0.86602   0.87732   0.87771   0.88024
 RFO step:  Lambda=-1.28758928D-02 EMin= 7.68597323D-03
 Linear search not attempted -- first point.
 Iteration  1 RMS(Cart)=  0.04193064 RMS(Int)=  0.00095137
 Iteration  2 RMS(Cart)=  0.00112282 RMS(Int)=  0.00000982
 Iteration  3 RMS(Cart)=  0.00000020 RMS(Int)=  0.00000982
 Variable       Old X    -DE/DX   Delta X   Delta X   Delta X     New X
                                 (Linear)    (Quad)   (Total)
    R1        2.63914   0.00755   0.00000   0.01749   0.01751   2.65665
    R2        2.63967  -0.01055   0.00000  -0.02185  -0.02183   2.61784
    R3        2.05796   0.00032   0.00000   0.00089   0.00089   2.05885
    R4        2.65204   0.00756   0.00000   0.01756   0.01755   2.66959
    R5        2.58432  -0.03747   0.00000  -0.07106  -0.07106   2.51326
    R6        2.65576  -0.01125   0.00000  -0.02482  -0.02484   2.63091
    R7        2.77017  -0.00879   0.00000  -0.02344  -0.02344   2.74673
    R8        2.65014  -0.01781   0.00000  -0.03992  -0.03994   2.61020
    R9        2.05891   0.00068   0.00000   0.00187   0.00187   2.06078
   R10        2.64801  -0.00162   0.00000  -0.00472  -0.00472   2.64329
   R11        2.77750  -0.00874   0.00000  -0.02358  -0.02358   2.75392
   R12        2.05813   0.00079   0.00000   0.00219   0.00219   2.06032
   R13        1.85434  -0.00084   0.00000  -0.00160  -0.00160   1.85274
   R14        2.34540  -0.02248   0.00000  -0.02558  -0.02558   2.31982
   R15        2.33857  -0.04358   0.00000  -0.04879  -0.04879   2.28978
   R16        2.33977  -0.03521   0.00000  -0.03953  -0.03953   2.30024
   R17        2.33996  -0.03571   0.00000  -0.04012  -0.04012   2.29984
    A1        2.10218   0.00008   0.00000   0.00478   0.00482   2.10700
    A2        2.08960  -0.00402   0.00000  -0.02542  -0.02544   2.06416
    A3        2.09140   0.00394   0.00000   0.02064   0.02062   2.11202
    A4        2.09087  -0.00840   0.00000  -0.02648  -0.02646   2.06440
    A5        2.00509   0.01186   0.00000   0.04239   0.04238   2.04747
    A6        2.18723  -0.00346   0.00000  -0.01591  -0.01592   2.17131
    A7        2.10018   0.00463   0.00000   0.01940   0.01938   2.11956
    A8        2.10979   0.00182   0.00000   0.00601   0.00602   2.11582
    A9        2.07322  -0.00645   0.00000  -0.02541  -0.02540   2.04781
   A10        2.07920  -0.00197   0.00000  -0.01234  -0.01237   2.06683
   A11        2.10470   0.00026   0.00000   0.00195   0.00197   2.10667
   A12        2.09928   0.00172   0.00000   0.01039   0.01041   2.10969
   A13        2.10648   0.00686   0.00000   0.02120   0.02118   2.12767
   A14        2.08976  -0.00557   0.00000  -0.01873  -0.01872   2.07104
   A15        2.08694  -0.00129   0.00000  -0.00247  -0.00246   2.08448
   A16        2.08746  -0.00120   0.00000  -0.00657  -0.00655   2.08091
   A17        2.07650   0.00560   0.00000   0.03223   0.03222   2.10871
   A18        2.11923  -0.00440   0.00000  -0.02566  -0.02567   2.09356
   A19        1.92696  -0.01115   0.00000  -0.06448  -0.06448   1.86248
   A20        2.04877   0.00396   0.00000   0.01506   0.01506   2.06384
   A21        2.05937   0.00014   0.00000   0.00055   0.00055   2.05992
   A22        2.17504  -0.00410   0.00000  -0.01561  -0.01561   2.15943
   A23        2.05118  -0.00093   0.00000  -0.00355  -0.00355   2.04763
   A24        2.05419  -0.00324   0.00000  -0.01231  -0.01231   2.04187
   A25        2.17782   0.00417   0.00000   0.01586   0.01586   2.19368
    D1        0.00000  -0.00000   0.00000  -0.00000  -0.00000   0.00000
    D2        3.14159   0.00000   0.00000   0.00000   0.00000  -3.14159
    D3       -3.14159  -0.00000   0.00000  -0.00000  -0.00000  -3.14159
    D4        0.00000  -0.00000   0.00000  -0.00000  -0.00000  -0.00000
    D5        0.00000   0.00000   0.00000   0.00000   0.00000   0.00000
    D6       -3.14159  -0.00000   0.00000  -0.00000  -0.00000  -3.14159
    D7        3.14159   0.00000   0.00000   0.00000   0.00000  -3.14159
    D8       -0.00000   0.00000   0.00000   0.00000   0.00000   0.00000
    D9       -0.00001   0.00000   0.00000   0.00000   0.00000  -0.00000
   D10        3.14158   0.00000   0.00000   0.00000   0.00000   3.14159
   D11        3.14159  -0.00000   0.00000  -0.00000  -0.00000   3.14159
   D12       -0.00000  -0.00000   0.00000  -0.00000  -0.00000  -0.00000
   D13        3.14155   0.00000   0.00000   0.00001   0.00001   3.14156
   D14       -0.00004   0.00000   0.00000   0.00001   0.00001  -0.00003
   D15        0.00000  -0.00000   0.00000  -0.00000  -0.00000   0.00000
   D16       -3.14159   0.00000   0.00000   0.00000   0.00000  -3.14159
   D17       -3.14159  -0.00000   0.00000  -0.00000  -0.00000  -3.14159
   D18        0.00000   0.00000   0.00000   0.00000   0.00000   0.00000
   D19        0.00008  -0.00000   0.00000  -0.00004  -0.00004   0.00004
   D20       -3.14153   0.00000   0.00000   0.00001   0.00001  -3.14152
   D21       -3.14152  -0.00000   0.00000  -0.00004  -0.00004  -3.14156
   D22        0.00006   0.00000   0.00000   0.00001   0.00001   0.00007
   D23       -0.00000   0.00000   0.00000   0.00000   0.00000   0.00000
   D24        3.14159   0.00000   0.00000   0.00000   0.00000   3.14159
   D25       -3.14159   0.00000   0.00000  -0.00000  -0.00000  -3.14159
   D26       -0.00000   0.00000   0.00000   0.00000   0.00000  -0.00000
   D27       -0.00000  -0.00000   0.00000  -0.00000  -0.00000  -0.00000
   D28        3.14159  -0.00000   0.00000  -0.00000  -0.00000   3.14159
   D29       -3.14159  -0.00000   0.00000  -0.00000  -0.00000   3.14159
   D30        0.00000  -0.00000   0.00000  -0.00000  -0.00000   0.00000
   D31        0.00007  -0.00000   0.00000  -0.00001  -0.00001   0.00006
   D32       -3.14152  -0.00000   0.00000  -0.00001  -0.00001  -3.14154
   D33       -3.14153  -0.00000   0.00000  -0.00001  -0.00001  -3.14154
   D34        0.00007  -0.00000   0.00000  -0.00001  -0.00001   0.00005
         Item               Value     Threshold  Converged?
 Maximum Force            0.043575     0.000450     NO 
 RMS     Force            0.010128     0.000300     NO 
 Maximum Displacement     0.161707     0.001800     NO 
 RMS     Displacement     0.041861     0.001200     NO 
 Predicted change in Energy=-6.620981D-03
 GradGradGradGradGradGradGradGradGradGradGradGradGradGradGradGradGradGrad

                          Input orientation:                          
 ---------------------------------------------------------------------
 Center     Atomic      Atomic             Coordinates (Angstroms)
 Number     Number       Type             X           Y           Z
 ---------------------------------------------------------------------
      1          6           0        0.058548    1.758245    0.295280
      2          6           0       -1.110942    0.986351    0.181882
      3          6           0       -0.977578   -0.400185   -0.053521
      4          6           0        0.273361   -0.999630   -0.172234
      5          6           0        1.396977   -0.204984   -0.054355
      6          6           0        1.307960    1.171357    0.178706
      7          8           0       -2.274158    1.619256    0.304983
      8          7           0       -2.143684   -1.258381   -0.181493
      9          8           0       -3.255195   -0.747334   -0.079687
     10          8           0       -1.962081   -2.439348   -0.382879
     11          7           0        2.709083   -0.827004   -0.177738
     12          8           0        2.741744   -2.026817   -0.380326
     13          8           0        3.678046   -0.098727   -0.068781
     14          1           0       -0.044569    2.827547    0.476829
     15          1           0        0.362313   -2.071214   -0.353966
     16          1           0        2.215970    1.768455    0.266378
     17          1           0       -2.975793    0.942411    0.200921
 ---------------------------------------------------------------------
                    Distance matrix (angstroms):
                    1          2          3          4          5
     1  C    0.000000
     2  C    1.405840   0.000000
     3  C    2.419512   1.412686   0.000000
     4  C    2.805456   2.446592   1.392220   0.000000
     5  C    2.401646   2.786530   2.382566   1.381257   0.000000
     6  C    1.385300   2.425969   2.783408   2.430378   1.398769
     7  O    2.336864   1.329960   2.426476   3.684583   4.115120
     8  N    3.765259   2.497483   1.453506   2.430873   3.696227
     9  O    4.171261   2.769820   2.304070   3.538775   4.683748
    10  O    4.707720   3.574746   2.288211   2.667276   4.047665
    11  N    3.732638   4.243840   3.713365   2.441838   1.457310
    12  O    4.688568   4.923256   4.072603   2.681666   2.287735
    13  O    4.084317   4.916771   4.665399   3.523380   2.283588
    14  H    1.089495   2.148056   3.401474   3.894822   3.399478
    15  H    3.895966   3.436033   2.162849   1.090519   2.154789
    16  H    2.157640   3.418651   3.873511   3.410045   2.160574
    17  H    3.143519   1.865465   2.420778   3.803652   4.528002
                    6          7          8          9         10
     6  C    0.000000
     7  O    3.612219   0.000000
     8  N    4.236416   2.921383   0.000000
     9  O    4.956867   2.590589   1.227596   0.000000
    10  O    4.903646   4.128295   1.211701   2.151042   0.000000
    11  N    2.466504   5.572244   4.871904   5.965616   4.945858
    12  O    3.549165   6.238812   4.949489   6.139279   4.721881
    13  O    2.700309   6.206440   5.937175   6.963523   6.114589
    14  H    2.158975   2.541764   4.640526   4.837107   5.670638
    15  H    3.419394   4.583096   2.640164   3.861898   2.353543
    16  H    1.090273   4.492772   5.326248   6.031800   5.965170
    17  H    4.289924   0.980428   2.383723   1.735525   3.578370
                   11         12         13         14         15
    11  N    0.000000
    12  O    1.217235   0.000000
    13  O    1.217024   2.165930   0.000000
    14  H    4.622423   5.662429   4.766406   0.000000
    15  H    2.662038   2.379992   3.868608   4.985342   0.000000
    16  H    2.678956   3.885711   2.395071   2.505195   4.308588
    17  H    5.965905   6.468724   6.740199   3.495988   4.531312
                   16         17
    16  H    0.000000
    17  H    5.257474   0.000000
 Stoichiometry    C6H4N2O5
 Framework group  C1[X(C6H4N2O5)]
 Deg. of freedom    45
 Full point group                 C1      NOp   1
 Largest Abelian subgroup         C1      NOp   1
 Largest concise Abelian subgroup C1      NOp   1
                         Standard orientation:                         
 ---------------------------------------------------------------------
 Center     Atomic      Atomic             Coordinates (Angstroms)
 Number     Number       Type             X           Y           Z
 ---------------------------------------------------------------------
      1          6           0        0.053887    2.072030   -0.000003
      2          6           0        1.182203    1.233406    0.000002
      3          6           0        0.977296   -0.164341    0.000005
      4          6           0       -0.303282   -0.710597    0.000007
      5          6           0       -1.384597    0.148838    0.000005
      6          6           0       -1.224515    1.538417   -0.000003
      7          8           0        2.376882    1.817815    0.000002
      8          7           0        2.097768   -1.090204    0.000002
      9          8           0        3.234498   -0.626699    0.000039
     10          8           0        1.855305   -2.277398   -0.000076
     11          7           0       -2.727442   -0.417306    0.000006
     12          8           0       -2.822103   -1.630855    0.000070
     13          8           0       -3.657701    0.367402   -0.000055
     14          1           0        0.212178    3.149965   -0.000007
     15          1           0       -0.447541   -1.791533    0.000011
     16          1           0       -2.100671    2.187298   -0.000007
     17          1           0        3.042762    1.098202    0.000035
 ---------------------------------------------------------------------
 Rotational constants (GHZ):           1.5321060           0.5588479           0.4094850
 Standard basis: def2SVP (5D, 7F)
 There are   215 symmetry adapted cartesian basis functions of A   symmetry.
 There are   202 symmetry adapted basis functions of A   symmetry.
   202 basis functions,   353 primitive gaussians,   215 cartesian basis functions
    47 alpha electrons       47 beta electrons
       nuclear repulsion energy       782.9568183636 Hartrees.
 NAtoms=   17 NActive=   17 NUniq=   17 SFac= 1.00D+00 NAtFMM=   60 NAOKFM=F Big=F
 Integral buffers will be    131072 words long.
 Raffenetti 2 integral format.
 Two-electron integral symmetry is turned on.
 One-electron integrals computed using PRISM.
   1 Symmetry operations used in ECPInt.
 ECPInt:  NShTT=    4095 NPrTT=   15757 LenC2=    3889 LenP2D=   11047.
 LDataN:  DoStor=T MaxTD1= 4 Len=   56
 NBasis=   202 RedAO= T EigKep=  2.10D-04  NBF=   202
 NBsUse=   202 1.00D-06 EigRej= -1.00D+00 NBFU=   202
 Initial guess from the checkpoint file:  "pka_scale_frag4_pka_HA_opt.chk"
 B after Tr=    -0.000000   -0.000000   -0.000000
         Rot=    1.000000   -0.000000   -0.000000    0.000237 Ang=  -0.03 deg.
 ExpMin= 1.22D-01 ExpMax= 2.27D+03 ExpMxC= 3.41D+02 IAcc=3 IRadAn=         5 AccDes= 0.00D+00
 Harris functional with IExCor= 1009 and IRadAn=       5 diagonalized for initial guess.
 HarFok:  IExCor= 1009 AccDes= 0.00D+00 IRadAn=         5 IDoV= 1 UseB2=F ITyADJ=14
 ICtDFT=  3500011 ScaDFX=  1.000000  1.000000  1.000000  1.000000
 FoFCou: FMM=F IPFlag=           0 FMFlag=      100000 FMFlg1=           0
         NFxFlg=           0 DoJE=T BraDBF=F KetDBF=T FulRan=T
         wScrn=  0.000000 ICntrl=       500 IOpCl=  0 I1Cent=   200000004 NGrid=           0
         NMat0=    1 NMatS0=      1 NMatT0=    0 NMatD0=    1 NMtDS0=    0 NMtDT0=    0
 Petite list used in FoFCou.
 Requested convergence on RMS density matrix=1.00D-08 within 128 cycles.
 Requested convergence on MAX density matrix=1.00D-06.
 Requested convergence on             energy=1.00D-06.
 No special actions if energy rises.
 Integral accuracy reduced to 1.0D-05 until final iterations.
 Initial convergence to 1.0D-05 achieved.  Increase integral accuracy.
 SCF Done:  E(RMN15) =  -715.119194289     A.U. after   14 cycles
            NFock= 14  Conv=0.72D-08     -V/T= 2.0089
   1 Symmetry operations used in ECPInt.
 ECPInt:  NShTT=    4095 NPrTT=   15757 LenC2=    3889 LenP2D=   11047.
 LDataN:  DoStor=T MaxTD1= 5 Len=  102
 Calling FoFJK, ICntrl=      2127 FMM=F ISym2X=0 I1Cent= 0 IOpClX= 0 NMat=1 NMatS=1 NMatT=0.
 ***** Axes restored to original set *****
 -------------------------------------------------------------------
 Center     Atomic                   Forces (Hartrees/Bohr)
 Number     Number              X              Y              Z
 -------------------------------------------------------------------
      1        6           0.008846242   -0.003305897   -0.000682098
      2        6          -0.011820482    0.010410473    0.001920840
      3        6           0.001009157   -0.000095188   -0.000031829
      4        6           0.001874098   -0.001493401   -0.000278348
      5        6          -0.002941351   -0.000016810    0.000039067
      6        6          -0.003890332    0.005342965    0.000955166
      7        8           0.008914093   -0.004743941   -0.000926028
      8        7           0.003352538   -0.010841316   -0.001866928
      9        8          -0.002091275    0.005721537    0.000991193
     10        8          -0.001564826    0.004601250    0.000794395
     11        7           0.006029732   -0.003557319   -0.000684830
     12        8           0.001141442    0.003576980    0.000586642
     13        8          -0.001158782   -0.002331000   -0.000376455
     14        1          -0.001709090    0.000367322    0.000086094
     15        1          -0.000325202    0.000737750    0.000128848
     16        1           0.000936082   -0.001696821   -0.000299029
     17        1          -0.006602044   -0.002676585   -0.000356700
 -------------------------------------------------------------------
 Cartesian Forces:  Max     0.011820482 RMS     0.004029931

 GradGradGradGradGradGradGradGradGradGradGradGradGradGradGradGradGradGrad
 Berny optimization.
 Using GEDIIS/GDIIS optimizer.
 FormGI is forming the generalized inverse of G from B-inverse, IUseBI=4.
 Internal  Forces:  Max     0.007404836 RMS     0.002504130
 Search for a local minimum.
 Step number   2 out of a maximum of   86
 All quantities printed in internal units (Hartrees-Bohrs-Radians)
 Mixed Optimization -- RFO/linear search
 Update second derivatives using D2CorX and points    1    2
 DE= -6.87D-03 DEPred=-6.62D-03 R= 1.04D+00
 TightC=F SS=  1.41D+00  RLast= 1.69D-01 DXNew= 5.0454D-01 5.0607D-01
 Trust test= 1.04D+00 RLast= 1.69D-01 DXMaxT set to 5.05D-01
 ITU=  1  0
 Use linear search instead of GDIIS.
     Eigenvalues ---    0.00769   0.00769   0.00820   0.00820   0.01660
     Eigenvalues ---    0.01695   0.02034   0.02040   0.02069   0.02090
     Eigenvalues ---    0.02102   0.02116   0.02121   0.02132   0.15356
     Eigenvalues ---    0.16000   0.16000   0.16709   0.22129   0.22572
     Eigenvalues ---    0.23837   0.24752   0.25000   0.25000   0.25000
     Eigenvalues ---    0.25000   0.25000   0.26797   0.34868   0.34916
     Eigenvalues ---    0.34921   0.35851   0.36852   0.41272   0.42294
     Eigenvalues ---    0.44683   0.45009   0.45600   0.46635   0.48990
     Eigenvalues ---    0.53175   0.83841   0.87710   0.87886   0.90007
 RFO step:  Lambda=-1.63691068D-03 EMin= 7.68597322D-03
 Quartic linear search produced a step of  0.03642.
 Iteration  1 RMS(Cart)=  0.02500755 RMS(Int)=  0.00033794
 Iteration  2 RMS(Cart)=  0.00037334 RMS(Int)=  0.00000547
 Iteration  3 RMS(Cart)=  0.00000004 RMS(Int)=  0.00000547
 Variable       Old X    -DE/DX   Delta X   Delta X   Delta X     New X
                                 (Linear)    (Quad)   (Total)
    R1        2.65665   0.00391   0.00064   0.01020   0.01084   2.66749
    R2        2.61784  -0.00150  -0.00080  -0.00551  -0.00631   2.61153
    R3        2.05885   0.00054   0.00003   0.00166   0.00169   2.06054
    R4        2.66959   0.00145   0.00064   0.00504   0.00569   2.67528
    R5        2.51326  -0.00567  -0.00259  -0.01765  -0.02024   2.49302
    R6        2.63091   0.00275  -0.00090   0.00442   0.00352   2.63443
    R7        2.74673   0.00056  -0.00085  -0.00044  -0.00129   2.74543
    R8        2.61020   0.00119  -0.00145  -0.00071  -0.00217   2.60802
    R9        2.06078  -0.00077   0.00007  -0.00213  -0.00206   2.05873
   R10        2.64329   0.00275  -0.00017   0.00567   0.00548   2.64877
   R11        2.75392   0.00644  -0.00086   0.01653   0.01567   2.76959
   R12        2.06032  -0.00017   0.00008  -0.00032  -0.00024   2.06007
   R13        1.85274   0.00661  -0.00006   0.01321   0.01315   1.86589
   R14        2.31982   0.00436  -0.00093   0.00291   0.00197   2.32179
   R15        2.28978  -0.00485  -0.00178  -0.01008  -0.01186   2.27792
   R16        2.30024  -0.00359  -0.00144  -0.00779  -0.00923   2.29102
   R17        2.29984  -0.00235  -0.00146  -0.00637  -0.00784   2.29201
    A1        2.10700   0.00159   0.00018   0.00692   0.00710   2.11411
    A2        2.06416  -0.00251  -0.00093  -0.01628  -0.01721   2.04695
    A3        2.11202   0.00092   0.00075   0.00936   0.01011   2.12213
    A4        2.06440  -0.00307  -0.00096  -0.01488  -0.01582   2.04858
    A5        2.04747   0.00592   0.00154   0.02796   0.02949   2.07696
    A6        2.17131  -0.00285  -0.00058  -0.01308  -0.01367   2.15764
    A7        2.11956   0.00210   0.00071   0.01088   0.01160   2.13116
    A8        2.11582  -0.00676   0.00022  -0.02762  -0.02740   2.08841
    A9        2.04781   0.00466  -0.00093   0.01673   0.01580   2.06361
   A10        2.06683  -0.00050  -0.00045  -0.00286  -0.00331   2.06351
   A11        2.10667  -0.00002   0.00007  -0.00064  -0.00057   2.10610
   A12        2.10969   0.00052   0.00038   0.00350   0.00388   2.11357
   A13        2.12767  -0.00108   0.00077  -0.00297  -0.00222   2.12544
   A14        2.07104   0.00129  -0.00068   0.00390   0.00323   2.07426
   A15        2.08448  -0.00021  -0.00009  -0.00092  -0.00100   2.08348
   A16        2.08091   0.00097  -0.00024   0.00291   0.00265   2.08357
   A17        2.10871   0.00153   0.00117   0.01373   0.01492   2.12363
   A18        2.09356  -0.00250  -0.00093  -0.01664  -0.01757   2.07599
   A19        1.86248   0.00496  -0.00235   0.02671   0.02436   1.88684
   A20        2.06384  -0.00740   0.00055  -0.02922  -0.02868   2.03516
   A21        2.05992   0.00467   0.00002   0.01928   0.01930   2.07922
   A22        2.15943   0.00273  -0.00057   0.00994   0.00937   2.16880
   A23        2.04763   0.00100  -0.00013   0.00381   0.00368   2.05131
   A24        2.04187   0.00086  -0.00045   0.00249   0.00205   2.04392
   A25        2.19368  -0.00185   0.00058  -0.00630  -0.00572   2.18796
    D1        0.00000   0.00000  -0.00000   0.00000   0.00000   0.00000
    D2       -3.14159  -0.00000   0.00000   0.00000   0.00000  -3.14159
    D3       -3.14159   0.00000  -0.00000   0.00000   0.00000  -3.14159
    D4       -0.00000  -0.00000  -0.00000  -0.00000  -0.00000  -0.00000
    D5        0.00000   0.00000   0.00000   0.00000   0.00000   0.00000
    D6       -3.14159   0.00000  -0.00000   0.00000   0.00000  -3.14159
    D7       -3.14159   0.00000   0.00000   0.00000   0.00000  -3.14159
    D8        0.00000   0.00000   0.00000   0.00000   0.00000   0.00000
    D9       -0.00000  -0.00000   0.00000  -0.00000  -0.00000  -0.00001
   D10        3.14159   0.00000   0.00000   0.00000   0.00000   3.14159
   D11        3.14159  -0.00000  -0.00000  -0.00000  -0.00000   3.14159
   D12       -0.00000   0.00000  -0.00000   0.00000   0.00000  -0.00000
   D13        3.14156   0.00000   0.00000   0.00002   0.00002   3.14158
   D14       -0.00003   0.00000   0.00000   0.00002   0.00002  -0.00001
   D15        0.00000   0.00000  -0.00000   0.00000   0.00000   0.00001
   D16       -3.14159   0.00000   0.00000   0.00000   0.00000  -3.14159
   D17       -3.14159  -0.00000  -0.00000  -0.00000  -0.00000  -3.14159
   D18        0.00000  -0.00000   0.00000  -0.00000  -0.00000   0.00000
   D19        0.00004   0.00000  -0.00000   0.00019   0.00019   0.00023
   D20       -3.14152  -0.00000   0.00000  -0.00025  -0.00025   3.14142
   D21       -3.14156   0.00000  -0.00000   0.00020   0.00020  -3.14136
   D22        0.00007  -0.00000   0.00000  -0.00024  -0.00024  -0.00017
   D23        0.00000  -0.00000   0.00000  -0.00000  -0.00000  -0.00000
   D24        3.14159  -0.00000   0.00000  -0.00000  -0.00000   3.14159
   D25       -3.14159  -0.00000  -0.00000  -0.00000  -0.00000  -3.14159
   D26       -0.00000   0.00000   0.00000   0.00000   0.00000  -0.00000
   D27       -0.00000   0.00000  -0.00000   0.00000   0.00000  -0.00000
   D28        3.14159   0.00000  -0.00000   0.00000   0.00000   3.14159
   D29        3.14159  -0.00000  -0.00000  -0.00000  -0.00000   3.14159
   D30        0.00000  -0.00000  -0.00000  -0.00000  -0.00000  -0.00000
   D31        0.00006  -0.00000  -0.00000  -0.00002  -0.00002   0.00003
   D32       -3.14154  -0.00000  -0.00000  -0.00002  -0.00002  -3.14156
   D33       -3.14154  -0.00000  -0.00000  -0.00002  -0.00002  -3.14156
   D34        0.00005  -0.00000  -0.00000  -0.00002  -0.00002   0.00003
         Item               Value     Threshold  Converged?
 Maximum Force            0.007405     0.000450     NO 
 RMS     Force            0.002504     0.000300     NO 
 Maximum Displacement     0.123629     0.001800     NO 
 RMS     Displacement     0.024990     0.001200     NO 
 Predicted change in Energy=-8.372069D-04
 GradGradGradGradGradGradGradGradGradGradGradGradGradGradGradGradGradGrad

                          Input orientation:                          
 ---------------------------------------------------------------------
 Center     Atomic      Atomic             Coordinates (Angstroms)
 Number     Number       Type             X           Y           Z
 ---------------------------------------------------------------------
      1          6           0        0.058807    1.754109    0.294569
      2          6           0       -1.119154    0.984549    0.181720
      3          6           0       -0.969898   -0.403364   -0.054111
      4          6           0        0.282395   -1.004253   -0.173097
      5          6           0        1.402830   -0.207180   -0.054799
      6          6           0        1.306614    1.171545    0.178738
      7          8           0       -2.288470    1.583967    0.299274
      8          7           0       -2.149450   -1.242318   -0.178619
      9          8           0       -3.237337   -0.681912   -0.069047
     10          8           0       -2.011351   -2.422829   -0.379553
     11          7           0        2.726215   -0.824887   -0.177625
     12          8           0        2.770492   -2.019502   -0.379453
     13          8           0        3.688954   -0.095312   -0.068415
     14          1           0       -0.057926    2.822910    0.476205
     15          1           0        0.370078   -2.074869   -0.354628
     16          1           0        2.222017    1.757308    0.264369
     17          1           0       -2.994817    0.902039    0.194471
 ---------------------------------------------------------------------
                    Distance matrix (angstroms):
                    1          2          3          4          5
     1  C    0.000000
     2  C    1.411577   0.000000
     3  C    2.415471   1.415696   0.000000
     4  C    2.806646   2.458774   1.394082   0.000000
     5  C    2.403146   2.799387   2.380825   1.380107   0.000000
     6  C    1.381962   2.432967   2.777960   2.430414   1.401671
     7  O    2.353440   1.319250   2.411016   3.678500   4.118164
     8  N    3.752183   2.479978   1.452821   2.443476   3.702099
     9  O    4.114727   2.706783   2.284533   3.535992   4.664410
    10  O    4.710287   3.566688   2.295381   2.704857   4.083038
    11  N    3.740221   4.264980   3.722122   2.450398   1.465604
    12  O    4.695496   4.946573   4.087575   2.695170   2.293559
    13  O    4.090243   4.934225   4.669048   3.527291   2.288900
    14  H    1.090392   2.143011   3.394373   3.896741   3.405469
    15  H    3.896077   3.444636   2.163279   1.089431   2.155165
    16  H    2.163423   3.430366   3.867590   3.402900   2.152243
    17  H    3.171855   1.877520   2.422017   3.809091   4.542225
                    6          7          8          9         10
     6  C    0.000000
     7  O    3.620670   0.000000
     8  N    4.230700   2.869772   0.000000
     9  O    4.913674   2.483992   1.228641   0.000000
    10  O    4.923424   4.073329   1.205426   2.151800   0.000000
    11  N    2.475481   5.583644   4.893502   5.966254   5.003871
    12  O    3.554898   6.248100   4.984996   6.162752   4.798822
    13  O    2.709531   6.219709   5.951028   6.951087   6.165032
    14  H    2.162744   2.557658   4.618371   4.763374   5.662682
    15  H    3.420641   4.569742   2.659350   3.877541   2.406845
    16  H    1.090144   4.513952   5.320124   5.988781   5.984111
    17  H    4.309894   0.987388   2.334975   1.623933   3.514463
                   11         12         13         14         15
    11  N    0.000000
    12  O    1.212353   0.000000
    13  O    1.212878   2.154722   0.000000
    14  H    4.635230   5.672835   4.780350   0.000000
    15  H    2.673044   2.401181   3.874984   4.986151   0.000000
    16  H    2.667828   3.870353   2.386389   2.525573   4.300978
    17  H    5.987566   6.488727   6.762885   3.520575   4.526147
                   16         17
    16  H    0.000000
    17  H    5.286939   0.000000
 Stoichiometry    C6H4N2O5
 Framework group  C1[X(C6H4N2O5)]
 Deg. of freedom    45
 Full point group                 C1      NOp   1
 Largest Abelian subgroup         C1      NOp   1
 Largest concise Abelian subgroup C1      NOp   1
                         Standard orientation:                         
 ---------------------------------------------------------------------
 Center     Atomic      Atomic             Coordinates (Angstroms)
 Number     Number       Type             X           Y           Z
 ---------------------------------------------------------------------
      1          6           0        0.060122    2.062986    0.000020
      2          6           0        1.194596    1.223035   -0.000024
      3          6           0        0.969700   -0.174684   -0.000063
      4          6           0       -0.313883   -0.718629   -0.000049
      5          6           0       -1.389399    0.146218   -0.000004
      6          6           0       -1.217980    1.537367    0.000029
      7          8           0        2.395224    1.769765   -0.000031
      8          7           0        2.101973   -1.084985   -0.000114
      9          8           0        3.219134   -0.573606    0.000132
     10          8           0        1.899547   -2.273293    0.000037
     11          7           0       -2.744906   -0.411095    0.000009
     12          8           0       -2.854392   -1.618494    0.000011
     13          8           0       -3.666606    0.377285    0.000013
     14          1           0        0.235101    3.139246    0.000048
     15          1           0       -0.459947   -1.798224   -0.000075
     16          1           0       -2.100259    2.177677    0.000063
     17          1           0        3.063450    1.042847   -0.000055
 ---------------------------------------------------------------------
 Rotational constants (GHZ):           1.5588312           0.5536988           0.4085731
 Standard basis: def2SVP (5D, 7F)
 There are   215 symmetry adapted cartesian basis functions of A   symmetry.
 There are   202 symmetry adapted basis functions of A   symmetry.
   202 basis functions,   353 primitive gaussians,   215 cartesian basis functions
    47 alpha electrons       47 beta electrons
       nuclear repulsion energy       783.7376434062 Hartrees.
 NAtoms=   17 NActive=   17 NUniq=   17 SFac= 1.00D+00 NAtFMM=   60 NAOKFM=F Big=F
 Integral buffers will be    131072 words long.
 Raffenetti 2 integral format.
 Two-electron integral symmetry is turned on.
 One-electron integrals computed using PRISM.
   1 Symmetry operations used in ECPInt.
 ECPInt:  NShTT=    4095 NPrTT=   15757 LenC2=    3889 LenP2D=   11048.
 LDataN:  DoStor=T MaxTD1= 4 Len=   56
 NBasis=   202 RedAO= T EigKep=  2.16D-04  NBF=   202
 NBsUse=   202 1.00D-06 EigRej= -1.00D+00 NBFU=   202
 Initial guess from the checkpoint file:  "pka_scale_frag4_pka_HA_opt.chk"
 B after Tr=    -0.000000   -0.000000   -0.000000
         Rot=    1.000000    0.000000    0.000000    0.000534 Ang=   0.06 deg.
 ExpMin= 1.22D-01 ExpMax= 2.27D+03 ExpMxC= 3.41D+02 IAcc=3 IRadAn=         5 AccDes= 0.00D+00
 Harris functional with IExCor= 1009 and IRadAn=       5 diagonalized for initial guess.
 HarFok:  IExCor= 1009 AccDes= 0.00D+00 IRadAn=         5 IDoV= 1 UseB2=F ITyADJ=14
 ICtDFT=  3500011 ScaDFX=  1.000000  1.000000  1.000000  1.000000
 FoFCou: FMM=F IPFlag=           0 FMFlag=      100000 FMFlg1=           0
         NFxFlg=           0 DoJE=T BraDBF=F KetDBF=T FulRan=T
         wScrn=  0.000000 ICntrl=       500 IOpCl=  0 I1Cent=   200000004 NGrid=           0
         NMat0=    1 NMatS0=      1 NMatT0=    0 NMatD0=    1 NMtDS0=    0 NMtDT0=    0
 Petite list used in FoFCou.
 Requested convergence on RMS density matrix=1.00D-08 within 128 cycles.
 Requested convergence on MAX density matrix=1.00D-06.
 Requested convergence on             energy=1.00D-06.
 No special actions if energy rises.
 Integral accuracy reduced to 1.0D-05 until final iterations.
 Initial convergence to 1.0D-05 achieved.  Increase integral accuracy.
 SCF Done:  E(RMN15) =  -715.119350030     A.U. after   15 cycles
            NFock= 15  Conv=0.31D-08     -V/T= 2.0089
   1 Symmetry operations used in ECPInt.
 ECPInt:  NShTT=    4095 NPrTT=   15757 LenC2=    3889 LenP2D=   11048.
 LDataN:  DoStor=T MaxTD1= 5 Len=  102
 Calling FoFJK, ICntrl=      2127 FMM=F ISym2X=0 I1Cent= 0 IOpClX= 0 NMat=1 NMatS=1 NMatT=0.
 ***** Axes restored to original set *****
 -------------------------------------------------------------------
 Center     Atomic                   Forces (Hartrees/Bohr)
 Number     Number              X              Y              Z
 -------------------------------------------------------------------
      1        6           0.001006480    0.000143755    0.000009006
      2        6          -0.004364600    0.001897176    0.000383567
      3        6           0.000621973   -0.000696209   -0.000110954
      4        6          -0.000332607   -0.001088475   -0.000176000
      5        6          -0.000315079   -0.000223326   -0.000034084
      6        6          -0.001190479    0.001154912    0.000211636
      7        8           0.006635470    0.007699921    0.001204780
      8        7           0.007754799   -0.000501428   -0.000257726
      9        8          -0.010453626   -0.003958551   -0.000496099
     10        8          -0.000457898   -0.001658702   -0.000249829
     11        7          -0.000374371    0.000339542    0.000062642
     12        8          -0.001191924   -0.003834180   -0.000628855
     13        8           0.002881531    0.003369558    0.000526391
     14        1          -0.000096811    0.000216851    0.000037863
     15        1          -0.000150313   -0.000445947   -0.000072812
     16        1           0.000247177   -0.000171899   -0.000032410
     17        1          -0.000219721   -0.002242997   -0.000377117
 -------------------------------------------------------------------
 Cartesian Forces:  Max     0.010453626 RMS     0.002674268

 GradGradGradGradGradGradGradGradGradGradGradGradGradGradGradGradGradGrad
 Berny optimization.
 Using GEDIIS/GDIIS optimizer.
 FormGI is forming the generalized inverse of G from B-inverse, IUseBI=4.
 Internal  Forces:  Max     0.015040021 RMS     0.003643525
 Search for a local minimum.
 Step number   3 out of a maximum of   86
 All quantities printed in internal units (Hartrees-Bohrs-Radians)
 Mixed Optimization -- RFO/linear search
 Update second derivatives using D2CorX and points    1    2    3
 DE= -1.56D-04 DEPred=-8.37D-04 R= 1.86D-01
 Trust test= 1.86D-01 RLast= 8.22D-02 DXMaxT set to 5.05D-01
 ITU=  0  1  0
 Use linear search instead of GDIIS.
     Eigenvalues ---    0.00769   0.00769   0.00820   0.00820   0.01662
     Eigenvalues ---    0.01697   0.02034   0.02040   0.02069   0.02091
     Eigenvalues ---    0.02102   0.02116   0.02121   0.02132   0.12425
     Eigenvalues ---    0.16000   0.16001   0.16680   0.20494   0.22781
     Eigenvalues ---    0.23693   0.24887   0.25000   0.25000   0.25000
     Eigenvalues ---    0.25000   0.25442   0.32598   0.34856   0.34916
     Eigenvalues ---    0.34948   0.35635   0.38306   0.41950   0.43054
     Eigenvalues ---    0.44478   0.45397   0.46455   0.47817   0.52504
     Eigenvalues ---    0.68512   0.82822   0.87713   0.87925   1.02077
 RFO step:  Lambda=-7.37603417D-04 EMin= 7.68597313D-03
 Quartic linear search produced a step of -0.44092.
 Iteration  1 RMS(Cart)=  0.01983819 RMS(Int)=  0.00020232
 Iteration  2 RMS(Cart)=  0.00024806 RMS(Int)=  0.00000151
 Iteration  3 RMS(Cart)=  0.00000003 RMS(Int)=  0.00000151
 Variable       Old X    -DE/DX   Delta X   Delta X   Delta X     New X
                                 (Linear)    (Quad)   (Total)
    R1        2.66749   0.00104  -0.00478   0.01143   0.00665   2.67415
    R2        2.61153  -0.00139   0.00278  -0.00804  -0.00526   2.60627
    R3        2.06054   0.00023  -0.00075   0.00191   0.00117   2.06171
    R4        2.67528   0.00897  -0.00251   0.01727   0.01476   2.69004
    R5        2.49302  -0.00313   0.00892  -0.02291  -0.01399   2.47903
    R6        2.63443   0.00141  -0.00155   0.00465   0.00310   2.63753
    R7        2.74543   0.00618   0.00057   0.00810   0.00867   2.75411
    R8        2.60802   0.00028   0.00096  -0.00261  -0.00165   2.60637
    R9        2.05873   0.00044   0.00091  -0.00108  -0.00017   2.05855
   R10        2.64877  -0.00043  -0.00242   0.00381   0.00139   2.65016
   R11        2.76959   0.00124  -0.00691   0.01550   0.00859   2.77818
   R12        2.06007   0.00011   0.00011   0.00001   0.00012   2.06019
   R13        1.86589   0.00175  -0.00580   0.01355   0.00775   1.87365
   R14        2.32179   0.00740  -0.00087   0.00609   0.00522   2.32701
   R15        2.27792   0.00162   0.00523  -0.01033  -0.00511   2.27282
   R16        2.29102   0.00384   0.00407  -0.00638  -0.00232   2.28870
   R17        2.29201   0.00436   0.00345  -0.00484  -0.00138   2.29062
    A1        2.11411   0.00180  -0.00313   0.01088   0.00776   2.12186
    A2        2.04695  -0.00098   0.00759  -0.01911  -0.01153   2.03542
    A3        2.12213  -0.00082  -0.00446   0.00823   0.00377   2.12590
    A4        2.04858  -0.00114   0.00698  -0.01673  -0.00975   2.03884
    A5        2.07696  -0.00785  -0.01300   0.00941  -0.00360   2.07336
    A6        2.15764   0.00899   0.00603   0.00732   0.01334   2.17099
    A7        2.13116  -0.00329  -0.00512   0.00452  -0.00060   2.13057
    A8        2.08841   0.01504   0.01208   0.00910   0.02118   2.10959
    A9        2.06361  -0.01175  -0.00697  -0.01362  -0.02058   2.04303
   A10        2.06351   0.00217   0.00146   0.00229   0.00374   2.06725
   A11        2.10610  -0.00127   0.00025  -0.00401  -0.00376   2.10235
   A12        2.11357  -0.00089  -0.00171   0.00172   0.00002   2.11358
   A13        2.12544   0.00015   0.00098  -0.00244  -0.00146   2.12398
   A14        2.07426   0.00013  -0.00142   0.00343   0.00201   2.07627
   A15        2.08348  -0.00028   0.00044  -0.00099  -0.00055   2.08293
   A16        2.08357   0.00031  -0.00117   0.00147   0.00031   2.08387
   A17        2.12363   0.00013  -0.00658   0.01625   0.00967   2.13330
   A18        2.07599  -0.00044   0.00775  -0.01772  -0.00998   2.06601
   A19        1.88684  -0.00275  -0.01074   0.01153   0.00079   1.88763
   A20        2.03516   0.01250   0.01264   0.00284   0.01548   2.05064
   A21        2.07922  -0.00551  -0.00851   0.00497  -0.00354   2.07568
   A22        2.16880  -0.00698  -0.00413  -0.00781  -0.01194   2.15686
   A23        2.05131  -0.00130  -0.00162   0.00029  -0.00133   2.04997
   A24        2.04392  -0.00045  -0.00090   0.00056  -0.00034   2.04358
   A25        2.18796   0.00175   0.00252  -0.00085   0.00167   2.18963
    D1        0.00000  -0.00000  -0.00000  -0.00000  -0.00000  -0.00000
    D2       -3.14159   0.00000  -0.00000   0.00001   0.00001  -3.14158
    D3       -3.14159  -0.00000  -0.00000  -0.00001  -0.00001   3.14159
    D4       -0.00000   0.00000   0.00000   0.00000   0.00000   0.00000
    D5        0.00000  -0.00000  -0.00000  -0.00000  -0.00000  -0.00000
    D6       -3.14159  -0.00000  -0.00000  -0.00000  -0.00000   3.14159
    D7       -3.14159  -0.00000  -0.00000   0.00000   0.00000  -3.14159
    D8        0.00000   0.00000  -0.00000   0.00000   0.00000   0.00000
    D9       -0.00001   0.00000   0.00000   0.00001   0.00002   0.00001
   D10        3.14159  -0.00000  -0.00000  -0.00001  -0.00001   3.14158
   D11        3.14159   0.00000   0.00000   0.00000   0.00000   3.14159
   D12       -0.00000  -0.00000  -0.00000  -0.00002  -0.00003  -0.00003
   D13        3.14158  -0.00000  -0.00001  -0.00003  -0.00004   3.14154
   D14       -0.00001  -0.00000  -0.00001  -0.00002  -0.00003  -0.00004
   D15        0.00001  -0.00000  -0.00000  -0.00002  -0.00002  -0.00001
   D16       -3.14159  -0.00000  -0.00000  -0.00001  -0.00001   3.14158
   D17       -3.14159   0.00000   0.00000   0.00001   0.00001  -3.14158
   D18        0.00000   0.00000   0.00000   0.00001   0.00002   0.00002
   D19        0.00023  -0.00002  -0.00008  -0.00111  -0.00119  -0.00096
   D20        3.14142   0.00002   0.00011   0.00099   0.00110  -3.14067
   D21       -3.14136  -0.00003  -0.00009  -0.00113  -0.00122   3.14061
   D22       -0.00017   0.00002   0.00011   0.00096   0.00107   0.00090
   D23       -0.00000   0.00000   0.00000   0.00001   0.00001   0.00001
   D24        3.14159   0.00000   0.00000   0.00001   0.00001  -3.14158
   D25       -3.14159   0.00000   0.00000   0.00000   0.00001  -3.14159
   D26       -0.00000   0.00000  -0.00000   0.00000   0.00000   0.00000
   D27       -0.00000  -0.00000  -0.00000  -0.00000  -0.00000  -0.00001
   D28        3.14159  -0.00000  -0.00000  -0.00000  -0.00000   3.14159
   D29        3.14159   0.00000   0.00000  -0.00000   0.00000   3.14159
   D30       -0.00000  -0.00000   0.00000  -0.00000  -0.00000  -0.00000
   D31        0.00003   0.00000   0.00001  -0.00006  -0.00005  -0.00002
   D32       -3.14156  -0.00000   0.00001  -0.00006  -0.00005   3.14157
   D33       -3.14156  -0.00000   0.00001  -0.00006  -0.00005   3.14157
   D34        0.00003  -0.00000   0.00001  -0.00006  -0.00006  -0.00002
         Item               Value     Threshold  Converged?
 Maximum Force            0.015040     0.000450     NO 
 RMS     Force            0.003644     0.000300     NO 
 Maximum Displacement     0.106514     0.001800     NO 
 RMS     Displacement     0.019883     0.001200     NO 
 Predicted change in Energy=-6.770266D-04
 GradGradGradGradGradGradGradGradGradGradGradGradGradGradGradGradGradGrad

                          Input orientation:                          
 ---------------------------------------------------------------------
 Center     Atomic      Atomic             Coordinates (Angstroms)
 Number     Number       Type             X           Y           Z
 ---------------------------------------------------------------------
      1          6           0        0.063059    1.758470    0.295294
      2          6           0       -1.126162    0.999582    0.184208
      3          6           0       -0.977525   -0.396118   -0.053069
      4          6           0        0.275984   -0.998248   -0.172216
      5          6           0        1.399054   -0.206307   -0.054635
      6          6           0        1.306567    1.173377    0.179149
      7          8           0       -2.280079    1.612072    0.303694
      8          7           0       -2.143417   -1.261008   -0.182325
      9          8           0       -3.253422   -0.738277   -0.077489
     10          8           0       -1.977335   -2.435427   -0.381578
     11          7           0        2.725180   -0.828761   -0.178244
     12          8           0        2.765190   -2.022311   -0.379902
     13          8           0        3.688675   -0.101363   -0.069306
     14          1           0       -0.054568    2.827769    0.477129
     15          1           0        0.359119   -2.069119   -0.353826
     16          1           0        2.229456    1.747676    0.262890
     17          1           0       -2.999778    0.937994    0.200225
 ---------------------------------------------------------------------
                    Distance matrix (angstroms):
                    1          2          3          4          5
     1  C    0.000000
     2  C    1.415097   0.000000
     3  C    2.417937   1.423507   0.000000
     4  C    2.804174   2.466653   1.395722   0.000000
     5  C    2.401600   2.808547   2.384147   1.379232   0.000000
     6  C    1.379179   2.438935   2.781064   2.429303   1.402405
     7  O    2.347722   1.311847   2.420073   3.684252   4.119578
     8  N    3.770133   2.505878   1.457411   2.433649   3.698351
     9  O    4.167944   2.759325   2.301603   3.540235   4.682846
    10  O    4.712764   3.583839   2.294847   2.680815   4.059049
    11  N    3.742310   4.278674   3.729996   2.455061   1.470149
    12  O    4.695924   4.959101   4.093804   2.699626   2.295647
    13  O    4.091088   4.945605   4.675528   3.530078   2.292072
    14  H    1.091009   2.139249   3.395056   3.894781   3.406084
    15  H    3.893513   3.451444   2.162407   1.089338   2.154309
    16  H    2.166665   3.438896   3.870452   3.397861   2.146727
    17  H    3.172253   1.874696   2.435882   3.823397   4.552373
                    6          7          8          9         10
     6  C    0.000000
     7  O    3.615521   0.000000
     8  N    4.237840   2.917101   0.000000
     9  O    4.951140   2.572321   1.231401   0.000000
    10  O    4.911406   4.116248   1.202724   2.145037   0.000000
    11  N    2.479667   5.589503   4.887749   5.980135   4.973568
    12  O    3.557041   6.255460   4.971221   6.161484   4.760484
    13  O    2.713140   6.221014   5.947340   6.971258   6.135882
    14  H    2.162982   2.541830   4.638563   4.822546   5.668831
    15  H    3.419869   4.576992   2.635364   3.859787   2.365158
    16  H    1.090208   4.511757   5.326576   6.029740   5.967477
    17  H    4.312825   0.991491   2.390671   1.717948   3.572654
                   11         12         13         14         15
    11  N    0.000000
    12  O    1.211127   0.000000
    13  O    1.212146   2.153912   0.000000
    14  H    4.639690   5.675281   4.784378   0.000000
[...]
 90490633,-0.0535550797\C,0.2777888823,-1.0015240166,-0.173005549\C,1.4
 006277997,-0.2067186173,-0.0551298563\C,1.3066035015,1.1727261514,0.17
 87059197\O,-2.2816335568,1.6058588066,0.3030145139\N,-2.1463626477,-1.
 254249273,-0.1809316223\O,-3.252490001,-0.7188152442,-0.0743434805\O,-
 1.9876770821,-2.4334917941,-0.3815342186\N,2.7252340612,-0.8264349785,
 -0.1785251864\O,2.7638577104,-2.0235663189,-0.3791896627\O,3.689946917
 9,-0.0957598678,-0.0674694858\H,-0.054896631,2.8262940219,0.476848161\
 H,0.361175943,-2.0729005911,-0.354759688\H,2.22482701,1.7545505224,0.2
 636311241\H,-2.9913628968,0.9241975565,0.1983066087\\Version=ES64L-G16
 RevB.01\State=1-A\HF=-715.1198642\RMSD=4.713e-09\RMSF=9.388e-05\ZeroPo
 int=0.112502\Thermal=0.1224829\Dipole=-0.5228247,1.1675734,0.2020751\D
 ipoleDeriv=-0.5866759,0.2949378,0.0556871,-0.1512762,0.1225682,0.05061
 43,-0.019429,0.0442457,-0.1571206,1.3645601,-0.6512904,-0.1263694,-0.3
 413878,0.5415329,0.0630895,-0.0742603,0.0675759,0.2081208,-0.6247976,-
 0.3660646,-0.0532775,0.1098252,-0.3784035,-0.0587852,0.0267159,-0.0521
 549,-0.0476631,0.5761744,0.2777586,0.0388983,-0.0143798,-0.0985269,-0.
 0196067,-0.0102217,-0.023947,0.0153503,-0.5777368,-0.0500342,-0.000712
 1,0.0273718,-0.3817359,-0.0611863,0.0131528,-0.0604659,-0.0306182,0.18
 72728,-0.1832439,-0.033652,-0.1838128,0.3448208,0.0620872,-0.0335717,0
 .062128,0.0024201,-1.4545813,0.4922354,0.0992027,0.3826572,-0.6616315,
 -0.0646513,0.0808559,-0.0662345,-0.3223843,1.7735679,0.2410964,0.02036
 85,0.341073,1.6654404,0.2145152,0.0372063,0.2159834,0.4000565,-1.15077
 93,0.1551945,0.0384434,0.0301955,-0.6733487,-0.0651723,0.0177057,-0.06
 71813,-0.3004612,-0.545571,-0.1029486,-0.012967,-0.1278798,-1.1091716,
 -0.1442032,-0.0172175,-0.1441648,-0.2676031,1.948409,-0.1040362,-0.039
 9931,-0.2445382,1.4443821,0.1875415,-0.0640646,0.1856932,0.3838222,-0.
 6948208,0.2114256,0.0414809,0.1655037,-1.0066344,-0.1268394,0.0338782,
 -0.1261922,-0.2919011,-1.1123016,-0.2577388,-0.0313327,-0.094422,-0.63
 51608,-0.059429,-0.0047156,-0.058096,-0.2820625,0.06318,0.0232664,0.00
 4901,0.0100123,0.0268078,-0.0179263,0.0026273,-0.0181297,0.1292548,0.1
 782291,-0.0073504,-0.0019198,-0.0002089,0.1677704,0.0063729,-0.0007168
 ,0.0064706,0.1310867,0.1118147,-0.0332935,-0.0054895,-0.011403,0.13012
 83,0.0019865,-0.0018207,0.0023079,0.1196852,0.5440561,0.060086,0.00673
 13,0.1026697,0.5011624,0.0315924,0.013876,0.0321615,0.3100175\Polar=13
 2.0251699,-0.6721585,110.2603634,-1.4350639,12.0600746,40.7565735\Quad
 rupole=-8.2384364,2.5230435,5.7153929,1.3415724,0.4181442,-0.570659\PG
 =C01 [X(C6H4N2O5)]\NImag=0\\0.73119028,-0.05414874,0.73741809,-0.01771
 157,0.10301766,0.14838377,-0.23059479,-0.13104773,-0.01983227,0.792619
 80,-0.06451297,-0.19867859,-0.02029318,-0.03691815,0.68375375,-0.00861
 245,-0.01934067,-0.07593826,-0.01506850,0.08644147,0.18876925,0.042328
 57,-0.01715387,-0.00341462,-0.13990770,-0.01057208,-0.00065184,0.66252
 595,-0.05354766,-0.02015660,-0.00361791,0.03846863,-0.28532624,-0.0383
 9898,-0.09126471,0.67195977,-0.00954685,-0.00413979,0.00529818,0.00761
 034,-0.03768747,-0.06725455,-0.02316723,0.09443953,0.13554289,-0.06608
 500,-0.00564437,-0.00000955,0.03699190,0.07992471,0.01292395,-0.289738
 80,0.07735478,0.01636999,0.72508423,-0.00945801,-0.00057038,0.00011181
 ,0.03338980,-0.01112141,-0.00219487,0.13277090,-0.17004152,-0.02109777
 ,0.01737302,0.76622873,-0.00065455,0.00005897,-0.00042052,0.00508338,-
 0.00285745,-0.00148015,0.02571725,-0.02030465,-0.05999490,-0.00542875,
 0.10500265,0.15955560,0.02130327,0.03165532,0.00512185,-0.00925904,-0.
 03533099,-0.00584675,-0.06460019,0.01674581,0.00379535,-0.27681063,-0.
 16195032,-0.02419437,0.64875160,0.08188749,-0.01413568,-0.00463536,-0.
 04008951,-0.05054097,-0.00761080,-0.04176334,0.04459950,0.00757228,-0.
 09866999,-0.21702585,-0.02474892,0.08444310,0.72412816,0.01358276,-0.0
 0391867,0.00553920,-0.00665636,-0.00767678,-0.00318409,-0.00606920,0.0
 0673959,0.00446946,-0.01352912,-0.02384800,-0.06569725,0.00682718,0.09
 922298,0.14468608,-0.35692480,0.14272622,0.02827724,-0.05948489,-0.023
 55919,-0.00313489,-0.02303535,0.01846825,0.00343351,0.03987263,-0.0201
 1705,-0.00386504,-0.11500640,-0.03334891,-0.00484088,0.78683165,0.0728
 4800,-0.17831803,-0.02066507,0.02795038,0.06479225,0.01065019,0.038787
 37,-0.03596943,-0.00646240,-0.06997627,-0.03511363,-0.00609240,0.03123
 847,-0.32785893,-0.04521798,0.01652426,0.68780707,0.01650394,-0.021668
 00,-0.06574177,0.00554984,0.01138324,0.00108670,0.00685267,-0.00617246
 ,-0.00206207,-0.01226687,-0.00680506,0.00601327,0.00604271,-0.04430093
 ,-0.06976441,-0.00638508,0.09096008,0.16211370,-0.07764639,0.01603109,
 0.00394890,-0.34508690,0.14519979,0.02860205,0.00450837,0.03167041,0.0
 0543969,-0.00929646,-0.00255043,-0.00019449,-0.00367190,0.01799130,0.0
 0307119,0.01193385,-0.01955052,-0.00339208,0.65481130,-0.01887969,0.02
 291312,0.00251636,0.11981187,-0.18267652,-0.02300109,0.04210929,-0.025
 98234,-0.00695301,-0.00834982,-0.00395490,-0.00168349,0.00506118,0.001
 51306,0.00031346,-0.00323214,-0.00578623,-0.00174962,0.03864030,0.4471
 0481,-0.00193630,0.00201669,0.00995087,0.02432394,-0.02336597,-0.06064
 862,0.00719909,-0.00679730,0.01045059,-0.00117588,-0.00176520,0.006457
 26,0.00089342,0.00012806,-0.00076516,-0.00064469,-0.00151680,0.0046172
 3,-0.00220584,0.06705962,0.05718282,-0.00579390,0.00051315,0.00027887,
 0.04112316,-0.03226142,-0.00610672,-0.13376981,-0.02138691,-0.00276160
 ,-0.05502228,-0.01929189,-0.00253264,0.00463223,0.01743912,0.00299752,
 0.00583030,-0.00690917,-0.00127432,-0.04658261,-0.00662759,-0.00047363
 ,0.80782901,0.00051219,-0.00669946,-0.00238065,-0.03667268,-0.02134882
 ,-0.00209764,-0.01839375,-0.12633576,-0.00870791,-0.01943743,0.0179693
 3,0.00407782,0.01383271,0.00593263,-0.00062115,0.00355436,-0.00643037,
 -0.00083947,0.00214396,0.00957704,0.00184305,-0.15648908,0.98995260,0.
 00027518,-0.00238451,0.00698560,-0.00685461,-0.00215482,-0.00606387,-0
 .00221721,-0.00863660,-0.07463618,-0.00254982,0.00407277,-0.00383098,0
 .00238595,-0.00067139,0.00829553,0.00049078,-0.00068935,-0.00188033,0.
 00101296,0.00197111,-0.00122147,-0.03480247,0.12992861,0.25391048,0.00
 443274,0.00090587,0.00008000,-0.01375321,0.01331493,0.00244554,-0.0694
 7762,0.00647205,0.00236984,0.00480069,-0.00699731,-0.00119097,-0.00422
 801,-0.00472437,-0.00075296,-0.00298360,0.00454204,0.00081532,0.022791
 03,-0.00530213,-0.00113652,-0.49718764,0.16192474,0.03349086,0.5860643
 8,-0.00639614,0.00029649,0.00023703,0.02507665,-0.01393730,-0.00276551
 ,-0.00032999,0.02494471,0.00127970,-0.00465478,-0.00207684,-0.00090921
 ,-0.00027620,0.00515403,0.00106722,0.00240884,-0.00369935,-0.00072976,
 -0.03686664,-0.03036778,-0.00554217,0.13021119,-0.19588493,-0.02230592
 ,-0.20716554,0.26673790,-0.00114828,0.00013283,-0.00052443,0.00442854,
 -0.00260268,-0.00014443,0.00119692,0.00116980,0.01756937,-0.00079804,-
 0.00087320,0.00358068,-0.00000299,0.00112912,-0.00096304,0.00045440,-0
 .00076034,0.00029447,-0.00646074,-0.00599258,0.00475815,0.02819579,-0.
 02277647,-0.07910678,-0.04306070,0.04269215,0.03918862,0.00089127,-0.0
 0175439,-0.00033409,-0.01259613,0.00455015,0.00101008,0.00916629,-0.03
 579537,-0.00588368,-0.00655434,-0.00324063,-0.00042295,0.00214797,-0.0
 0170601,-0.00032981,-0.00084570,-0.00081497,-0.00012109,0.01066870,0.0
 0315688,0.00036436,-0.13687897,0.03930399,0.00743624,-0.01192474,0.100
 87970,0.01752390,0.15354213,-0.00038279,-0.00143649,0.00004904,-0.0027
 1666,0.00348640,-0.00008935,-0.02521590,-0.06490597,-0.01374377,0.0133
 3535,-0.00228312,-0.00088036,-0.00487883,-0.00275718,-0.00026248,-0.00
 010097,0.00152776,0.00021982,-0.00461075,-0.00559662,-0.00071299,0.052
 96166,-0.65267965,-0.09703144,0.06219257,-0.06463275,-0.01607751,-0.09
 002076,0.78038403,-0.00010255,0.00007182,-0.00169210,-0.00021481,-0.00
 019574,0.00423386,-0.00411501,-0.01360988,0.01672939,0.00236399,-0.000
 64169,0.00165903,-0.00086255,-0.00030710,-0.00082661,-0.00000155,0.000
 22884,0.00027528,-0.00094288,-0.00082439,-0.00109383,0.00973421,-0.096
 79492,-0.09687005,0.01102605,-0.01665828,0.02252957,-0.01693074,0.1273
 7017,0.05277253,0.00966334,-0.00370680,-0.00066981,-0.00977909,0.00419
 762,0.00081618,0.00462798,-0.00913365,-0.00148600,-0.04492510,0.007514
 57,0.00185734,-0.14180074,0.02050106,0.00453067,-0.00739954,0.02855915
 ,0.00484506,0.01005402,-0.00345780,-0.00073110,-0.00426956,-0.00357100
 ,-0.00050967,0.00198223,0.00100177,0.00012970,0.00139834,0.00252390,0.
 00040167,0.79808573,-0.00245707,-0.00723440,-0.00238867,0.00168619,-0.
 00563857,-0.00057743,-0.01105818,-0.00058903,-0.00145933,0.00282235,0.
 01983401,0.00396086,0.01837649,-0.11366513,-0.00706701,0.03410850,-0.0
 0885699,-0.00125151,-0.00375771,0.00116482,0.00030544,0.00151529,0.007
 22949,0.00081339,-0.00161656,-0.00135431,-0.00007414,0.00025905,-0.003
 66438,-0.00058767,0.15544754,1.03459106,-0.00045132,-0.00238093,0.0067
 6726,0.00039038,-0.00061619,-0.00247296,-0.00180137,-0.00148332,0.0088
 1151,0.00105635,0.00386845,-0.00315566,0.00402011,-0.00702641,-0.07481
 730,0.00579176,-0.00114539,-0.00468641,-0.00078333,0.00030232,-0.00026
 714,0.00034971,0.00088493,0.00242012,-0.00031149,-0.00011108,-0.000792
 28,0.00002189,-0.00062091,-0.00029779,0.01884820,0.13296153,0.25256917
 ,-0.00180935,0.00237183,0.00041312,0.00239258,0.00030687,0.00002350,0.
 00094664,0.00163915,0.00025202,-0.00561865,0.00260539,0.00053467,-0.00
 298031,0.04529907,0.00787403,-0.00512190,-0.00331574,-0.00043922,-0.00
 260982,0.00089534,0.00018839,0.00185834,0.00088940,0.00012004,-0.00093
 055,-0.00027815,-0.00003222,-0.00081527,-0.00074912,-0.00011289,-0.138
 48399,0.04576842,0.00845323,0.13906298,0.00194050,-0.00063300,0.000058
 47,-0.00328709,0.00137188,0.00017915,0.00468862,-0.00075530,-0.0000660
 3,-0.01191617,-0.00340796,-0.00071035,0.03142850,-0.04866673,-0.011538
 48,0.00432961,0.00190228,-0.00034326,0.00321211,-0.00034956,-0.0000990
 0,-0.00142367,-0.00406770,-0.00063150,0.00054202,0.00102020,0.00015218
 ,0.00002162,0.00243468,0.00039308,0.03416678,-0.62462166,-0.09200756,-
 0.01775234,0.76177267,0.00034046,0.00006198,-0.00116972,-0.00057926,0.
 00012448,0.00062675,0.00075965,-0.00002056,-0.00078816,-0.00189239,-0.
 00090680,0.00165161,0.00560028,-0.01178894,0.01570152,0.00084006,-0.00
 024085,0.00357231,0.00057676,-0.00006597,-0.00005467,-0.00026697,-0.00
 065939,-0.00031097,0.00010433,0.00016266,0.00009932,0.00001609,0.00040
 211,0.00016427,0.00648404,-0.09201564,-0.09344277,-0.00441416,0.122912
 40,0.05012926,-0.00245138,0.00013016,0.00005318,0.00286502,-0.00281378
 ,-0.00051372,-0.00317554,0.00069081,0.00015074,-0.00100112,0.00708756,
 0.00124521,-0.06950967,-0.02465921,-0.00302415,-0.00083084,-0.00602975
 ,-0.00098288,-0.00355401,0.00169373,0.00033592,0.00177026,0.00214408,0
 .00032731,-0.00176119,-0.00033515,-0.00002821,-0.00076762,-0.00090549,
 -0.00014049,-0.47806429,-0.23965159,-0.03524275,0.01675787,-0.04751306
 ,-0.00786248,0.54103074,-0.00101046,0.00274901,0.00055225,0.00123531,-
 0.00014317,-0.00009712,0.00186996,0.00137606,0.00043411,0.00007492,-0.
 00073619,-0.00067169,-0.00904785,0.01532059,-0.00039662,0.00560170,-0.
 00965588,-0.00197577,-0.00020946,0.00051413,0.00010071,-0.00056621,-0.
 00171525,-0.00015577,0.00016201,0.00028922,0.00000758,-0.00010523,0.00
 101875,0.00016213,-0.22780039,-0.29290905,-0.03334427,-0.08215089,-0.0
 8774932,-0.01824404,0.30699254,0.36949736,-0.00014675,0.00053804,-0.00
 034049,0.00017557,-0.00003724,0.00032195,0.00034412,0.00044488,-0.0012
 8803,0.00006005,-0.00076127,0.00310813,-0.00030706,-0.00018929,0.01827
 346,0.00098042,-0.00183252,0.00133963,0.00001242,0.00007469,-0.0000547
 4,-0.00013175,-0.00019496,-0.00077215,0.00005441,0.00001440,0.00023217
 ,-0.00000700,0.00017448,0.00009282,-0.03337896,-0.03326490,-0.08273765
 ,-0.01364501,-0.01862400,0.02407070,0.04513039,0.05339893,0.03735697,-
 0.05767988,0.02926566,0.00522166,0.00595049,-0.02696999,-0.00454243,-0
 .00355017,-0.00097014,-0.00005342,-0.00141924,-0.00008979,-0.00000503,
 -0.00402890,0.00132055,0.00038268,0.00185479,0.02694153,0.00457419,0.0
 0249377,0.00223524,0.00028822,0.00049213,-0.00125738,-0.00021714,-0.00
 005401,0.00029431,0.00005012,-0.00041499,-0.00045638,-0.00007269,0.000
 88619,0.00119932,0.00020500,-0.00057925,0.00045722,0.00007747,-0.00017
 444,-0.00015916,-0.00002509,0.05522721,0.02728254,-0.34693122,-0.05256
 450,0.00550328,-0.01228346,-0.00318775,-0.00260167,-0.00057636,-0.0007
 6885,-0.00060405,0.00063437,0.00023946,0.00161251,0.00155563,-0.000954
 32,-0.00145867,-0.00510491,-0.00154326,0.00111327,0.00132227,0.0008316
 2,0.00093274,-0.00035573,-0.00009735,-0.00018759,0.00038737,0.00007107
 ,-0.00028966,-0.00024070,-0.00001238,-0.00040529,-0.00007381,-0.000170
 30,0.00012242,-0.00014208,0.00005092,0.00009047,0.00001538,0.00000051,
 -0.03087782,0.36165813,0.00488814,-0.05259310,-0.04627916,0.00093120,-
 0.00272356,0.00569111,-0.00032716,-0.00079178,0.00407685,-0.00009137,0
 .00023247,-0.00069478,0.00042956,-0.00095099,0.00691294,-0.00021330,-0
 .00194973,0.00384983,0.00009828,0.00081588,-0.00357092,0.00015190,-0.0
 0006544,0.00012848,-0.00003112,0.00006407,-0.00000688,-0.00004489,-0.0
 0001028,-0.00014290,-0.00006681,-0.00019176,0.00093933,0.00002300,0.00
 004509,-0.00044594,0.00001761,0.00000375,0.00000610,-0.00562891,0.0571
 0056,0.03516861,-0.00088294,0.00011396,0.00001934,-0.00422965,0.000049
 04,0.00014514,0.00305400,0.02375199,0.00404711,-0.05136920,0.02298516,
 0.00401525,0.00841973,-0.02177276,-0.00369001,-0.00438360,-0.00208189,
 -0.00021245,-0.00074766,0.00110666,0.00019569,0.00018026,0.00413645,0.
 00062785,0.00185777,-0.00176074,-0.00031715,-0.00198548,-0.00358346,-0
 .00057696,0.00076561,-0.00315021,-0.00061726,-0.00257357,0.00287183,0.
 00051319,0.00147205,0.00186342,0.00030590,-0.00002109,-0.00000827,-0.0
 0000306,0.04929744,-0.00020398,0.00068193,0.00026682,0.00118759,0.0009
 6254,-0.00075206,0.00107419,-0.00488754,-0.00184373,0.02295525,-0.3520
 1101,-0.05265612,0.00157910,-0.00862772,-0.00268043,-0.00190628,0.0002
 1429,-0.00082670,-0.00047672,-0.00005072,0.00001186,-0.00005238,-0.002
 47282,0.00036733,0.00007874,-0.00011952,-0.00010345,-0.00423543,-0.000
 14572,0.00006738,0.00038686,-0.00272345,0.00043037,0.00329734,0.000845
 28,0.00014555,0.00024316,0.00025137,-0.00008469,0.00002047,-0.00005315
 ,0.00001333,-0.02424149,0.36828816,-0.00003326,0.00026244,-0.00083984,
 0.00033646,-0.00073711,0.00519621,0.00022321,-0.00216918,0.00559344,0.
 00401556,-0.05264866,-0.05047707,0.00023885,-0.00234714,0.00674277,-0.
 00018308,-0.00082381,0.00514848,-0.00007032,-0.00001103,-0.00008099,-0
 .00007978,0.00030613,-0.00459274,-0.00000584,-0.00007703,0.00047435,-0
 .00068750,0.00005852,-0.00016522,-0.00001361,0.00047472,-0.00521449,0.
 00058620,0.00015456,-0.00028526,0.00002726,-0.00010855,0.00071644,0.00
 000186,0.00001365,-0.00013110,-0.00439060,0.05768942,0.03783334,-0.012
 80876,-0.01416051,-0.00210859,-0.00236209,0.00196346,0.00049313,0.0000
 9928,0.00106929,0.00017178,0.00065520,0.00151573,0.00031182,0.00582074
 ,0.00076000,0.00012605,-0.26753218,-0.14051096,-0.02047264,-0.00077300
 ,-0.00062977,-0.00010093,-0.00036413,-0.00015243,-0.00003118,0.0001450
 4,-0.00003250,-0.00000818,0.00010830,0.00004902,0.00000901,-0.00059401
 ,-0.00032325,-0.00009877,-0.00011618,-0.00104580,-0.00016699,-0.003382
 57,0.00319072,0.00057885,0.00126145,-0.00014167,-0.00011652,0.00046169
 ,0.00017298,0.00002358,0.27949477,0.01311378,0.01188413,0.00070611,0.0
 0279248,-0.00081786,-0.00169416,0.00125093,-0.00017569,0.00003571,0.00
 132652,-0.00509020,-0.00165519,-0.02397842,-0.00853538,-0.00206618,-0.
 14000237,-0.14582071,-0.01524461,0.00063234,0.00054465,0.00015047,-0.0
 0017002,-0.00045211,0.00005170,-0.00001920,0.00008531,0.00002231,-0.00
 014323,0.00023329,0.00001416,-0.00452574,-0.00214999,0.00030577,0.0007
 0464,0.00189368,0.00022712,0.00259590,0.00188496,0.00034982,-0.0005039
 2,0.00038242,0.00095439,-0.00123627,-0.00025202,-0.00003241,0.14804353
 ,0.14651525,0.00248680,0.00109931,0.00672384,0.00063430,-0.00168117,0.
 00870402,0.00020371,0.00003771,-0.00049125,0.00027848,-0.00165778,0.00
 433044,-0.00404601,-0.00241505,0.00541945,-0.02038731,-0.01524589,-0.0
 4576261,0.00011188,0.00016843,-0.00037437,-0.00003459,0.00005110,-0.00
 073523,-0.00000597,0.00002226,-0.00004127,-0.00002344,0.00001167,0.000
 16346,-0.00080030,0.00024586,-0.00354648,0.00012610,0.00025518,0.00051
 884,0.00047764,0.00033872,-0.00033683,-0.00017813,0.00094895,-0.005074
 52,-0.00021390,-0.00005256,0.00003858,0.02135490,0.01782852,0.03087154
 ,0.00286771,0.00390315,0.00066634,-0.05488946,-0.01656801,-0.00198226,
 -0.00000190,-0.00423272,-0.00074159,0.00043616,-0.00154672,-0.00027613
 ,0.00082025,-0.00290760,-0.00049959,-0.00277439,0.00179805,0.00036290,
 -0.22729231,-0.16823156,-0.02538414,0.01615319,0.00753187,0.00101490,-
 0.01977332,-0.00177663,-0.00012287,-0.00513978,0.00255860,0.00053819,-
 0.00214712,0.00083142,0.00016967,0.00062043,-0.00072067,-0.00013008,0.
 00077672,0.00005907,-0.00000051,-0.00024406,-0.00008253,-0.00001656,0.
 00068461,0.00012060,0.00001101,-0.00011355,0.00011905,0.00001584,0.290
 01683,0.01341300,-0.00114892,-0.00097022,-0.00637038,0.02814610,0.0045
 3664,-0.00419777,-0.00717826,-0.00083128,0.00408598,-0.00123341,-0.000
 16993,-0.00051060,-0.00639004,-0.00109514,-0.00399615,0.00637081,0.000
 88725,-0.18861235,-0.22988923,-0.03264812,0.04160520,-0.01221850,-0.00
 244625,-0.02412226,0.01315754,0.00388333,-0.01006571,0.00925769,0.0013
 2448,-0.00169860,0.00066139,0.00015300,0.00034637,-0.00084735,-0.00014
 503,0.00023962,-0.00000795,-0.00000688,-0.00044973,-0.00019416,0.00004
 710,0.00095658,0.00010011,-0.00000452,0.00023215,-0.00012970,0.0000447
 5,0.17914464,0.20154390,0.00226661,-0.00083409,0.00329756,-0.00025815,
 0.00468016,0.00255708,-0.00073298,-0.00082890,-0.00202654,0.00067342,-
 0.00008785,-0.00060470,-0.00009555,-0.00106010,-0.00002256,-0.00061235
 ,0.00080343,0.00158670,-0.02882445,-0.03294067,-0.02528502,0.00675647,
 -0.00195366,-0.00171943,-0.00389079,0.00355949,-0.00714760,-0.00158737
 ,0.00114327,0.00246829,-0.00025659,0.00011627,-0.00007648,0.00004919,-
 0.00012993,-0.00003708,0.00002942,-0.00000434,0.00001153,-0.00007836,0
 .00004197,-0.00042704,0.00015191,0.00000769,0.00004309,0.00003469,0.00
 004646,-0.00040761,0.02637489,0.02744081,0.02778982\\-0.00001962,-0.00
 004878,-0.00001538,-0.00005674,0.00002699,0.00001246,0.00019595,0.0000
 3657,0.00002789,-0.00010189,0.00002487,0.00002876,-0.00005297,0.000030
 78,0.00011663,0.00001050,-0.00002305,0.00001486,-0.00002065,-0.0000331
 0,-0.00000152,-0.00002309,0.00002934,-0.00013500,-0.00008895,0.0000418
 9,0.00006011,0.00003456,-0.00009515,0.00003355,0.00003766,0.00003875,-
 0.00048913,-0.00003307,-0.00009901,0.00016329,0.00005983,0.00005935,0.
 00018739,-0.00000926,0.00000941,-0.00000006,0.00001454,-0.00002447,-0.
 00000267,0.00000162,0.00000776,0.00000171,0.00005158,0.00001785,-0.000
 00289\\\@


 10 WHATSOEVER THY HAND FINDETH TO DO, DO IT WITH THY  
 MIGHT. FOR THERE IS NO WORK, NOR DEVICE, NOR KNOWLEDGE, NOR  
 WISDOM, IN THE GRAVE, WHITHER THOU GOEST.                    
 11 I RETURNED AND SAW UNDER THE SUN, THAT THE RACE IS NOT TO 
 THE SWIFT, NOR THE BATTLE TO THE STRONG, NEITHER YET BREAD TO
 THE WISE, NOR YET RICHES TO MEN OF UNDERSTANDING, NOR YET    
 FAVOR TO MEN OF SKILL. BUT TIME AND CHANCE HAPPEN TO THEM ALL.
 12 FOR MAN ALSO KNOWETH NOT HIS TIME. AS THE FISHES   
 THAT ARE TAKEN IN AN EVIL NET, AND AS THE BIRDS THAT ARE     
 CAUGHT IN THE SNARE. SO ARE THE SONS OF MEN SNARED IN AN EVIL
 TIME, WHEN IT FALLETH SUDDENLY UPON THEM.
                                         ECCLESIASTES 9
 Job cpu time:       0 days  0 hours 30 minutes 24.1 seconds.
 Elapsed time:       0 days  0 hours  0 minutes 29.0 seconds.
 File lengths (MBytes):  RWF=     95 Int=      0 D2E=      0 Chk=      5 Scr=      1
 Normal termination of Gaussian 16 at Wed Jun 10 15:28:45 2026.
