
                                 *****************
                                 * O   R   C   A *
                                 *****************

                                            #,                                       
                                            ###                                      
                                            ####                                     
                                            #####                                    
                                            ######                                   
                                           ########,                                 
                                     ,,################,,,,,                         
                               ,,#################################,,                 
                          ,,##########################################,,             
                       ,#########################################, ''#####,          
                    ,#############################################,,   '####,        
                  ,##################################################,,,,####,       
                ,###########''''           ''''###############################       
              ,#####''   ,,,,##########,,,,          '''####'''          '####       
            ,##' ,,,,###########################,,,                        '##       
           ' ,,###''''                  '''############,,,                           
         ,,##''                                '''############,,,,        ,,,,,,###''
      ,#''                                            '''#######################'''  
     '                                                          ''''####''''         
             ,#######,   #######,   ,#######,      ##                                
            ,#'     '#,  ##    ##  ,#'     '#,    #''#        ,####,    ,#,          
            ##       ##  ##   ,#'  ##            #'  '#       #'       ,# #          
            ##       ##  #######   ##           ,######,      #####,      #          
            '#,     ,#'  ##    ##  '#,     ,#' ,#      #,     #,   #      #          
             '#######'   ##     ##  '#######'  #'      '#     '####' #    #          



                #########################################################
                #                        -***-                          #
                #          Department of theory and spectroscopy        #
                #                                                       #
                #                      Frank Neese                      #
                #                                                       #
                #     Directorship, Architecture, Infrastructure        #
                #                    SHARK, DRIVERS                     #
                #        Core code/Algorithms in most modules           #
                #                                                       #
                #        Max Planck Institute fuer Kohlenforschung      #
                #                Kaiser Wilhelm Platz 1                 #
                #                 D-45470 Muelheim/Ruhr                 #
                #                      Germany                          #
                #                                                       #
                #                  All rights reserved                  #
                #                        -***-                          #
                #########################################################


                         Program Version 6.1.0  -  RELEASE   -
                                (GIT: $679e74b$)
                          ($2025-06-10 18:02:51 +0200$)


 With contributions from (in alphabetic order):
[Max-Planck-Institut fuer Kohlenforschung]                               
  Daniel Aravena         : Magnetic Suceptibility                        
  Michael Atanasov       : Ab Initio Ligand Field Theory (pilot matlab implementation)
  Alexander A. Auer      : GIAO ZORA, VPT2 properties, NMR spectrum      
  Ute Becker             : All parallelization in ORCA, NUMFREQ, NUMCALC 
  Giovanni Bistoni       : ED, misc. LED, open-shell LED, HFLD           
  Dmytro Bykov           : pre 5.0 version of the SCF Hessian            
  Marcos Casanova-Páez   : Triplet and SCS-CIS(D). UHF-(DLPNO)-IP/EA/STEOM-CCSD. UHF-CVS-IP/STEOM-CCSD   
  Vijay G. Chilkuri      : MRCI spin determinant printing, contributions to CSF-ICE 
  Pauline Colinet        : FMM embedding                                 
  Dipayan Datta          : RHF DLPNO-CCSD density                        
  Achintya Kumar Dutta   : EOM-CC, STEOM-CC                              
  Nicolas Foglia         : Exact transition moments, OPA infrastructure, MCD improvements    
  Dmitry Ganyushin       : Spin-Orbit,Spin-Spin,Magnetic field MRCI      
  Miquel Garcia-Rates    : C-PCM and meta-GGA Hessian, CCSD/C-PCM, Gaussian charge scheme 
  Tiago L. C. Gouveia    : GS-ROHF, GS-ROCIS                             
  Yang Guo               : DLPNO-NEVPT2, F12-NEVPT2, CIM, IAO-localization        
  Andreas Hansen         : Spin unrestricted coupled pair/coupled cluster methods 
  Ingolf Harden          : AUTO-CI MPn and infrastructure                
  Benjamin Helmich-Paris : MC-RPA, TRAH-(SCF,CASSCF), AVAS, COSX integrals, SCF dyn. polar., MC-PDFT, srDFT 
  Lee Huntington         : MR-EOM, pCC                                   
  Robert Izsak           : Overlap fitted RIJCOSX, COSX-SCS-MP3, EOM     
  Riya Kayal             : Wick's Theorem for AUTO-CI, AUTO-CI UHF-CCSDT 
  Emily Kempfer          : AUTO-CI RHF CISDT and CCSDT, approximate NEVPT4
  Christian Kollmar      : KDIIS, OOCD, Brueckner-CCSD(T), CCSD density, CASPT2, CASPT2-K, improved NEVPT2 
  Axel Koslowski         : Symmetry handling                             
  Simone Kossmann        : meta-GGA functionals, TD-DFT gradient, OOMP2, (MP2 Hessian; deprecated post 5.0) 
  Lucas Lang             : DCDCAS, Hyperfine gauge corrections, ICE-SOC+SSC
  Marvin Lechner         : AUTO-CI (C++ implementation), FIC-MRCC        
  Spencer Leger          : CASSCF response                               
  Dagmar Lenk            : GEPOL surface, SMD, ORCA-2-JSON               
  Dimitrios Liakos       : Extrapolation schemes; Compound Job, Property file
  Dimitrios Manganas     : Further ROCIS development; embedding schemes. LFT, Crystal Embedding 
  Dimitrios Pantazis     : SARC Basis sets                               
  Anastasios Papadopoulos: AUTO-CI, single reference methods and gradients 
  Taras Petrenko         : pre 6.0 DFT Hessian and TD-DFT gradient,  ECA, NRVS 
  Petra Pikulova         : Analytic Raman intensities                    
  Peter Pinski           : DLPNO-MP2, DLPNO-MP2 Gradient                 
  Shashank Vittal Rao    : ES-AILFT, MagRelax                            
  Christoph Reimann      : Effective Core Potentials                     
  Marius Retegan         : Local ZFS, SOC                                
  Christoph Riplinger    : Optimizer, TS searches, QM/MM, DLPNO-CCSD(T), (RO)-DLPNO pert. Triples 
  Michael Roemelt        : Original ROCIS implementation, recursive CI coupling coefficients
  Masaaki Saitow         : Open-shell DLPNO-CCSD energy and density      
  Barbara Sandhoefer     : DKH picture change effects                    
  Yorick L. A. Schmerwitz: GMF and freeze-and-release deltaSCF, NEB S-IDPP initial path                    
  Kantharuban Sivalingam : CASSCF convergence/infrastructure, NEVPT2, NEVPT3, NEVPT4(SD), FIC-MRCI and CEPA variants
  Bernardo de Souza      : ESD, SOC TD-DFT                               
  Georgi L. Stoychev     : AutoAux, RI-MP2 NMR, DLPNO-MP2 response, X2C  
  Van Anh Tran           : RI-MP2 g-tensors                              
  Willem Van den Heuvel  : Paramagnetic NMR                              
  Zikuan Wang            : NOTCH, Electric field optimization            
  Frank Wennmohs         : Technical directorship and infrastructure     
  Hang Xu                : AUTO-CI-Response properties                   
                                                                         
[FACCTs GmbH]                                                            
  Markus Bursch, Nicolas Foglia, Miquel Garcia-Rates, Ingolf Harden, Hagen Neugebauer, Anastasios Papadopoulos, 
  Christoph Riplinger, Bernardo de Souza, Georgi L. Stoychev                                                    
                                                                 
  APM, various basis sets, CI-OPT, improved COSX, DLPNO-Multilevel,           
  DOCKER, DRACO, updates on ESD, Fragmentator, GOAT, IRC, LR-CPCM, L-BFGS, MBIS, meta-GGA TD-DFT gradient, ML-optimized integration grids, 
  MM, NACMEs, nearIR, NEB, NEB-TS, NL-DFT gradient (VV10), 2- and 3-layer-ONIOM, interface openCOSMO-RS, QMMM,   
  Crystal-QMMM, RESP, rigid body optimization, SF, symmetry and pop. for TD-DFT, various functionals, SOLVATOR                                   
                                                                         
[Other institutions]                                                     
  V. Asgeirsson          : NEB                                           
  Christoph Bannwarth    : sTDA-DFT, sTD-DFT, PBEh-3c, B97-3c, D3        
  Giovanni Bistoni       : ETS/NOCV, ADLD/ADEX, COVALED                  
  Martin Brehm           : Molecular dynamics                            
  Ronald Cardenas        : ETS/NOCV                                      
  Martina Colucci        : COVALED                                       
  Sebastian Ehlert       : rSCAN, r2SCAN, r2SCAN-3c, D4, dhf basis sets  
  Marvin Friede          : D4 for Fr, Ra, Ac-Lr                          
  Lars Goerigk           : TD-DFT with DH, B97 family of functionals     
  Stefan Grimme          : VdW corrections, initial TS optimization, DFT functionals, gCP, sTDA/sTD-DF 
  Waldemar Hujo          : DFT-NL                                        
  H. Jonsson             : NEB                                           
  Holger Kruse           : gCP                                           
  Marcel Mueller         : wB97X-3c, vDZP basis set                      
  Hagen Neugebauer       : wr2SCAN, Native XTB                           
  Gianluca Regni         : ADLD/ADEX                                     
  Tobias Risthaus        : pre 6.0 range-separated hybrid DFT and stability analysis
  Lukas Wittmann         : regularized MP2, r2SCAN double-hybrids, wr2SCAN        
                                                                         
We gratefully acknowledge several colleagues who have allowed us to      
interface, adapt or use parts of their codes:                            
  Ed Valeev, F. Pavosevic, A. Kumar             : LibInt (2-el integral package), F12 methods 
  Garnet Chan, S. Sharma, J. Yang, R. Olivares  : DMRG                   
  Ulf Ekstrom                                   : XCFun DFT Library      
  Mihaly Kallay                                 : mrcc  (arbitrary order and MRCC methods)
  Frank Weinhold                                : gennbo (NPA and NBO analysis)           
  Simon Mueller                                 : openCOSMO-RS                            
  Christopher J. Cramer and Donald G. Truhlar   : smd solvation model                     
  S Lehtola, MJT Oliveira, MAL Marques          : LibXC Library                           
  Liviu Ungur et al                             : ANISO software                          


 Your calculation uses the libint2 library for the computation of 2-el integrals
 For citations please refer to: http://libint.valeyev.net

 Your ORCA version has been built with support for libXC version: 7.0.0
 For citations please refer to: https://libxc.gitlab.io

 This ORCA versions uses:
   CBLAS   interface :  Fast vector & matrix operations
   LAPACKE interface :  Fast linear algebra routines
   SCALAPACK package :  Parallel linear algebra routines
   Shared memory     :  Shared parallel matrices
   BLAS/LAPACK       :  OpenBLAS 0.3.29  USE64BITINT DYNAMIC_ARCH NO_AFFINITY Cooperlake SINGLE_THREADED
        Core in use  :  Cooperlake
   Copyright (c) 2011-2014, The OpenBLAS Project


  ***********************************
  * Starting time: Wed Jun 10 15:41:12 2026
  * Host name:     chpc-cn081.rc.cuhk.edu.hk
  * Process ID:    179361
  * Working dir.:  /lustre/project/xlzhang/jingyi/chemsmart/test_pka/orca
  ***********************************

NOTE: MaxCore=2109 MB was set to SCF,MP2,MDCI,CIPSI,MRCI,RASCI and CIS
      => If you want to overwrite this, your respective input block should be placed after the MaxCore statement
XCFun DFT library Copyright 2009-2010 Ulf Ekstrom and contributors.
See http://admol.org/xcfun for more information.
This is free software; see the source code for copying conditions.
There is ABSOLUTELY NO WARRANTY; not even for MERCHANTABILITY or FITNESS FOR A PARTICULAR PURPOSE.
For details see the documentation.
Scientific users of this library should cite U. Ekstrom, L. Visscher, R. Bast, A. J. Thorvaldsen and K. Ruud;
J.Chem.Theor.Comp. 2010, DOI: 10.1021/ct100117s
XCFun Version 0.99 

Warning: RI is on but no J-basis has been assigned. Assigning Def2/J (nothing to worry about!)
================================================================================

----- Orbital basis set information -----
Your calculation utilizes the basis: def2-SVP
   F. Weigend and R. Ahlrichs, Phys. Chem. Chem. Phys. 7, 3297 (2005).

----- AuxJ basis set information -----
Your calculation utilizes the auxiliary basis: def2/J
   H-Rn: F. Weigend, Phys. Chem. Chem. Phys. 8, 1057 (2006).
   Fr-Lr: K. Eichkorn, F. Weigend, O. Treutler, R. Ahlrichs; Theor. Chem. Acc. 97, 119 (1997).

================================================================================
                                        WARNINGS
                       Please study these warnings very carefully!
================================================================================

WARNING: Functional chosen is sensitive to the integration grid.
         DEFGRID3 seems to be a minimum grid for robust results!

================================================================================
                                       INPUT FILE
================================================================================
NAME = /lustre/project/xlzhang/jingyi/chemsmart/test_pka/orca/pka_scale_frag3_pka_A_sp.inp
|  1> !  M062X def2-SVP defgrid2 CPCM(water)
|  2> # Number of processors
|  3> %pal nprocs 64 end
|  4> # Memory per core
|  5> %maxcore 2109
|  6> * xyz -1 1
|  7> C       -0.9365360000   -0.0434820000   -0.2366890000
|  8> C        0.5783250000    0.2284790000    0.0839990000
|  9> O        0.9811450000    1.3817570000   -0.1461910000
| 10> O        1.1908380000   -0.7568400000    0.5348990000
| 11> H       -1.4338730000    0.8483080000   -0.6456730000
| 12> H       -1.4509860000   -0.3691150000    0.6825240000
| 13> H       -1.0147960000   -0.8779110000   -0.9528700000
| 14> *
| 15> 
| 16>                          ****END OF INPUT****
================================================================================

                       ****************************
                       * Single Point Calculation *
                       ****************************

---------------------------------
CARTESIAN COORDINATES (ANGSTROEM)
---------------------------------
  C     -0.936536   -0.043482   -0.236689
  C      0.578325    0.228479    0.083999
  O      0.981145    1.381757   -0.146191
  O      1.190838   -0.756840    0.534899
  H     -1.433873    0.848308   -0.645673
  H     -1.450986   -0.369115    0.682524
  H     -1.014796   -0.877911   -0.952870

----------------------------
CARTESIAN COORDINATES (A.U.)
----------------------------
  NO LB      ZA    FRAG     MASS         X           Y           Z
   0 C     6.0000    0    12.011   -1.769797   -0.082169   -0.447277
   1 C     6.0000    0    12.011    1.092876    0.431763    0.158735
   2 O     8.0000    0    15.999    1.854095    2.611142   -0.276261
   3 O     8.0000    0    15.999    2.250358   -1.430220    1.010813
   4 H     1.0000    0     1.008   -2.709627    1.603070   -1.220145
   5 H     1.0000    0     1.008   -2.741966   -0.697526    1.289783
   6 H     1.0000    0     1.008   -1.917687   -1.659011   -1.800663

--------------------------------
INTERNAL COORDINATES (ANGSTROEM)
--------------------------------
 C      0   0   0     0.000000000000     0.00000000     0.00000000
 C      1   0   0     1.572134672408     0.00000000     0.00000000
 O      2   1   0     1.243101578224   115.78246874     0.00000000
 O      2   1   3     1.244723470065   114.27496477   179.92530912
 H      1   2   3     1.099955184508   111.79366522     0.90757666
 H      1   2   3     1.102564371163   109.30673177   239.15048724
 H      1   2   3     1.102411723632   109.38157151   122.83552952

---------------------------
INTERNAL COORDINATES (A.U.)
---------------------------
 C      0   0   0     0.000000000000     0.00000000     0.00000000
 C      1   0   0     2.970903976492     0.00000000     0.00000000
 O      2   1   0     2.349121539489   115.78246874     0.00000000
 O      2   1   3     2.352186470886   114.27496477   179.92530912
 H      1   2   3     2.078614058306   111.79366522     0.90757666
 H      1   2   3     2.083544706517   109.30673177   239.15048724
 H      1   2   3     2.083256244489   109.38157151   122.83552952

---------------------
BASIS SET INFORMATION
---------------------
There are 3 groups of distinct atoms

 Group   1 Type C   : 7s4p1d contracted to 3s2p1d pattern {511/31/1}
 Group   2 Type O   : 7s4p1d contracted to 3s2p1d pattern {511/31/1}
 Group   3 Type H   : 4s1p contracted to 2s1p pattern {31/1}

Atom   0C    basis set group =>   1
Atom   1C    basis set group =>   1
Atom   2O    basis set group =>   2
Atom   3O    basis set group =>   2
Atom   4H    basis set group =>   3
Atom   5H    basis set group =>   3
Atom   6H    basis set group =>   3
---------------------------------
AUXILIARY/J BASIS SET INFORMATION
---------------------------------
There are 3 groups of distinct atoms

 Group   1 Type C   : 12s5p4d2f1g contracted to 6s4p3d1f1g pattern {711111/2111/211/2/1}
 Group   2 Type O   : 12s5p4d2f1g contracted to 6s4p3d1f1g pattern {711111/2111/211/2/1}
 Group   3 Type H   : 5s2p1d contracted to 3s1p1d pattern {311/2/1}

Atom   0C    basis set group =>   1
Atom   1C    basis set group =>   1
Atom   2O    basis set group =>   2
Atom   3O    basis set group =>   2
Atom   4H    basis set group =>   3
Atom   5H    basis set group =>   3
Atom   6H    basis set group =>   3


           ************************************************************
           *        Program running with 64 parallel MPI-processes    *
           *              working on a common directory               *
           ************************************************************
------------------------------------------------------------------------------
                             ORCA STARTUP CALCULATIONS
                           -- RI-GTO INTEGRALS CHOSEN --
------------------------------------------------------------------------------
------------------------------------------------------------------------------
                   ___                                                        
                  /   \      - P O W E R E D   B Y -                         
                 /     \                                                     
                 |  |  |   _    _      __       _____    __    __             
                 |  |  |  | |  | |    /  \     |  _  \  |  |  /  |          
                  \  \/   | |  | |   /    \    | | | |  |  | /  /          
                 / \  \   | |__| |  /  /\  \   | |_| |  |  |/  /          
                |  |  |   |  __  | /  /__\  \  |    /   |      \           
                |  |  |   | |  | | |   __   |  |    \   |  |\   \          
                \     /   | |  | | |  |  |  |  | |\  \  |  | \   \       
                 \___/    |_|  |_| |__|  |__|  |_| \__\ |__|  \__/        
                                                                              
                      - O R C A' S   B I G   F R I E N D -                    
                                      &                                       
                       - I N T E G R A L  F E E D E R -                       
                                                                              
 v1 FN, 2020, v2 2021, v3 2022-2024                                           
------------------------------------------------------------------------------


----------------------
SHARK INTEGRAL PACKAGE
----------------------

Number of atoms                             ...      7
Number of basis functions                   ...     71
Number of shells                            ...     33
Maximum angular momentum                    ...      2
Integral batch strategy                     ... SHARK/LIBINT Hybrid
RI-J (if used) integral strategy            ... SPLIT-RIJ (Revised 2003 algorithm where possible)
Printlevel                                  ...      1
Contraction scheme used                     ... SEGMENTED contraction
Prescreening option                         ... SCHWARTZ
   Thresh                                   ... 1.000e-10
   Tcut                                     ... 1.000e-11
   Tpresel                                  ... 1.000e-11 
Coulomb Range Separation                    ... NOT USED
Exchange Range Separation                   ... NOT USED
Multipole approximations                    ... NOT USED
Finite Nucleus Model                        ... NOT USED
CABS basis                                  ... NOT available
Auxiliary Coulomb fitting basis             ... AVAILABLE
   # of basis functions in Aux-J            ...    229
   # of shells in Aux-J                     ...     75
   Maximum angular momentum in Aux-J        ...      4
Auxiliary J/K fitting basis                 ... NOT available
Auxiliary Correlation fitting basis         ... NOT available
Auxiliary 'external' fitting basis          ... NOT available

Checking pre-screening integrals            ... done (  0.0 sec) Dimension = 33
   => SHARK Basis and OBASIS are compatible. Storing Pre-screening
Shell pair information
Shell pair cut-off parameter TPreSel        ...   1.0e-11
Total number of shell pairs                 ...       561
Shell pairs after pre-screening             ...       557
Total number of primitive shell pairs       ...      2077
Primitive shell pairs kept                  ...      1695
          la=0 lb=0:    168 shell pairs
          la=1 lb=0:    197 shell pairs
          la=1 lb=1:     66 shell pairs
          la=2 lb=0:     72 shell pairs
          la=2 lb=1:     44 shell pairs
          la=2 lb=2:     10 shell pairs

Checking whether 4 symmetric matrices of dimension 71 fit in memory
:Max Core in MB      =   2109.00
 MB in use           =      3.96
 MB left             =   2105.04
 MB needed           =      0.08
 Data fit in memory  = YES
Calculating RI/J V-Matrix + Cholesky decomp.... done (  0.2 sec)
Calculating Nuclear repulsion               ... done (  0.0 sec) ENN=    112.008399269782 Eh

Diagonalization of the overlap matrix:
Smallest eigenvalue                        ... 5.027e-03
Time for diagonalization                   ...    0.052 sec
Threshold for overlap eigenvalues          ... 1.000e-07
Number of eigenvalues below threshold      ... 0
Time for construction of square roots      ...    0.093 sec
Total time needed                          ...    0.383 sec

-------------------
DFT GRID GENERATION
-------------------

General Integration Accuracy     IntAcc      ... 4.388
Radial Grid Type                 RadialGrid  ... OptM3 with GC (2021)
Angular Grid (max. ang.)         AngularGrid ... 4 (Lebedev-302)
Angular grid pruning method      GridPruning ... 4 (adaptive)
Weight generation scheme         WeightScheme... mBecke (2022)
Basis function cutoff            BFCut       ... 1.0000e-10
Integration weight cutoff        WCut        ... 1.0000e-14
Partially contracted basis set               ... off
Rotationally invariant grid construction     ... off
Angular grids for H and He will be reduced by one unit

Total number of grid points                  ...    34189
Total number of batches                      ...      537
Average number of points per batch           ...       63
Average number of grid points per atom       ...     4884

--------------------
COSX GRID GENERATION
--------------------

GRIDX 1
-------
General Integration Accuracy     IntAcc      ... 3.816
Radial Grid Type                 RadialGrid  ... OptM3 with GC (2021)
Angular Grid (max. ang.)         AngularGrid ... 1 (Lebedev-50)
Angular grid pruning method      GridPruning ... 4 (adaptive)
Weight generation scheme         WeightScheme... mBecke (2022)
Basis function cutoff            BFCut       ... 1.0000e-10
Integration weight cutoff        WCut        ... 1.0000e-14
Partially contracted basis set               ... on
Rotationally invariant grid construction     ... off
Angular grids for H and He will be reduced by one unit

Total number of grid points                  ...     4366
Total number of batches                      ...       38
Average number of points per batch           ...      114
Average number of grid points per atom       ...      624
UseSFitting                                  ... on

GRIDX 2
-------
General Integration Accuracy     IntAcc      ... 4.020
Radial Grid Type                 RadialGrid  ... OptM3 with GC (2021)
Angular Grid (max. ang.)         AngularGrid ... 2 (Lebedev-110)
Angular grid pruning method      GridPruning ... 4 (adaptive)
Weight generation scheme         WeightScheme... mBecke (2022)
Basis function cutoff            BFCut       ... 1.0000e-10
Integration weight cutoff        WCut        ... 1.0000e-14
Partially contracted basis set               ... on
Rotationally invariant grid construction     ... off
Angular grids for H and He will be reduced by one unit

Total number of grid points                  ...     9772
Total number of batches                      ...       81
Average number of points per batch           ...      120
Average number of grid points per atom       ...     1396
UseSFitting                                  ... on

GRIDX 3
-------
General Integration Accuracy     IntAcc      ... 4.338
Radial Grid Type                 RadialGrid  ... OptM3 with GC (2021)
Angular Grid (max. ang.)         AngularGrid ... 3 (Lebedev-194)
Angular grid pruning method      GridPruning ... 4 (adaptive)
Weight generation scheme         WeightScheme... mBecke (2022)
Basis function cutoff            BFCut       ... 1.0000e-10
Integration weight cutoff        WCut        ... 1.0000e-14
Partially contracted basis set               ... on
Rotationally invariant grid construction     ... off
Angular grids for H and He will be reduced by one unit

Total number of grid points                  ...    21665
Total number of batches                      ...      173
Average number of points per batch           ...      125
Average number of grid points per atom       ...     3095
UseSFitting                                  ... on
Grids setup in   2.0 sec
Initializing property integral containers    ... done (  0.3 sec)

SHARK setup successfully completed in   3.3 seconds

Maximum memory used throughout the entire STARTUP-calculation: 10.4 MB


           ************************************************************
           *        Program running with 64 parallel MPI-processes    *
           *              working on a common directory               *
           ************************************************************
-------------------------------------------------------------------------------
                                 ORCA GUESS
                   Start orbitals & Density for SCF / CASSCF
-------------------------------------------------------------------------------

------------
SCF SETTINGS
------------
Hamiltonian:
 Density Functional     Method          .... DFT(GTOs)
 Exchange Functional    Exchange        .... M062X
 Correlation Functional Correlation     .... M062X
 Gradients option       PostSCFGGA      .... off
 Hybrid DFT is turned on
   Fraction HF Exchange ScalHFX         ....  0.540000
   Scaling of DF-GGA-X  ScalDFX         ....  0.460000
   Scaling of DF-GGA-C  ScalDFC         ....  1.000000
   Scaling of DF-LDA-C  ScalLDAC        ....  1.000000
   Perturbative correction              ....  0.000000
 RI-approximation to the Coulomb term is turned on
   Number of AuxJ basis functions       .... 229
   RIJ-COSX (HFX calculated with COS-X)).... on


General Settings:
 Integral files         IntName         .... /lustre/project/xlzhang/jingyi/chemsmart/test_pka/orca/pka_scale_frag3_pka_A_sp
 Hartree-Fock type      HFTyp           .... RHF
 Total Charge           Charge          ....   -1
 Multiplicity           Mult            ....    1
 Number of Electrons    NEL             ....   32
 Basis Dimension        Dim             ....   71
 Nuclear Repulsion      ENuc            ....    112.0083992698 Eh

Convergence Acceleration:
 AO-DIIS                CNVDIIS         .... on
   Start iteration      DIISMaxIt       ....    12
   Startup error        DIISStart       ....  0.200000
   # of expansion vecs  DIISMaxEq       ....     5
   Bias factor          DIISBfac        ....   1.050
   Max. coefficient     DIISMaxC        ....  10.000
 MO-DIIS                CNVKDIIS        .... off
 Trust-Rad. Augm. Hess. CNVTRAH         .... auto
   Auto Start mean grad. ratio tolernc. ....  1.125000
   Auto Start start iteration           ....    50
   Auto Start num. interpolation iter.  ....    10
   Max. Number of Micro iterations      ....    24
   Max. Number of Macro iterations      .... Maxiter - #DIIS iter
   Number of Davidson start vectors     ....     2
   Converg. threshold    (grad. norm)   ....   5.000e-05
   Grad. Scal. Fac. for Micro threshold ....   0.100
   Minimum threshold for Micro iter.    ....   1.000e-02
   NR start threshold (gradient norm)   ....   1.000e-04
   Initial trust radius                 ....   0.400
   Minimum AH scaling param. (alpha)    ....   1.000
   Maximum AH scaling param. (alpha)    .... 1000.000
   Quad. conv. algorithm                .... NR
   White noise on init. David. guess    .... on
   Maximum white noise                  ....   0.010
   Pseudo random numbers                .... off
   Inactive MOs                         .... canonical
   Orbital update algorithm             .... Taylor
   Preconditioner                       .... Diag
   Full preconditioner red. dimension   ....   250
 SOSCF                 CNVSOSCF           .... on
   Start iteration     SOSCFMaxIt         ....   150
   Startup grad/error  SOSCFStart         ....  0.003300
   Hessian update      SOSCFHessUp        .... L-BFGS
   Autom. constraints  SOSCFAutoConstrain .... off
 Level Shifting         CNVShift        .... on
   Level shift para.    LevelShift      ....    0.2500
   Turn off err/grad.   ShiftErr        ....    0.0010
 Zerner damping         CNVZerner       .... off
 Static damping         CNVDamp         .... on
   Fraction old density DampFac         ....    0.7000
   Max. Damping (<1)    DampMax         ....    0.9800
   Min. Damping (>=0)   DampMin         ....    0.0000
   Turn off err/grad.   DampErr         ....    0.1000

SCF Procedure:
 Maximum # iterations   MaxIter         ....   125
 SCF integral mode      SCFMode         .... Direct
   Integral package                     .... SHARK and LIBINT hybrid scheme
 Reset frequency        DirectResetFreq ....    20
 Integral Threshold     Thresh          ....  1.000e-10 Eh
 Primitive CutOff       TCut            ....  1.000e-11 Eh

Convergence Tolerance:
 Convergence Check Mode ConvCheckMode   .... Total+1el-Energy
 Convergence forced     ConvForced      .... 0
 Energy Change          TolE            ....  1.000e-06 Eh
 1-El. energy change                    ....  1.000e-03 Eh
 Orbital Gradient       TolG            ....  5.000e-05
 Orbital Rotation angle TolX            ....  5.000e-05
 DIIS Error             TolErr          ....  1.000e-06

------------------------------
INITIAL GUESS: MODEL POTENTIAL
------------------------------
Loading Hartree-Fock densities                     ... done
Calculating cut-offs                               ... done
Initializing the effective Hamiltonian             ... done
Setting up the integral package (SHARK)            ... done
Starting the Coulomb interaction                   ... done (   0.2 sec)
Making the grid                                    ... done (   0.4 sec)
Mapping shells                                     ... done
Starting the XC term evaluation                    ... done (   0.0 sec)
  promolecular density results
     # of electrons  =     30.999362969
     EX              =    -27.343855206
     EC              =     -1.018248666
     EX+EC           =    -28.362103871
Transforming the Hamiltonian                       ... done (   0.0 sec)
Diagonalizing the Hamiltonian                      ... done (   0.0 sec)
Back transforming the eigenvectors                 ... done (   0.2 sec)
Now organizing SCF variables                       ... done
                      ------------------
                      INITIAL GUESS DONE (   1.2 sec)
                      ------------------
             **** ENERGY FILE WAS UPDATED (/lustre/project/xlzhang/jingyi/chemsmart/test_pka/orca/pka_scale_frag3_pka_A_sp.en.tmp) ****
Finished Guess after   3.8 sec
Maximum memory used throughout the entire GUESS-calculation: 6.2 MB


           ************************************************************
           *        Program running with 64 parallel MPI-processes    *
           *              working on a common directory               *
           ************************************************************

-------------------------------------------------------------------------------------------
                                      ORCA LEAN-SCF
                              memory conserving SCF solver
-------------------------------------------------------------------------------------------

--------------------
CPCM SOLVATION MODEL
--------------------
CPCM parameters:
  Epsilon                                         ...      80.1510
  Refrac                                          ...       1.3328
  Rsolv                                           ...       1.3000
  Surface type                                    ... GAUSSIAN VDW
  Discretization scheme                           ... Constant charge density
    Threshold for H atoms                         ...       5.0000 (charges/Ang^2)
    Threshold for non-H atoms                     ...       5.0000 (charges/Ang^2)
  Epsilon function type                           ...         CPCM
Solvent:                                          ... WATER
Radii:
  Scheme                                          ... Element-dependent radii
  Radius for C  used is    3.8550 Bohr (=   2.0400 Ang.)
  Radius for O  used is    3.4469 Bohr (=   1.8240 Ang.)
  Radius for H  used is    2.4944 Bohr (=   1.3200 Ang.)
Calculating surface                               ...        done! (  0.0s)
Cavity surface points                             ...          773
Cavity Volume                                     ...     518.5681
Cavity Surface-area                               ...     343.2390
Calculating surface distance matrix               ...        done! (  0.1s)
Performing Cholesky decomposition & store         ...        done! (  0.0s)
Overall time for CPCM initialization              ...                 0.2s

----------------------------------------D-I-I-S--------------------------------------------
Iteration    Energy (Eh)           Delta-E    RMSDP     MaxDP     DIISErr   Damp  Time(sec)
-------------------------------------------------------------------------------------------
               ***  Starting incremental Fock matrix formation  ***
    1    -228.1233207677197186     0.00e+00  4.54e-02  9.55e-02  2.91e-01  0.700   2.4
    2    -228.2187426467066587    -9.54e-02  3.17e-02  7.71e-02  1.50e-01  0.700   1.4
                               ***Turning on AO-DIIS***
    3    -228.2614258839265915    -4.27e-02  1.23e-02  2.33e-02  6.46e-02  0.700   1.5
    4    -228.2866694766396733    -2.52e-02  2.07e-02  2.99e-02  4.06e-02  0.000   1.0
    5    -228.3409408853021034    -5.43e-02  3.35e-03  1.10e-02  5.56e-03  0.000   1.0
                              *** Initializing SOSCF ***
---------------------------------------S-O-S-C-F--------------------------------------
Iteration    Energy (Eh)           Delta-E    RMSDP     MaxDP     MaxGrad    Time(sec)
--------------------------------------------------------------------------------------
    6    -228.3410610389679221    -1.20e-04  8.54e-04  2.53e-03  1.37e-03     1.4
               *** Restarting incremental Fock matrix formation ***
    7    -228.3410730917964031    -1.21e-05  4.61e-04  1.26e-03  2.32e-04     1.7
    8    -228.3410740621099819    -9.70e-07  2.09e-04  5.98e-04  7.34e-05     1.3
                 **** Energy Check signals convergence ****

               *****************************************************
               *                     SUCCESS                       *
               *           SCF CONVERGED AFTER   8 CYCLES          *
               *****************************************************

Recomputing exchange energy using gridx3       ... done (    0.056 sec)
Old exchange energy                            :    -15.192824417 Eh
New exchange energy                            :    -15.192767150 Eh
Exchange energy change after final integration :      0.000057266 Eh
Total energy after final integration           :   -228.341016890 Eh
             **** ENERGY FILE WAS UPDATED (/lustre/project/xlzhang/jingyi/chemsmart/test_pka/orca/pka_scale_frag3_pka_A_sp.en.tmp) ****

----------------
TOTAL SCF ENERGY
----------------

Total Energy       :       -228.34101688994656 Eh           -6213.47496 eV

Components:
Nuclear Repulsion  :        112.00839926978185 Eh            3047.90350 eV
Electronic Energy  :       -340.23820972928138 Eh           -9258.35237 eV
One Electron Energy:       -541.89672579735043 Eh          -14745.75957 eV
Two Electron Energy:        201.65851606806905 Eh            5487.40720 eV
CPCM Dielectric    :         -0.11126369683822 Eh              -3.02764 eV

Virial components:
Potential Energy   :       -454.80652188809870 Eh          -12375.91464 eV
Kinetic Energy     :        226.46550499815217 Eh            6162.43968 eV
Virial Ratio       :          2.00828166696650

DFT components:
N(Alpha)           :       16.000005899212 electrons
N(Beta)            :       16.000005899212 electrons
N(Total)           :       32.000011798423 electrons
E(XC)              :      -14.135696342693 Eh       

CPCM Solvation Model Properties:
Surface-charge          :          0.98732244285472
Corrected charge        :          1.00000000000000
Outlying charge corr.   :          0.00001541219953 Eh               0.00042 eV
Free-energy (cav+disp)  :  This term is not implemented in the current solvation scheme

---------------
SCF CONVERGENCE
---------------

  Last Energy change         ...    9.7031e-07  Tolerance :   1.0000e-06
  Last MAX-Density change    ...    5.9765e-04  Tolerance :   1.0000e-05
  Last RMS-Density change    ...    2.0901e-04  Tolerance :   1.0000e-06
  Last DIIS Error            ...    1.3690e-03  Tolerance :   1.0000e-06
  Last Orbital Gradient      ...    7.3416e-05  Tolerance :   5.0000e-05
  Last Orbital Rotation      ...    2.1573e-04  Tolerance :   5.0000e-05


----------------
ORBITAL ENERGIES
----------------

  NO   OCC          E(Eh)            E(eV) 
   0   2.0000     -19.534197      -531.5525 
   1   2.0000     -19.532135      -531.4964 
   2   2.0000     -10.605444      -288.5888 
   3   2.0000     -10.515825      -286.1502 
   4   2.0000      -1.100050       -29.9339 
   5   2.0000      -1.006504       -27.3884 
   6   2.0000      -0.763667       -20.7804 
   7   2.0000      -0.539373       -14.6771 
   8   2.0000      -0.476510       -12.9665 
   9   2.0000      -0.474120       -12.9015 
  10   2.0000      -0.469646       -12.7797 
  11   2.0000      -0.423875       -11.5342 
  12   2.0000      -0.398909       -10.8549 
  13   2.0000      -0.285448        -7.7674 
  14   2.0000      -0.279288        -7.5998 
  15   2.0000      -0.269905        -7.3445 
  16   0.0000       0.134996         3.6734 
  17   0.0000       0.139414         3.7936 
  18   0.0000       0.195017         5.3067 
  19   0.0000       0.214420         5.8347 
  20   0.0000       0.290060         7.8929 
  21   0.0000       0.329088         8.9549 
  22   0.0000       0.418449        11.3866 
  23   0.0000       0.521595        14.1933 
  24   0.0000       0.585232        15.9250 
  25   0.0000       0.610215        16.6048 
  26   0.0000       0.629947        17.1417 
*Only the first 10 virtual orbitals were printed.

                    ********************************
                    * MULLIKEN POPULATION ANALYSIS *
                    ********************************

-----------------------
MULLIKEN ATOMIC CHARGES
-----------------------
   0 C :   -0.138243
   1 C :    0.074865
   2 O :   -0.503477
   3 O :   -0.516003
   4 H :    0.012669
   5 H :    0.035478
   6 H :    0.034711
Sum of atomic charges:   -1.0000000

--------------------------------
MULLIKEN REDUCED ORBITAL CHARGES
--------------------------------
  0 C s       :     3.057672  s :     3.057672
      pz      :     1.018966  p :     3.058596
      px      :     1.038283
      py      :     1.001347
      dz2     :     0.002796  d :     0.021975
      dxz     :     0.004251
      dyz     :     0.006086
      dx2y2   :     0.004797
      dxy     :     0.004045

  1 C s       :     3.085716  s :     3.085716
      pz      :     0.841533  p :     2.696061
      px      :     0.956173
      py      :     0.898355
      dz2     :     0.013421  d :     0.143359
      dxz     :     0.010496
      dyz     :     0.033623
      dx2y2   :     0.047179
      dxy     :     0.038640

  2 O s       :     3.735521  s :     3.735521
      pz      :     1.583056  p :     4.752763
      px      :     1.758732
      py      :     1.410974
      dz2     :     0.001888  d :     0.015194
      dxz     :     0.000687
      dyz     :     0.003963
      dx2y2   :     0.004798
      dxy     :     0.003857

  3 O s       :     3.741687  s :     3.741687
      pz      :     1.547284  p :     4.759188
      px      :     1.699964
      py      :     1.511940
      dz2     :     0.002171  d :     0.015128
      dxz     :     0.001644
      dyz     :     0.003743
      dx2y2   :     0.003086
      dxy     :     0.004483

  4 H s       :     0.966701  s :     0.966701
      pz      :     0.005236  p :     0.020630
      px      :     0.004622
      py      :     0.010771

  5 H s       :     0.942318  s :     0.942318
      pz      :     0.011107  p :     0.022204
      px      :     0.005788
      py      :     0.005310

  6 H s       :     0.943138  s :     0.943138
      pz      :     0.008458  p :     0.022150
      px      :     0.003936
      py      :     0.009757



                     *******************************
                     * LOEWDIN POPULATION ANALYSIS *
                     *******************************

----------------------
LOEWDIN ATOMIC CHARGES
----------------------
   0 C :   -0.148749
   1 C :   -0.039809
   2 O :   -0.432389
   3 O :   -0.441493
   4 H :    0.011424
   5 H :    0.025801
   6 H :    0.025216

-------------------------------
LOEWDIN REDUCED ORBITAL CHARGES
-------------------------------
  0 C s       :     2.877268  s :     2.877268
      pz      :     1.067959  p :     3.209899
      px      :     1.075517
      py      :     1.066424
      dz2     :     0.008223  d :     0.061581
      dxz     :     0.011415
      dyz     :     0.016559
      dx2y2   :     0.014451
      dxy     :     0.010934

  1 C s       :     2.865966  s :     2.865966
      pz      :     0.839376  p :     2.837224
      px      :     0.983996
      py      :     1.013851
      dz2     :     0.028897  d :     0.336620
      dxz     :     0.021533
      dyz     :     0.073000
      dx2y2   :     0.120713
      dxy     :     0.092478

  2 O s       :     3.563414  s :     3.563414
      pz      :     1.573722  p :     4.843197
      px      :     1.765613
      py      :     1.503862
      dz2     :     0.003609  d :     0.025779
      dxz     :     0.000853
      dyz     :     0.005499
      dx2y2   :     0.008465
      dxy     :     0.007352

  3 O s       :     3.564510  s :     3.564510
      pz      :     1.552407  p :     4.851295
      px      :     1.718348
      py      :     1.580539
      dz2     :     0.003213  d :     0.025688
      dxz     :     0.002753
      dyz     :     0.006070
      dx2y2   :     0.005193
      dxy     :     0.008460

  4 H s       :     0.923540  s :     0.923540
      pz      :     0.015958  p :     0.065036
      px      :     0.019353
      py      :     0.029725

  5 H s       :     0.908390  s :     0.908390
      pz      :     0.030587  p :     0.065810
      px      :     0.020259
      py      :     0.014964

  6 H s       :     0.908995  s :     0.908995
      pz      :     0.023041  p :     0.065789
      px      :     0.014826
      py      :     0.027922



                      *****************************
                      * MAYER POPULATION ANALYSIS *
                      *****************************

  NA   - Mulliken gross atomic population
  ZA   - Total nuclear charge
  QA   - Mulliken gross atomic charge
  VA   - Mayer's total valence
  BVA  - Mayer's bonded valence
  FA   - Mayer's free valence

  ATOM       NA         ZA         QA         VA         BVA        FA
  0 C      6.1382     6.0000    -0.1382     3.8138     3.8138    -0.0000
  1 C      5.9251     6.0000     0.0749     4.5996     4.5996     0.0000
  2 O      8.5035     8.0000    -0.5035     1.9361     1.9361     0.0000
  3 O      8.5160     8.0000    -0.5160     1.9010     1.9010     0.0000
  4 H      0.9873     1.0000     0.0127     1.0019     1.0019    -0.0000
  5 H      0.9645     1.0000     0.0355     0.9945     0.9945     0.0000
  6 H      0.9653     1.0000     0.0347     0.9949     0.9949     0.0000

  Mayer bond orders larger than 0.100000
B(  0-C ,  1-C ) :   0.9565 B(  0-C ,  4-H ) :   0.9670 B(  0-C ,  5-H ) :   0.9689 
B(  0-C ,  6-H ) :   0.9691 B(  1-C ,  2-O ) :   1.8219 B(  1-C ,  3-O ) :   1.7911 


-------
TIMINGS
-------

Total SCF time: 0 days 0 hours 0 min 16 sec 

Total time                  ....      16.404 sec
Sum of individual times     ....      14.941 sec  ( 91.1%)

SCF preparation             ....       2.926 sec  ( 17.8%)
Fock matrix formation       ....      11.241 sec  ( 68.5%)
  Startup                   ....       0.198 sec  (  1.8% of F)
  Split-RI-J                ....       1.332 sec  ( 11.8% of F)
  Chain of spheres X        ....       0.730 sec  (  6.5% of F)
  XC integration            ....       2.723 sec  ( 24.2% of F)
    XC Preparation          ....       0.000 sec  (  0.0% of XC)
    Basis function eval.    ....       0.008 sec  (  0.3% of XC)
    Density eval.           ....       0.007 sec  (  0.2% of XC)
    XC-Functional eval.     ....       0.005 sec  (  0.2% of XC)
    XC-Potential eval.      ....       0.008 sec  (  0.3% of XC)
  CPCM terms                ....       1.173 sec  ( 10.4% of F)
Diagonalization             ....       0.000 sec  (  0.0%)
Density matrix formation    ....       0.131 sec  (  0.8%)
Total Energy calculation    ....       0.157 sec  (  1.0%)
Population analysis         ....       0.140 sec  (  0.9%)
Orbital Transformation      ....       0.039 sec  (  0.2%)
Orbital Orthonormalization  ....       0.000 sec  (  0.0%)
DIIS solution               ....       0.155 sec  (  0.9%)
SOSCF solution              ....       0.153 sec  (  0.9%)
Finished LeanSCF after  16.8 sec

Maximum memory used throughout the entire LEANSCF-calculation: 6.5 MB

-------------------------   --------------------
FINAL SINGLE POINT ENERGY      -228.341016889947
-------------------------   --------------------



           ************************************************************
           *        Program running with 64 parallel MPI-processes    *
           *              working on a common directory               *
           ************************************************************

------------------------------------------------------------------------------
                              ORCA PROPERTY CALCULATIONS
------------------------------------------------------------------------------

GBWName                                 ... /lustre/project/xlzhang/jingyi/chemsmart/test_pka/orca/pka_scale_frag3_pka_A_sp.gbw
Number of atoms                         ...      7
Number of basis functions               ...     71
Max core memory                         ...   2109 MB

Electric properties:
Dipole moment                           ... YES
Quadrupole moment                       ...  NO
Static polarizability (Dipole/Dipole)   ...  NO
Static polarizability (Dipole/Quad.)    ...  NO
Static polarizability (Quad./Quad.)     ...  NO
Static polarizability (Velocity)        ...  NO
Static hyperpolarizability              ...  NO

Atomic electric properties:
Dipole moment                           ...  NO
Quadrupole moment                       ...  NO
Static polarizability                   ...  NO

Choice of electric origin               ... Center of mass
Position of electric origin             ...     0.848662     0.378244     0.110791

General magnetic properties:
Magnetizability                         ...  NO

EPR properties:
g-Tensor (aka g-matrix)                 ...  NO
Zero-Field splitting spin-orbit         ...  NO
Zero-field splitting spin-spin          ...  NO
Hyperfine couplings                     ...  NO (   0 nuclei)
Quadrupole couplings                    ...  NO (   0 nuclei)
Contact density                         ...  NO (   0 nuclei)

NMR properties:
Chemical shifts                         ...  NO (   0 nuclei)
Spin-rotation constants                 ...  NO (   0 nuclei)
Spin-spin couplings                     ...  NO (   0 nuclei,    0 pairs)

Choice of magnetic origin               ... GIAO
Position of magnetic origin             ...     0.000000     0.000000     0.000000

Properties with geometric perturbations:
SCF Hessian                             ...  NO
IR spectrum                             ...  NO
VCD spectrum                            ...  NO
X-ray spectroscopy properties:
SCF XES/XAS/RIXS spectra                ...  NO

SCF SOC stabilization energy            ...  NO
Diagonal Born-Oppenheimer correction    ...  NO

-------------
DIPOLE MOMENT
-------------

Method             : SCF
Type of density    : Electron Density
Multiplicity       :   1
Irrep              :   0
Energy             :  -228.3410168899465589 Eh
Basis              : AO
                                X                 Y                 Z
Electronic contribution:      3.459485177       0.658042394       0.721425032
Nuclear contribution   :     -4.903710420      -0.934097129      -1.020383103
                        -----------------------------------------
Total Dipole Moment    :     -1.444225244      -0.276054735      -0.298958071
                        -----------------------------------------
Magnitude (a.u.)       :      1.500456164
Magnitude (Debye)      :      3.813856476



--------------------
Rotational spectrum 
--------------------
 
Rotational constants in cm-1:             0.384484             0.333096             0.184630 
Rotational constants in MHz :         11526.538549          9985.961715          5535.055374 

Dipole components along the rotational axes: 
x,y,z [a.u.] :    -1.498149     0.083149     0.002097 
x,y,z [Debye]:    -3.807992     0.211347     0.005331 

 

Dipole moment calculation done in   0.3 sec 

Maximum memory used throughout the entire PROP-calculation: 4.1 MB

--------------------------------
SUGGESTED CITATIONS FOR THIS RUN
--------------------------------

Below you find a list of papers that are relevant to this ORCA run
We neither can nor want to force you to cite these papers, but we appreciate if you do
You receive ORCA, which is the product of decades of hard work by many enthusiastic individuals, for free
The only thing we kindly ask in return is that you cite our papers,
We deeply appreciate it, if you show your appreciation for ORCA by not just citing the generic ORCA reference.

Please note that relegating all ORCA citations to the supporting information does *not* help us.
SI sections are not indexed - citations you put there will not count into any citation statistics
But we need these citations in order to attract the funding resources that allow us to do what we are doing

Therefore, if you are a happy ORCA user, please consider citing a few of the papers listed below in the main body of your paper

In addition to the list printed below, the program has created the file /lustre/project/xlzhang/jingyi/chemsmart/test_pka/orca/pka_scale_frag3_pka_A_sp.bibtex that contains the list in bibtex format
You can import this file easily into all common literature databanks and citation aid programs


List of essential papers. We consider these as the minimum necessary citations

  1. Neese, F.
     Software update: the ORCA program system, version 6.0
     WIRES Comput. Molec. Sci. 2025 15(1), e70019
     doi.org/10.1002/wcms.7019

List of papers to cite with high priority. The work reported in these papers was absolutely
necessary for this run to complete.
Our perspective: the developers of density functionals and basis sets usually get cited in chemistry papers
Good! But without the algorithms to do something with them, the functionals or basis sets would not do anything.
Hence, in our opinion, the algorithm design and method developments papers are equally worthy of getting cited

  1. Neese, F.
     An improvement of the resolution of the identity approximation for the formation of the Coulomb matrix
     J. Comp. Chem. 2003 24(14), 1740-1747
     doi.org/10.1002/jcc.10318
  2. Neese, F.; Wennmohs, F.; Hansen, A.; Becker, U.
     Efficient, approximate and parallel Hartree-Fock and hybrid DFT calculations. A 'chain-of-spheres' algorithm for the Hartree-Fock exchange
     Chem. Phys. 2009 356(1-3), 98-109
     doi.org/10.1016/j.chemphys.2008.10.036
  3. Garcia-Rates, M.; Neese, F.
     Effect of the Solute Cavity on the Solvation Energy and its Derivatives within the Framework of the Gaussian Charge Scheme
     J. Comput. Chem. 2020 41 , 922-939
     doi.org/10.1002/jcc.26139
  4. Helmich-Paris, B.; de Souza, B.; Neese, F.; Izsák, R.
     An improved chain of spheres for exchange algorithm
     J. Chem. Phys. 2021 155(10), 104109
     doi.org/10.1063/5.0058766
  5. Neese, F.
     The SHARK Integral Generation and Digestion System
     J. Comp. Chem. 2022 44(3), 381
     doi.org/10.1002/jcc.26942

List of suggested additional citations. These are papers that are important in the 'surrounding' of 
of this run, or papers that preceded the highly important papers. If you like your results we are grateful for a citation.

  1. Izsak, R.; Neese, F.
     An overlap fitted chain of spheres exchange method
     J. Chem. Phys. 2011 135 , 144105
     doi.org/10.1063/1.3646921
  2. Izsak, R.; Hansen, A.; Neese, F.
     The resolution of identity and chain of spheres approximations for the LPNO-CCSD singles Fock term
     Molec. Phys. 2012 110 , 2413-2417
     doi.org/10.1080/00268976.2012.687466
  3. Neese, F.
     The ORCA program system
     WIRES Comput. Molec. Sci. 2012 2(1), 73-78
     doi.org/10.1002/wcms.81
  4. Izsak, R.; Neese, F.; Klopper, W.
     Robust fitting techniques in the chain of spheres approximation to the Fock exchange: The role of the complementary space
     J. Chem. Phys. 2013 139 , 
     doi.org/10.1063/1.4819264
  5. Neese, F.
     Software update: the ORCA program system, version 4.0
     WIRES Comput. Molec. Sci. 2018 8(1), 1-6
     doi.org/10.1002/wcms.1327
  6. Neese, F.; Wennmohs, F.; Becker, U.; Riplinger, C.
     The ORCA quantum chemistry program package
     J. Chem. Phys. 2020 152(22), 224108
     doi.org/10.1063/5.0004608
  7. Neese, F.
     Software update: The ORCA program system—Version 5.0
     WIRES Comput. Molec. Sci. 2022 12(1), e1606
     doi.org/10.1002/wcms.1606

List of optional additional citations

  1. Neese, F.
     Approximate second-order SCF convergence for spin unrestricted wavefunctions
     Chem. Phys. Lett. 2000 325(1-3), 93-98
     doi.org/10.1016/s0009-2614(00)00662-x

Timings for individual modules:

Sum of individual times          ...       30.492 sec (=   0.508 min)
Startup calculation              ...        5.867 sec (=   0.098 min)  19.2 %
SCF iterations                   ...       21.622 sec (=   0.360 min)  70.9 %
Property calculations            ...        3.002 sec (=   0.050 min)   9.8 %
                             ****ORCA TERMINATED NORMALLY****
TOTAL RUN TIME: 0 days 0 hours 0 minutes 37 seconds 915 msec
