 Entering Gaussian System, Link 0=/project/xlzhang/shared/bin/g16/g16
 Input=/lustre/project/xlzhang/jingyi/chemsmart/test_pka/gaussian/pka_scale_frag1_pka_HA_opt.com
 Output=/lustre/project/xlzhang/jingyi/chemsmart/test_pka/gaussian/pka_scale_frag1_pka_HA_opt.log
 Initial command:
 /project/xlzhang/shared/bin/g16/l1.exe "/lustre/project/xlzhang/jingyi/chemsmart/test_pka/gaussian/Gau-700922.inp" -scrdir="/lustre/project/xlzhang/jingyi/chemsmart/test_pka/gaussian/"
 Entering Link 1 = /project/xlzhang/shared/bin/g16/l1.exe PID=    700923.
  
 Copyright (c) 1988-2017, Gaussian, Inc.  All Rights Reserved.
  
 This is part of the Gaussian(R) 16 program.  It is based on
 the Gaussian(R) 09 system (copyright 2009, Gaussian, Inc.),
 the Gaussian(R) 03 system (copyright 2003, Gaussian, Inc.),
 the Gaussian(R) 98 system (copyright 1998, Gaussian, Inc.),
 the Gaussian(R) 94 system (copyright 1995, Gaussian, Inc.),
 the Gaussian 92(TM) system (copyright 1992, Gaussian, Inc.),
 the Gaussian 90(TM) system (copyright 1990, Gaussian, Inc.),
 the Gaussian 88(TM) system (copyright 1988, Gaussian, Inc.),
 the Gaussian 86(TM) system (copyright 1986, Carnegie Mellon
 University), and the Gaussian 82(TM) system (copyright 1983,
 Carnegie Mellon University). Gaussian is a federally registered
 trademark of Gaussian, Inc.
  
 This software contains proprietary and confidential information,
 including trade secrets, belonging to Gaussian, Inc.
  
 This software is provided under written license and may be
 used, copied, transmitted, or stored only in accord with that
 written license.
  
 The following legend is applicable only to US Government
 contracts under FAR:
  
                    RESTRICTED RIGHTS LEGEND
  
 Use, reproduction and disclosure by the US Government is
 subject to restrictions as set forth in subparagraphs (a)
 and (c) of the Commercial Computer Software - Restricted
 Rights clause in FAR 52.227-19.
  
 Gaussian, Inc.
 340 Quinnipiac St., Bldg. 40, Wallingford CT 06492
  
  
 ---------------------------------------------------------------
 Warning -- This program may not be used in any manner that
 competes with the business of Gaussian, Inc. or will provide
 assistance to any competitor of Gaussian, Inc.  The licensee
 of this program is prohibited from giving any competitor of
 Gaussian, Inc. access to this program.  By using this program,
 the user acknowledges that Gaussian, Inc. is engaged in the
 business of creating and licensing software in the field of
 computational chemistry and represents and warrants to the
 licensee that it is not a competitor of Gaussian, Inc. and that
 it will not use this program in any manner prohibited above.
 ---------------------------------------------------------------
  

 Cite this work as:
 Gaussian 16, Revision B.01,
 M. J. Frisch, G. W. Trucks, H. B. Schlegel, G. E. Scuseria, 
 M. A. Robb, J. R. Cheeseman, G. Scalmani, V. Barone, 
 G. A. Petersson, H. Nakatsuji, X. Li, M. Caricato, A. V. Marenich, 
 J. Bloino, B. G. Janesko, R. Gomperts, B. Mennucci, H. P. Hratchian, 
 J. V. Ortiz, A. F. Izmaylov, J. L. Sonnenberg, D. Williams-Young, 
 F. Ding, F. Lipparini, F. Egidi, J. Goings, B. Peng, A. Petrone, 
 T. Henderson, D. Ranasinghe, V. G. Zakrzewski, J. Gao, N. Rega, 
 G. Zheng, W. Liang, M. Hada, M. Ehara, K. Toyota, R. Fukuda, 
 J. Hasegawa, M. Ishida, T. Nakajima, Y. Honda, O. Kitao, H. Nakai, 
 T. Vreven, K. Throssell, J. A. Montgomery, Jr., J. E. Peralta, 
 F. Ogliaro, M. J. Bearpark, J. J. Heyd, E. N. Brothers, K. N. Kudin, 
 V. N. Staroverov, T. A. Keith, R. Kobayashi, J. Normand, 
 K. Raghavachari, A. P. Rendell, J. C. Burant, S. S. Iyengar, 
 J. Tomasi, M. Cossi, J. M. Millam, M. Klene, C. Adamo, R. Cammi, 
 J. W. Ochterski, R. L. Martin, K. Morokuma, O. Farkas, 
 J. B. Foresman, and D. J. Fox, Gaussian, Inc., Wallingford CT, 2016.
 
 ******************************************
 Gaussian 16:  ES64L-G16RevB.01 20-Dec-2017
                10-Jun-2026 
 ******************************************
 %chk=pka_scale_frag1_pka_HA_opt.chk
 %nprocshared=64
 Will use up to   64 processors via shared memory.
 %mem=180GB
 -----------------------
 # opt freq mn15 def2svp
 -----------------------
 1/18=20,19=15,26=3,38=1/1,3;
 2/9=110,12=2,17=6,18=5,40=1/2;
 3/5=43,7=101,11=2,25=1,30=1,71=1,74=-73/1,2,3;
 4//1;
 5/5=2,38=5/2;
 6/7=2,8=2,9=2,10=2,28=1/1;
 7//1,2,3,16;
 1/18=20,19=15,26=3/3(2);
 2/9=110/2;
 99//99;
 2/9=110/2;
 3/5=43,7=101,11=2,25=1,30=1,71=1,74=-73/1,2,3;
 4/5=5,16=3,69=1/1;
 5/5=2,38=5/2;
 7//1,2,3,16;
 1/18=20,19=15,26=3/3(-5);
 2/9=110/2;
 6/7=2,8=2,9=2,10=2,19=2,28=1/1;
 99/9=1/99;
 ----------------------------
 Gaussian pKa calculation job
 ----------------------------
 Symbolic Z-matrix:
 Charge =  0 Multiplicity = 1
 C                     1.27638   0.31439   0.26145 
 C                     0.82562  -0.92307  -0.21406 
 C                    -0.55334  -1.07871  -0.43156 
 C                    -1.44641  -0.01726  -0.18033 
 C                    -0.95252   1.20971   0.29101 
 C                     0.41514   1.38843   0.51639 
 N                    -1.88229   2.31838   0.55219 
 O                    -3.08012   2.12806   0.30875 
 O                    -1.40583   3.3689    0.99937 
 N                     2.68761   0.51764   0.50818 
 O                     3.13672   0.08159   1.57494 
 O                     3.30871   1.17054  -0.33954 
 N                    -1.10076  -2.34798  -0.92772 
 O                    -0.29903  -3.27277  -1.12689 
 O                    -2.3208   -2.41849  -1.11601 
 O                     1.75551  -1.89755  -0.44821 
 H                    -2.51642  -0.14456  -0.35139 
 H                     0.81402   2.33436   0.88167 
 H                     1.33781  -2.73161  -0.75824 
 

 GradGradGradGradGradGradGradGradGradGradGradGradGradGradGradGradGradGrad
 Berny optimization.
 Initialization pass.
                           ----------------------------
                           !    Initial Parameters    !
                           ! (Angstroms and Degrees)  !
 --------------------------                            --------------------------
 ! Name  Definition              Value          Derivative Info.                !
 --------------------------------------------------------------------------------
 ! R1    R(1,2)                  1.4002         estimate D2E/DX2                !
 ! R2    R(1,6)                  1.4001         estimate D2E/DX2                !
 ! R3    R(1,10)                 1.447          estimate D2E/DX2                !
 ! R4    R(2,3)                  1.4047         estimate D2E/DX2                !
 ! R5    R(2,16)                 1.3672         estimate D2E/DX2                !
 ! R6    R(3,4)                  1.4097         estimate D2E/DX2                !
 ! R7    R(3,13)                 1.4686         estimate D2E/DX2                !
 ! R8    R(4,5)                  1.4041         estimate D2E/DX2                !
 ! R9    R(4,17)                 1.091          estimate D2E/DX2                !
 ! R10   R(5,6)                  1.3976         estimate D2E/DX2                !
 ! R11   R(5,7)                  1.4703         estimate D2E/DX2                !
 ! R12   R(6,18)                 1.0897         estimate D2E/DX2                !
 ! R13   R(7,8)                  1.237          estimate D2E/DX2                !
 ! R14   R(7,9)                  1.2372         estimate D2E/DX2                !
 ! R15   R(10,11)                1.2369         estimate D2E/DX2                !
 ! R16   R(10,12)                1.2372         estimate D2E/DX2                !
 ! R17   R(13,14)                1.24           estimate D2E/DX2                !
 ! R18   R(13,15)                1.2365         estimate D2E/DX2                !
 ! R19   R(16,19)                0.983          estimate D2E/DX2                !
 ! A1    A(2,1,6)              122.8035         estimate D2E/DX2                !
 ! A2    A(2,1,10)             119.7364         estimate D2E/DX2                !
 ! A3    A(6,1,10)             117.4601         estimate D2E/DX2                !
 ! A4    A(1,2,3)              117.8102         estimate D2E/DX2                !
 ! A5    A(1,2,16)             117.9781         estimate D2E/DX2                !
 ! A6    A(3,2,16)             124.209          estimate D2E/DX2                !
 ! A7    A(2,3,4)              120.7226         estimate D2E/DX2                !
 ! A8    A(2,3,13)             120.9307         estimate D2E/DX2                !
 ! A9    A(4,3,13)             118.3466         estimate D2E/DX2                !
 ! A10   A(3,4,5)              119.6657         estimate D2E/DX2                !
 ! A11   A(3,4,17)             120.3639         estimate D2E/DX2                !
 ! A12   A(5,4,17)             119.9703         estimate D2E/DX2                !
 ! A13   A(4,5,6)              120.6702         estimate D2E/DX2                !
 ! A14   A(4,5,7)              119.7425         estimate D2E/DX2                !
 ! A15   A(6,5,7)              119.5873         estimate D2E/DX2                !
 ! A16   A(1,6,5)              118.3268         estimate D2E/DX2                !
 ! A17   A(1,6,18)             120.119          estimate D2E/DX2                !
 ! A18   A(5,6,18)             121.5542         estimate D2E/DX2                !
 ! A19   A(5,7,8)              117.4739         estimate D2E/DX2                !
 ! A20   A(5,7,9)              117.4488         estimate D2E/DX2                !
 ! A21   A(8,7,9)              125.0773         estimate D2E/DX2                !
 ! A22   A(1,10,11)            116.8519         estimate D2E/DX2                !
 ! A23   A(1,10,12)            116.5452         estimate D2E/DX2                !
 ! A24   A(11,10,12)           126.4925         estimate D2E/DX2                !
 ! A25   A(3,13,14)            117.246          estimate D2E/DX2                !
 ! A26   A(3,13,15)            117.9377         estimate D2E/DX2                !
 ! A27   A(14,13,15)           124.8163         estimate D2E/DX2                !
 ! A28   A(2,16,19)            111.7029         estimate D2E/DX2                !
 ! D1    D(6,1,2,3)             -0.3843         estimate D2E/DX2                !
 ! D2    D(6,1,2,16)           179.0383         estimate D2E/DX2                !
 ! D3    D(10,1,2,3)           179.6071         estimate D2E/DX2                !
 ! D4    D(10,1,2,16)           -0.9703         estimate D2E/DX2                !
 ! D5    D(2,1,6,5)              0.3231         estimate D2E/DX2                !
 ! D6    D(2,1,6,18)          -179.7119         estimate D2E/DX2                !
 ! D7    D(10,1,6,5)          -179.6685         estimate D2E/DX2                !
 ! D8    D(10,1,6,18)            0.2966         estimate D2E/DX2                !
 ! D9    D(2,1,10,11)          -80.6523         estimate D2E/DX2                !
 ! D10   D(2,1,10,12)          102.9169         estimate D2E/DX2                !
 ! D11   D(6,1,10,11)           99.3395         estimate D2E/DX2                !
 ! D12   D(6,1,10,12)          -77.0913         estimate D2E/DX2                !
 ! D13   D(1,2,3,4)              0.1786         estimate D2E/DX2                !
 ! D14   D(1,2,3,13)          -179.9269         estimate D2E/DX2                !
 ! D15   D(16,2,3,4)          -179.2049         estimate D2E/DX2                !
 ! D16   D(16,2,3,13)            0.6897         estimate D2E/DX2                !
 ! D17   D(1,2,16,19)          178.6488         estimate D2E/DX2                !
 ! D18   D(3,2,16,19)           -1.9688         estimate D2E/DX2                !
 ! D19   D(2,3,4,5)              0.0744         estimate D2E/DX2                !
 ! D20   D(2,3,4,17)           179.9949         estimate D2E/DX2                !
 ! D21   D(13,3,4,5)          -179.8228         estimate D2E/DX2                !
 ! D22   D(13,3,4,17)            0.0977         estimate D2E/DX2                !
 ! D23   D(2,3,13,14)            0.9275         estimate D2E/DX2                !
 ! D24   D(2,3,13,15)         -179.0795         estimate D2E/DX2                !
 ! D25   D(4,3,13,14)         -179.1756         estimate D2E/DX2                !
 ! D26   D(4,3,13,15)            0.8175         estimate D2E/DX2                !
 ! D27   D(3,4,5,6)             -0.1396         estimate D2E/DX2                !
 ! D28   D(3,4,5,7)            179.9328         estimate D2E/DX2                !
 ! D29   D(17,4,5,6)           179.9396         estimate D2E/DX2                !
 ! D30   D(17,4,5,7)             0.012          estimate D2E/DX2                !
 ! D31   D(4,5,6,1)             -0.0523         estimate D2E/DX2                !
 ! D32   D(4,5,6,18)           179.9832         estimate D2E/DX2                !
 ! D33   D(7,5,6,1)            179.8754         estimate D2E/DX2                !
 ! D34   D(7,5,6,18)            -0.0891         estimate D2E/DX2                !
 ! D35   D(4,5,7,8)             -1.7762         estimate D2E/DX2                !
 ! D36   D(4,5,7,9)            178.1712         estimate D2E/DX2                !
 ! D37   D(6,5,7,8)            178.2954         estimate D2E/DX2                !
 ! D38   D(6,5,7,9)             -1.7572         estimate D2E/DX2                !
 --------------------------------------------------------------------------------
 Trust Radius=3.00D-01 FncErr=1.00D-07 GrdErr=1.00D-06 EigMax=2.50D+02 EigMin=1.00D-04
 Number of steps in this run=     95 maximum allowed number of steps=    114.
 GradGradGradGradGradGradGradGradGradGradGradGradGradGradGradGradGradGrad

                          Input orientation:                          
 ---------------------------------------------------------------------
 Center     Atomic      Atomic             Coordinates (Angstroms)
 Number     Number       Type             X           Y           Z
 ---------------------------------------------------------------------
      1          6           0        1.276381    0.314391    0.261446
      2          6           0        0.825624   -0.923066   -0.214055
      3          6           0       -0.553342   -1.078713   -0.431561
      4          6           0       -1.446412   -0.017258   -0.180329
      5          6           0       -0.952518    1.209706    0.291013
      6          6           0        0.415136    1.388427    0.516386
      7          7           0       -1.882286    2.318380    0.552192
      8          8           0       -3.080116    2.128060    0.308745
      9          8           0       -1.405833    3.368904    0.999366
     10          7           0        2.687606    0.517639    0.508183
     11          8           0        3.136720    0.081586    1.574936
     12          8           0        3.308709    1.170541   -0.339538
     13          7           0       -1.100763   -2.347977   -0.927723
     14          8           0       -0.299032   -3.272775   -1.126888
     15          8           0       -2.320798   -2.418491   -1.116006
     16          8           0        1.755509   -1.897550   -0.448208
     17          1           0       -2.516421   -0.144556   -0.351393
     18          1           0        0.814024    2.334363    0.881672
     19          1           0        1.337812   -2.731611   -0.758236
 ---------------------------------------------------------------------
                    Distance matrix (angstroms):
                    1          2          3          4          5
     1  C    0.000000
     2  C    1.400209   0.000000
     3  C    2.401850   1.404664   0.000000
     4  C    2.778265   2.446175   1.409744   0.000000
     5  C    2.402177   2.822340   2.432759   1.404114   0.000000
     6  C    1.400103   2.458667   2.814841   2.434485   1.397573
     7  N    3.752023   4.292655   3.778108   2.486318   1.470319
     8  O    4.719184   4.983724   4.149221   2.740543   2.317404
     9  O    4.131445   4.987263   4.749272   3.586003   2.317195
    10  N    1.446978   2.462567   3.732988   4.224957   3.711687
    11  O    2.289173   3.090466   4.357623   4.908749   4.432040
    12  O    2.285724   3.250331   4.470240   4.903813   4.307805
    13  N    3.762066   2.500131   1.468632   2.471907   3.763563
    14  O    4.156580   2.760298   2.315612   3.579224   4.746591
    15  O    4.722893   3.598580   2.321072   2.721390   4.125010
    16  O    2.371889   1.367162   2.449809   3.722842   4.187470
    17  H    3.869308   3.434269   2.175490   1.091049   2.166218
    18  H    2.163039   3.436801   3.904274   3.430384   2.175868
    19  H    3.212734   1.956860   2.532834   3.931105   4.677662
                    6          7          8          9         10
     6  C    0.000000
     7  N    2.478758   0.000000
     8  O    3.578681   1.237047   0.000000
     9  O    2.733402   1.237164   2.195422   0.000000
    10  N    2.433610   4.912079   5.991649   5.012705   0.000000
    11  O    3.199278   5.589246   6.666360   5.636712   1.236853
    12  O    3.025367   5.390654   6.492627   5.371440   1.237208
    13  N    4.283003   4.957400   5.047931   6.040651   4.962390
    14  O    4.993714   6.048720   6.242155   7.061010   5.095164
    15  O    4.964137   5.041143   4.824687   6.229438   6.028512
    16  O    3.677592   5.657598   6.337333   6.310712   2.759823
    17  H    3.420102   2.699008   2.432759   3.924583   5.315944
    18  H    1.089652   2.716413   3.941464   2.451916   2.636340
    19  H    4.410295   6.130959   6.653792   6.916143   3.739436
                   11         12         13         14         15
    11  O    0.000000
    12  O    2.209211   0.000000
    13  N    5.488382   5.671805   0.000000
    14  O    5.509626   5.777436   1.240036   0.000000
    15  O    6.578454   6.721265   1.236491   2.194871   0.000000
    16  O    3.149259   3.440555   2.931059   2.563784   4.163366
    17  H    5.976611   5.971747   2.681662   3.912028   2.407007
    18  H    3.309159   3.011526   5.372581   6.059142   6.033859
    19  H    4.073554   4.391644   2.474378   1.762957   3.689373
                   16         17         18         19
    16  O    0.000000
    17  H    4.618630   0.000000
    18  H    4.534762   4.330976   0.000000
    19  H    0.982978   4.659773   5.350490   0.000000
 Stoichiometry    C6H3N3O7
 Framework group  C1[X(C6H3N3O7)]
 Deg. of freedom    51
 Full point group                 C1      NOp   1
 Largest Abelian subgroup         C1      NOp   1
 Largest concise Abelian subgroup C1      NOp   1
                         Standard orientation:                         
 ---------------------------------------------------------------------
 Center     Atomic      Atomic             Coordinates (Angstroms)
 Number     Number       Type             X           Y           Z
 ---------------------------------------------------------------------
      1          6           0       -0.559006   -1.179267   -0.002853
      2          6           0       -1.246534    0.040490   -0.012037
      3          6           0       -0.486068    1.221474   -0.005142
      4          6           0        0.922717    1.170873    0.006741
      5          6           0        1.573421   -0.073356    0.010161
      6          6           0        0.838620   -1.262158    0.004832
      7          7           0        3.042681   -0.128097    0.021054
      8          8           0        3.654060    0.946940   -0.007169
      9          8           0        3.571442   -1.245936    0.058749
     10          7           0       -1.301118   -2.421447   -0.000849
     11          8           0       -1.747056   -2.804053    1.087525
     12          8           0       -1.366806   -3.028011   -1.077161
     13          7           0       -1.136501    2.538199   -0.012434
     14          8           0       -2.376351    2.558968   -0.006996
     15          8           0       -0.413667    3.541345   -0.023359
     16          8           0       -2.612998    0.006333   -0.039287
     17          1           0        1.507644    2.091863    0.011965
     18          1           0        1.328638   -2.235410    0.007115
     19          1           0       -2.999612    0.909927   -0.022114
 ---------------------------------------------------------------------
 Rotational constants (GHZ):           0.5568894           0.5082384           0.2766595
 Standard basis: def2SVP (5D, 7F)
 There are   255 symmetry adapted cartesian basis functions of A   symmetry.
 There are   239 symmetry adapted basis functions of A   symmetry.
   239 basis functions,   421 primitive gaussians,   255 cartesian basis functions
    58 alpha electrons       58 beta electrons
       nuclear repulsion energy      1099.5721141032 Hartrees.
 NAtoms=   19 NActive=   19 NUniq=   19 SFac= 1.00D+00 NAtFMM=   60 NAOKFM=F Big=F
 Integral buffers will be    131072 words long.
 Raffenetti 2 integral format.
 Two-electron integral symmetry is turned on.
 One-electron integrals computed using PRISM.
   1 Symmetry operations used in ECPInt.
 ECPInt:  NShTT=    5565 NPrTT=   21745 LenC2=    5134 LenP2D=   14215.
 LDataN:  DoStor=T MaxTD1= 4 Len=   56
 NBasis=   239 RedAO= T EigKep=  1.79D-04  NBF=   239
 NBsUse=   239 1.00D-06 EigRej= -1.00D+00 NBFU=   239
 ExpMin= 1.22D-01 ExpMax= 2.27D+03 ExpMxC= 3.41D+02 IAcc=3 IRadAn=         5 AccDes= 0.00D+00
 Harris functional with IExCor= 1009 and IRadAn=       5 diagonalized for initial guess.
 HarFok:  IExCor= 1009 AccDes= 0.00D+00 IRadAn=         5 IDoV= 1 UseB2=F ITyADJ=14
 ICtDFT=  3500011 ScaDFX=  1.000000  1.000000  1.000000  1.000000
 FoFCou: FMM=F IPFlag=           0 FMFlag=      100000 FMFlg1=           0
         NFxFlg=           0 DoJE=T BraDBF=F KetDBF=T FulRan=T
         wScrn=  0.000000 ICntrl=       500 IOpCl=  0 I1Cent=   200000004 NGrid=           0
         NMat0=    1 NMatS0=      1 NMatT0=    0 NMatD0=    1 NMtDS0=    0 NMtDT0=    0
 Petite list used in FoFCou.
 Requested convergence on RMS density matrix=1.00D-08 within 128 cycles.
 Requested convergence on MAX density matrix=1.00D-06.
 Requested convergence on             energy=1.00D-06.
 No special actions if energy rises.
 Integral accuracy reduced to 1.0D-05 until final iterations.
 Initial convergence to 1.0D-05 achieved.  Increase integral accuracy.
 SCF Done:  E(RMN15) =  -919.220255534     A.U. after   16 cycles
            NFock= 16  Conv=0.79D-08     -V/T= 2.0091

 **********************************************************************

            Population analysis using the SCF Density.

 **********************************************************************

 Orbital symmetries:
       Occupied  (A) (A) (A) (A) (A) (A) (A) (A) (A) (A) (A) (A)
                 (A) (A) (A) (A) (A) (A) (A) (A) (A) (A) (A) (A)
                 (A) (A) (A) (A) (A) (A) (A) (A) (A) (A) (A) (A)
                 (A) (A) (A) (A) (A) (A) (A) (A) (A) (A) (A) (A)
                 (A) (A) (A) (A) (A) (A) (A) (A) (A) (A)
       Virtual   (A) (A) (A) (A) (A) (A) (A) (A) (A) (A) (A) (A)
                 (A) (A) (A) (A) (A) (A) (A) (A) (A) (A) (A) (A)
                 (A) (A) (A) (A) (A) (A) (A) (A) (A) (A) (A) (A)
                 (A) (A) (A) (A) (A) (A) (A) (A) (A) (A) (A) (A)
                 (A) (A) (A) (A) (A) (A) (A) (A) (A) (A) (A) (A)
                 (A) (A) (A) (A) (A) (A) (A) (A) (A) (A) (A) (A)
                 (A) (A) (A) (A) (A) (A) (A) (A) (A) (A) (A) (A)
                 (A) (A) (A) (A) (A) (A) (A) (A) (A) (A) (A) (A)
                 (A) (A) (A) (A) (A) (A) (A) (A) (A) (A) (A) (A)
                 (A) (A) (A) (A) (A) (A) (A) (A) (A) (A) (A) (A)
                 (A) (A) (A) (A) (A) (A) (A) (A) (A) (A) (A) (A)
                 (A) (A) (A) (A) (A) (A) (A) (A) (A) (A) (A) (A)
                 (A) (A) (A) (A) (A) (A) (A) (A) (A) (A) (A) (A)
                 (A) (A) (A) (A) (A) (A) (A) (A) (A) (A) (A) (A)
                 (A) (A) (A) (A) (A) (A) (A) (A) (A) (A) (A) (A)
                 (A)
 The electronic state is 1-A.
 Alpha  occ. eigenvalues --  -18.90498 -18.90308 -18.90128 -18.88183 -18.88170
 Alpha  occ. eigenvalues --  -18.88006 -18.87964 -14.40001 -14.37727 -14.37517
 Alpha  occ. eigenvalues --  -10.21937 -10.18020 -10.17241 -10.17118 -10.15392
 Alpha  occ. eigenvalues --  -10.15343  -1.30682  -1.28491  -1.28414  -1.15219
 Alpha  occ. eigenvalues --   -1.12866  -1.11125  -1.11066  -0.99693  -0.92463
 Alpha  occ. eigenvalues --   -0.91102  -0.81615  -0.79827  -0.79010  -0.70587
 Alpha  occ. eigenvalues --   -0.66294  -0.65341  -0.64586  -0.64268  -0.63443
 Alpha  occ. eigenvalues --   -0.62123  -0.61890  -0.61360  -0.59832  -0.58567
 Alpha  occ. eigenvalues --   -0.58168  -0.56755  -0.53551  -0.53081  -0.50978
 Alpha  occ. eigenvalues --   -0.47795  -0.45966  -0.41203  -0.40568  -0.40179
 Alpha  occ. eigenvalues --   -0.39991  -0.39268  -0.38406  -0.37996  -0.37805
 Alpha  occ. eigenvalues --   -0.37640  -0.36459  -0.33920
 Alpha virt. eigenvalues --   -0.12134  -0.10317  -0.07715  -0.04493  -0.00822
 Alpha virt. eigenvalues --    0.04991   0.10082   0.12004   0.12206   0.15274
 Alpha virt. eigenvalues --    0.15971   0.18163   0.21913   0.23772   0.24379
 Alpha virt. eigenvalues --    0.25167   0.25575   0.26161   0.28297   0.29440
 Alpha virt. eigenvalues --    0.30282   0.33904   0.36123   0.36670   0.39546
 Alpha virt. eigenvalues --    0.40436   0.41159   0.43048   0.45371   0.46968
 Alpha virt. eigenvalues --    0.47548   0.48510   0.49311   0.53106   0.53960
 Alpha virt. eigenvalues --    0.56253   0.57342   0.59382   0.60780   0.62916
 Alpha virt. eigenvalues --    0.63988   0.65804   0.66614   0.67449   0.67730
 Alpha virt. eigenvalues --    0.70713   0.71889   0.74554   0.77214   0.78334
 Alpha virt. eigenvalues --    0.78716   0.81925   0.82517   0.85901   0.89532
 Alpha virt. eigenvalues --    0.90425   0.91740   0.92288   0.92673   0.93317
 Alpha virt. eigenvalues --    0.93764   0.95221   0.96661   0.97410   0.97560
 Alpha virt. eigenvalues --    0.99146   0.99992   1.01079   1.02236   1.02923
 Alpha virt. eigenvalues --    1.04266   1.04584   1.09305   1.09813   1.10981
 Alpha virt. eigenvalues --    1.13828   1.14243   1.15253   1.17949   1.20198
 Alpha virt. eigenvalues --    1.23416   1.24951   1.27370   1.28245   1.29339
 Alpha virt. eigenvalues --    1.29468   1.31541   1.35606   1.36685   1.38307
 Alpha virt. eigenvalues --    1.40686   1.43931   1.44684   1.46356   1.48077
 Alpha virt. eigenvalues --    1.51064   1.54409   1.57634   1.63062   1.65830
 Alpha virt. eigenvalues --    1.66284   1.67468   1.67961   1.72168   1.72341
 Alpha virt. eigenvalues --    1.72766   1.73522   1.74524   1.75509   1.81569
 Alpha virt. eigenvalues --    1.83262   1.86298   1.87928   1.90472   1.96225
 Alpha virt. eigenvalues --    1.98532   2.02378   2.04799   2.07631   2.09727
 Alpha virt. eigenvalues --    2.12794   2.14207   2.14751   2.15952   2.20893
 Alpha virt. eigenvalues --    2.21685   2.25353   2.29130   2.29443   2.29931
 Alpha virt. eigenvalues --    2.32183   2.33843   2.35284   2.35598   2.45286
 Alpha virt. eigenvalues --    2.45431   2.45957   2.47544   2.53832   2.55484
 Alpha virt. eigenvalues --    2.58085   2.58243   2.58691   2.58986   2.60266
 Alpha virt. eigenvalues --    2.60929   2.61496   2.64215   2.65819   2.67117
 Alpha virt. eigenvalues --    2.68052   2.69384   2.72608   2.73233   2.79089
 Alpha virt. eigenvalues --    2.80146   2.81936   2.86490   2.90436   2.95186
 Alpha virt. eigenvalues --    2.97127   2.99288   3.06523   3.08638   3.12279
 Alpha virt. eigenvalues --    3.15569   3.16425   3.18939   3.19868   3.22362
 Alpha virt. eigenvalues --    3.30329   3.31563   3.36595   3.45203   3.58473
 Alpha virt. eigenvalues --    3.61985   3.65069   3.65889   3.66705   3.67441
 Alpha virt. eigenvalues --    3.70306
          Condensed to atoms (all electrons):
               1          2          3          4          5          6
     1  C    5.866610  -0.057110   0.158771  -0.235147   0.281509   0.034838
     2  C   -0.057110   5.528460  -0.248814   0.176045  -0.317311   0.231160
     3  C    0.158771  -0.248814   6.067501  -0.021308   0.292579  -0.250453
     4  C   -0.235147   0.176045  -0.021308   5.577465  -0.014519   0.116479
     5  C    0.281509  -0.317311   0.292579  -0.014519   5.647728   0.049281
     6  C    0.034838   0.231160  -0.250453   0.116479   0.049281   5.325974
     7  N    0.011287  -0.001882   0.009401  -0.070809   0.283938  -0.062997
     8  O    0.000150  -0.000065   0.003969   0.020041  -0.113485   0.005162
     9  O    0.003996  -0.000088   0.000147   0.005010  -0.115552   0.025012
    10  N    0.225564  -0.044817   0.011542  -0.001172   0.008755  -0.049864
    11  O   -0.027729  -0.009280  -0.000244  -0.000130  -0.000094  -0.009150
    12  O   -0.037607  -0.010205  -0.000352  -0.000098   0.000344  -0.003068
    13  N    0.009506  -0.062827   0.289998  -0.066414   0.011019  -0.001725
    14  O    0.001983  -0.011177  -0.067762   0.006405   0.000212  -0.000106
    15  O    0.000101   0.001711  -0.109456   0.019322   0.003623  -0.000050
    16  O   -0.106445   0.562356  -0.095007   0.004264  -0.000627   0.003003
    17  H   -0.004744   0.022385  -0.053896   0.433594  -0.063792   0.017660
    18  H   -0.064060   0.020456  -0.004448   0.017408  -0.068314   0.451077
    19  H    0.013124   0.006670  -0.032798  -0.000501  -0.000150  -0.000113
               7          8          9         10         11         12
     1  C    0.011287   0.000150   0.003996   0.225564  -0.027729  -0.037607
     2  C   -0.001882  -0.000065  -0.000088  -0.044817  -0.009280  -0.010205
     3  C    0.009401   0.003969   0.000147   0.011542  -0.000244  -0.000352
     4  C   -0.070809   0.020041   0.005010  -0.001172  -0.000130  -0.000098
     5  C    0.283938  -0.113485  -0.115552   0.008755  -0.000094   0.000344
     6  C   -0.062997   0.005162   0.025012  -0.049864  -0.009150  -0.003068
     7  N    5.973094   0.335774   0.337078  -0.000010   0.000001   0.000000
     8  O    0.335774   8.036350  -0.095803   0.000000  -0.000000  -0.000000
     9  O    0.337078  -0.095803   8.035996   0.000004  -0.000000  -0.000000
    10  N   -0.000010   0.000000   0.000004   6.048460   0.295698   0.293705
    11  O    0.000001  -0.000000  -0.000000   0.295698   8.042099  -0.091148
    12  O    0.000000  -0.000000  -0.000000   0.293705  -0.091148   8.052257
    13  N    0.000009  -0.000001   0.000000  -0.000008   0.000001   0.000000
    14  O    0.000000  -0.000000  -0.000000   0.000005  -0.000000  -0.000000
    15  O   -0.000001   0.000000  -0.000000   0.000000  -0.000000  -0.000000
    16  O    0.000000  -0.000000  -0.000000   0.002312  -0.000487  -0.000125
    17  H   -0.014488   0.021822   0.000422  -0.000000   0.000000   0.000000
    18  H   -0.014291   0.000372   0.019404  -0.010906   0.000461   0.002234
    19  H   -0.000000  -0.000000  -0.000000   0.000082  -0.000034  -0.000026
              13         14         15         16         17         18
     1  C    0.009506   0.001983   0.000101  -0.106445  -0.004744  -0.064060
     2  C   -0.062827  -0.011177   0.001711   0.562356   0.022385   0.020456
     3  C    0.289998  -0.067762  -0.109456  -0.095007  -0.053896  -0.004448
     4  C   -0.066414   0.006405   0.019322   0.004264   0.433594   0.017408
     5  C    0.011019   0.000212   0.003623  -0.000627  -0.063792  -0.068314
     6  C   -0.001725  -0.000106  -0.000050   0.003003   0.017660   0.451077
     7  N    0.000009   0.000000  -0.000001   0.000000  -0.014488  -0.014291
     8  O   -0.000001  -0.000000   0.000000  -0.000000   0.021822   0.000372
     9  O    0.000000  -0.000000  -0.000000  -0.000000   0.000422   0.019404
    10  N   -0.000008   0.000005   0.000000   0.002312  -0.000000  -0.010906
    11  O    0.000001  -0.000000  -0.000000  -0.000487   0.000000   0.000461
    12  O    0.000000  -0.000000  -0.000000  -0.000125   0.000000   0.002234
    13  N    5.963150   0.283397   0.359529  -0.003303  -0.017894   0.000000
    14  O    0.283397   8.114034  -0.087885  -0.030284   0.000343  -0.000000
    15  O    0.359529  -0.087885   7.982295  -0.000052   0.020527  -0.000000
    16  O   -0.003303  -0.030284  -0.000052   7.480298   0.000001  -0.000014
    17  H   -0.017894   0.000343   0.020527   0.000001   0.594127  -0.000121
    18  H    0.000000  -0.000000  -0.000000  -0.000014  -0.000121   0.615183
    19  H   -0.001079   0.047209   0.000524   0.329815  -0.000033   0.000006
              19
     1  C    0.013124
     2  C    0.006670
     3  C   -0.032798
     4  C   -0.000501
     5  C   -0.000150
     6  C   -0.000113
     7  N   -0.000000
     8  O   -0.000000
     9  O   -0.000000
    10  N    0.000082
    11  O   -0.000034
    12  O   -0.000026
    13  N   -0.001079
    14  O    0.047209
    15  O    0.000524
    16  O    0.329815
    17  H   -0.000033
    18  H    0.000006
    19  H    0.417249
 Mulliken charges:
               1
     1  C   -0.074596
     2  C    0.214333
     3  C    0.050632
     4  C    0.034065
     5  C    0.114854
     6  C    0.117881
     7  N    0.213896
     8  O   -0.214287
     9  O   -0.215625
    10  N    0.220651
    11  O   -0.199965
    12  O   -0.205911
    13  N    0.236643
    14  O   -0.256374
    15  O   -0.190189
    16  O   -0.145705
    17  H    0.044088
    18  H    0.035555
    19  H    0.220054
 Sum of Mulliken charges =  -0.00000
 Mulliken charges with hydrogens summed into heavy atoms:
               1
     1  C   -0.074596
     2  C    0.214333
     3  C    0.050632
     4  C    0.078153
     5  C    0.114854
     6  C    0.153435
     7  N    0.213896
     8  O   -0.214287
     9  O   -0.215625
    10  N    0.220651
    11  O   -0.199965
    12  O   -0.205911
    13  N    0.236643
    14  O   -0.256374
    15  O   -0.190189
    16  O    0.074349
 Electronic spatial extent (au):  <R**2>=           3591.1568
 Charge=             -0.0000 electrons
 Dipole moment (field-independent basis, Debye):
    X=             -0.7550    Y=              1.3111    Z=              0.0204  Tot=              1.5130
 Quadrupole moment (field-independent basis, Debye-Ang):
   XX=           -103.9220   YY=           -104.2818   ZZ=            -88.4945
   XY=             -5.5188   XZ=              0.6040   YZ=             -0.2864
 Traceless Quadrupole moment (field-independent basis, Debye-Ang):
   XX=             -5.0226   YY=             -5.3824   ZZ=             10.4050
   XY=             -5.5188   XZ=              0.6040   YZ=             -0.2864
 Octapole moment (field-independent basis, Debye-Ang**2):
  XXX=            -75.2640  YYY=            -11.4930  ZZZ=             -0.0282  XYY=             24.9986
  XXY=             12.5893  XXZ=             -2.7204  XZZ=              4.5116  YZZ=             12.4906
  YYZ=              2.8719  XYZ=             -0.8953
 Hexadecapole moment (field-independent basis, Debye-Ang**3):
 XXXX=          -2357.4823 YYYY=          -2165.5794 ZZZZ=           -151.0227 XXXY=             -9.0512
 XXXZ=              2.2196 YYYX=            -24.8114 YYYZ=             -9.6602 ZZZX=              0.8933
 ZZZY=             -0.6331 XXYY=           -757.8778 XXZZ=           -366.1873 YYZZ=           -361.4549
 XXYZ=              7.1843 YYXZ=              1.8172 ZZXY=            -18.4435
 N-N= 1.099572114103D+03 E-N=-4.350300777549D+03  KE= 9.109011825324D+02
   1 Symmetry operations used in ECPInt.
 ECPInt:  NShTT=    5565 NPrTT=   21745 LenC2=    5134 LenP2D=   14215.
 LDataN:  DoStor=T MaxTD1= 5 Len=  102
 Calling FoFJK, ICntrl=      2127 FMM=F ISym2X=0 I1Cent= 0 IOpClX= 0 NMat=1 NMatS=1 NMatT=0.
 ***** Axes restored to original set *****
 -------------------------------------------------------------------
 Center     Atomic                   Forces (Hartrees/Bohr)
 Number     Number              X              Y              Z
 -------------------------------------------------------------------
      1        6          -0.019808586    0.015640946    0.002878772
      2        6           0.034510762   -0.045129017   -0.010843649
      3        6          -0.017003183    0.012585602    0.002271026
      4        6           0.006209515    0.003241082    0.001622426
      5        6          -0.001194404   -0.014234341   -0.004265790
      6        6           0.007068923   -0.011556257   -0.004338822
      7        7          -0.020690582    0.022217271    0.005206468
      8        8           0.035437729    0.002662526    0.006207788
      9        8          -0.010311052   -0.031932489   -0.013163739
     10        7           0.042293522    0.009078130    0.010355145
     11        8          -0.014313848    0.010222950   -0.034946774
     12        8          -0.019024322   -0.020590353    0.025198411
     13        7          -0.024251727   -0.008611768   -0.006276584
     14        8          -0.017596976    0.014350979    0.002438088
     15        8           0.044295482    0.001407278    0.006573840
     16        8          -0.017233839    0.034574074    0.010808106
     17        1           0.000235405   -0.000689616   -0.000340926
     18        1          -0.001565819    0.001772991    0.000069401
     19        1          -0.007057000    0.004990013    0.000546813
 -------------------------------------------------------------------
 Cartesian Forces:  Max     0.045129017 RMS     0.017927675

 GradGradGradGradGradGradGradGradGradGradGradGradGradGradGradGradGradGrad
 Berny optimization.
 FormGI is forming the generalized inverse of G from B-inverse, IUseBI=4.
 Internal  Forces:  Max     0.046667554 RMS     0.011906820
 Search for a local minimum.
 Step number   1 out of a maximum of   95
 All quantities printed in internal units (Hartrees-Bohrs-Radians)
 Mixed Optimization -- RFO/linear search
 Second derivative matrix not updated -- first step.
 ITU=  0
     Eigenvalues ---    0.00762   0.00762   0.00784   0.00784   0.01070
     Eigenvalues ---    0.01101   0.01625   0.01681   0.01791   0.01992
     Eigenvalues ---    0.02007   0.02063   0.02070   0.02091   0.02105
     Eigenvalues ---    0.02126   0.16000   0.16000   0.16000   0.23497
     Eigenvalues ---    0.23498   0.24998   0.25000   0.25000   0.25000
     Eigenvalues ---    0.25000   0.25000   0.25000   0.25000   0.25000
     Eigenvalues ---    0.25000   0.25000   0.34692   0.34853   0.35702
     Eigenvalues ---    0.35905   0.38644   0.41054   0.41700   0.44528
     Eigenvalues ---    0.45183   0.45365   0.45799   0.50811   0.51526
     Eigenvalues ---    0.87030   0.88148   0.88166   0.88212   0.88290
     Eigenvalues ---    0.88435
 RFO step:  Lambda=-1.95139682D-02 EMin= 7.61589257D-03
 Linear search not attempted -- first point.
 Iteration  1 RMS(Cart)=  0.05019527 RMS(Int)=  0.00203279
 Iteration  2 RMS(Cart)=  0.00191986 RMS(Int)=  0.00071861
 Iteration  3 RMS(Cart)=  0.00000450 RMS(Int)=  0.00071860
 Iteration  4 RMS(Cart)=  0.00000001 RMS(Int)=  0.00071860
 Variable       Old X    -DE/DX   Delta X   Delta X   Delta X     New X
                                 (Linear)    (Quad)   (Total)
    R1        2.64601   0.00023   0.00000   0.00158   0.00158   2.64759
    R2        2.64581  -0.01610   0.00000  -0.03373  -0.03371   2.61210
    R3        2.73439   0.00866   0.00000   0.02132   0.02132   2.75572
    R4        2.65443   0.00741   0.00000   0.01685   0.01682   2.67125
    R5        2.58356  -0.04667   0.00000  -0.08727  -0.08727   2.49630
    R6        2.66403  -0.01664   0.00000  -0.03628  -0.03630   2.62773
    R7        2.77531  -0.00801   0.00000  -0.02117  -0.02117   2.75415
    R8        2.65339  -0.01778   0.00000  -0.03906  -0.03905   2.61434
    R9        2.06178  -0.00010   0.00000  -0.00026  -0.00026   2.06152
   R10        2.64103  -0.00272   0.00000  -0.00668  -0.00664   2.63439
   R11        2.77850  -0.00843   0.00000  -0.02240  -0.02240   2.75610
   R12        2.05914   0.00099   0.00000   0.00269   0.00269   2.06183
   R13        2.33768  -0.03595   0.00000  -0.03987  -0.03987   2.29781
   R14        2.33790  -0.03584   0.00000  -0.03977  -0.03977   2.29813
   R15        2.33731  -0.03894   0.00000  -0.04315  -0.04315   2.29416
   R16        2.33798  -0.03768   0.00000  -0.04182  -0.04182   2.29616
   R17        2.34333  -0.02247   0.00000  -0.02526  -0.02526   2.31807
   R18        2.33663  -0.04479   0.00000  -0.04955  -0.04955   2.28708
   R19        1.85756  -0.00141   0.00000  -0.00266  -0.00266   1.85490
    A1        2.14333  -0.00122   0.00000  -0.00196  -0.00194   2.14139
    A2        2.08979  -0.00553   0.00000  -0.02181  -0.02182   2.06797
    A3        2.05007   0.00675   0.00000   0.02377   0.02376   2.07382
    A4        2.05618  -0.00510   0.00000  -0.01459  -0.01463   2.04154
    A5        2.05911  -0.00284   0.00000  -0.01270  -0.01268   2.04643
    A6        2.16786   0.00794   0.00000   0.02732   0.02734   2.19520
    A7        2.10701   0.00351   0.00000   0.01512   0.01505   2.12206
    A8        2.11064   0.00247   0.00000   0.00813   0.00816   2.11880
    A9        2.06554  -0.00599   0.00000  -0.02324  -0.02321   2.04232
   A10        2.08856  -0.00365   0.00000  -0.01727  -0.01729   2.07127
   A11        2.10075   0.00102   0.00000   0.00412   0.00413   2.10488
   A12        2.09388   0.00264   0.00000   0.01315   0.01316   2.10703
   A13        2.10609   0.00734   0.00000   0.02382   0.02386   2.12995
   A14        2.08990  -0.00440   0.00000  -0.01460  -0.01462   2.07528
   A15        2.08719  -0.00295   0.00000  -0.00922  -0.00924   2.07795
   A16        2.06519  -0.00089   0.00000  -0.00512  -0.00506   2.06013
   A17        2.09647   0.00263   0.00000   0.01475   0.01472   2.11119
   A18        2.12152  -0.00174   0.00000  -0.00962  -0.00965   2.11187
   A19        2.05031  -0.00180   0.00000  -0.00669  -0.00669   2.04362
   A20        2.04987  -0.00355   0.00000  -0.01315  -0.01316   2.03671
   A21        2.18301   0.00535   0.00000   0.01984   0.01984   2.20285
   A22        2.03945  -0.00120   0.00000  -0.00168  -0.00549   2.03396
   A23        2.03410   0.00034   0.00000   0.00403   0.00022   2.03432
   A24        2.20771   0.00115   0.00000   0.00704   0.00321   2.21092
   A25        2.04633   0.00545   0.00000   0.02023   0.02023   2.06656
   A26        2.05840  -0.00136   0.00000  -0.00505  -0.00505   2.05335
   A27        2.17846  -0.00409   0.00000  -0.01519  -0.01519   2.16326
   A28        1.94958  -0.01586   0.00000  -0.08833  -0.08833   1.86125
    D1       -0.00671   0.00001   0.00000   0.00044   0.00041  -0.00629
    D2        3.12481   0.00019   0.00000   0.00405   0.00399   3.12880
    D3        3.13473  -0.00003   0.00000  -0.00071  -0.00072   3.13401
    D4       -0.01693   0.00015   0.00000   0.00290   0.00285  -0.01408
    D5        0.00564   0.00016   0.00000   0.00376   0.00370   0.00933
    D6       -3.13656   0.00012   0.00000   0.00291   0.00286  -3.13371
    D7       -3.13581   0.00021   0.00000   0.00488   0.00484  -3.13097
    D8        0.00518   0.00017   0.00000   0.00403   0.00400   0.00917
    D9       -1.40765   0.00377   0.00000   0.12391   0.12374  -1.28391
   D10        1.79624  -0.00087   0.00000  -0.02805  -0.02787   1.76837
   D11        1.73380   0.00373   0.00000   0.12282   0.12265   1.85645
   D12       -1.34550  -0.00091   0.00000  -0.02913  -0.02896  -1.37446
   D13        0.00312  -0.00010   0.00000  -0.00257  -0.00257   0.00055
   D14       -3.14032  -0.00001   0.00000   0.00005   0.00010  -3.14022
   D15       -3.12771  -0.00022   0.00000  -0.00615  -0.00621  -3.13392
   D16        0.01204  -0.00013   0.00000  -0.00353  -0.00354   0.00850
   D17        3.11801   0.00031   0.00000   0.00713   0.00710   3.12511
   D18       -0.03436   0.00042   0.00000   0.01070   0.01073  -0.02363
   D19        0.00130   0.00001   0.00000   0.00048   0.00050   0.00180
   D20        3.14150   0.00001   0.00000   0.00053   0.00053  -3.14115
   D21       -3.13850  -0.00007   0.00000  -0.00211  -0.00209  -3.14059
   D22        0.00170  -0.00008   0.00000  -0.00206  -0.00205  -0.00035
   D23        0.01619  -0.00000   0.00000   0.00027   0.00028   0.01647
   D24       -3.12553  -0.00016   0.00000  -0.00556  -0.00556  -3.13108
   D25       -3.12720   0.00009   0.00000   0.00287   0.00287  -3.12434
   D26        0.01427  -0.00007   0.00000  -0.00296  -0.00297   0.01130
   D27       -0.00244   0.00014   0.00000   0.00379   0.00380   0.00137
   D28        3.14042   0.00003   0.00000   0.00065   0.00063   3.14105
   D29        3.14054   0.00014   0.00000   0.00375   0.00378  -3.13887
   D30        0.00021   0.00003   0.00000   0.00061   0.00060   0.00081
   D31       -0.00091  -0.00023   0.00000  -0.00581  -0.00585  -0.00676
   D32        3.14130  -0.00019   0.00000  -0.00495  -0.00502   3.13628
   D33        3.13942  -0.00012   0.00000  -0.00268  -0.00267   3.13675
   D34       -0.00155  -0.00008   0.00000  -0.00182  -0.00184  -0.00339
   D35       -0.03100   0.00013   0.00000   0.00407   0.00406  -0.02694
   D36        3.10967   0.00023   0.00000   0.00807   0.00806   3.11773
   D37        3.11184   0.00001   0.00000   0.00094   0.00095   3.11280
   D38       -0.03067   0.00012   0.00000   0.00494   0.00495  -0.02572
         Item               Value     Threshold  Converged?
 Maximum Force            0.046668     0.000450     NO 
 RMS     Force            0.011907     0.000300     NO 
 Maximum Displacement     0.191096     0.001800     NO 
 RMS     Displacement     0.049940     0.001200     NO 
 Predicted change in Energy=-1.043868D-02
 GradGradGradGradGradGradGradGradGradGradGradGradGradGradGradGradGradGrad

                          Input orientation:                          
 ---------------------------------------------------------------------
 Center     Atomic      Atomic             Coordinates (Angstroms)
 Number     Number       Type             X           Y           Z
 ---------------------------------------------------------------------
      1          6           0        1.275551    0.336996    0.271073
      2          6           0        0.841068   -0.907454   -0.203784
      3          6           0       -0.546667   -1.060279   -0.425137
      4          6           0       -1.441227   -0.023426   -0.183716
      5          6           0       -0.949327    1.182769    0.282172
      6          6           0        0.410122    1.387199    0.513487
      7          7           0       -1.883074    2.273915    0.536418
      8          8           0       -3.056324    2.066691    0.293368
      9          8           0       -1.410685    3.307530    0.969347
     10          7           0        2.699673    0.527800    0.520072
     11          8           0        3.156615   -0.019538    1.502653
     12          8           0        3.322560    1.136465   -0.327246
     13          7           0       -1.103642   -2.314296   -0.916387
     14          8           0       -0.339508   -3.251956   -1.120384
     15          8           0       -2.299894   -2.366738   -1.092414
     16          8           0        1.762613   -1.830663   -0.412198
     17          1           0       -2.509251   -0.159136   -0.359750
     18          1           0        0.780261    2.347242    0.876471
     19          1           0        1.291136   -2.633120   -0.724046
 ---------------------------------------------------------------------
                    Distance matrix (angstroms):
                    1          2          3          4          5
     1  C    0.000000
     2  C    1.401043   0.000000
     3  C    2.399493   1.413564   0.000000
     4  C    2.778061   2.447607   1.390534   0.000000
     5  C    2.380239   2.794763   2.386145   1.383447   0.000000
     6  C    1.382266   2.442463   2.790450   2.429701   1.394058
     7  N    3.714697   4.253229   3.718524   2.447774   1.458466
     8  O    4.664493   4.927715   4.073398   2.684165   2.284925
     9  O    4.065406   4.920642   4.665712   3.525019   2.280278
    10  N    1.458262   2.457302   3.735524   4.236298   3.714940
    11  O    2.276468   3.010328   4.302768   4.897346   4.449030
    12  O    2.277582   3.217242   4.450414   4.905060   4.315385
    13  N    3.754993   2.503778   1.457431   2.428756   3.699976
    14  O    4.174344   2.780397   2.308621   3.537589   4.691037
    15  O    4.685412   3.575586   2.286022   2.655965   4.038876
    16  O    2.324400   1.320983   2.434427   3.685499   4.113094
    17  H    3.868955   3.436415   2.160572   1.090909   2.155491
    18  H    2.157060   3.429825   3.881511   3.417466   2.168101
    19  H    3.132426   1.857729   2.437354   3.816840   4.537968
                    6          7          8          9         10
     6  C    0.000000
     7  N    2.458768   0.000000
     8  O    3.539267   1.215949   0.000000
     9  O    2.685296   1.216117   2.169046   0.000000
    10  N    2.445537   4.904156   5.962473   4.982347   0.000000
    11  O    3.240460   5.620676   6.664483   5.675739   1.214018
    12  O    3.041709   5.397993   6.476160   5.366403   1.215075
    13  N    4.247009   4.875432   4.946668   5.937609   4.960456
    14  O    4.975263   5.971837   6.137410   6.967156   5.119988
    15  O    4.900525   4.935838   4.706153   6.102366   5.997844
    16  O    3.611199   5.571218   6.237736   6.195120   2.703620
    17  H    3.417080   2.667387   2.383309   3.871837   5.327181
    18  H    1.091075   2.685957   3.890772   2.393956   2.668619
    19  H    4.297748   5.978576   6.482574   6.742310   3.677393
                   11         12         13         14         15
    11  O    0.000000
    12  O    2.170808   0.000000
    13  N    5.409940   5.643235   0.000000
    14  O    5.436150   5.770446   1.226671   0.000000
    15  O    6.482068   6.668576   1.210271   2.151164   0.000000
    16  O    2.981622   3.353282   2.950174   2.634486   4.153797
    17  H    5.965741   5.974082   2.632545   3.853814   2.335408
    18  H    3.411862   3.062384   5.337918   6.049160   5.965356
    19  H    3.907558   4.300454   2.423552   1.788587   3.619689
                   16         17         18         19
    16  O    0.000000
    17  H    4.587546   0.000000
    18  H    4.481136   4.316372   0.000000
    19  H    0.981568   4.549313   5.256107   0.000000
 Stoichiometry    C6H3N3O7
 Framework group  C1[X(C6H3N3O7)]
 Deg. of freedom    51
 Full point group                 C1      NOp   1
 Largest Abelian subgroup         C1      NOp   1
 Largest concise Abelian subgroup C1      NOp   1
                         Standard orientation:                         
 ---------------------------------------------------------------------
 Center     Atomic      Atomic             Coordinates (Angstroms)
 Number     Number       Type             X           Y           Z
 ---------------------------------------------------------------------
      1          6           0       -0.757985   -1.068069    0.001300
      2          6           0       -1.208997    0.258330   -0.011903
      3          6           0       -0.222685    1.270925   -0.010007
      4          6           0        1.133973    0.966165    0.003654
      5          6           0        1.515575   -0.363575    0.013416
      6          6           0        0.583716   -1.400403    0.008345
      7          7           0        2.937223   -0.688929    0.027062
      8          8           0        3.718677    0.242266   -0.000049
      9          8           0        3.227197   -1.869474    0.061236
     10          7           0       -1.747578   -2.139128    0.009496
     11          8           0       -2.343296   -2.319237    1.051859
     12          8           0       -1.957605   -2.692857   -1.051486
     13          7           0       -0.583969    2.682821   -0.021284
     14          8           0       -1.773897    2.980734   -0.014824
     15          8           0        0.315419    3.492621   -0.030150
     16          8           0       -2.515419    0.452822   -0.032637
     17          1           0        1.881610    1.760594    0.005333
     18          1           0        0.903624   -2.443521    0.011247
     19          1           0       -2.655166    1.424352   -0.023914
 ---------------------------------------------------------------------
 Rotational constants (GHZ):           0.5693287           0.5169796           0.2816684
 Standard basis: def2SVP (5D, 7F)
 There are   255 symmetry adapted cartesian basis functions of A   symmetry.
 There are   239 symmetry adapted basis functions of A   symmetry.
   239 basis functions,   421 primitive gaussians,   255 cartesian basis functions
    58 alpha electrons       58 beta electrons
       nuclear repulsion energy      1111.1222151016 Hartrees.
 NAtoms=   19 NActive=   19 NUniq=   19 SFac= 1.00D+00 NAtFMM=   60 NAOKFM=F Big=F
 Integral buffers will be    131072 words long.
 Raffenetti 2 integral format.
 Two-electron integral symmetry is turned on.
 One-electron integrals computed using PRISM.
   1 Symmetry operations used in ECPInt.
 ECPInt:  NShTT=    5565 NPrTT=   21745 LenC2=    5151 LenP2D=   14277.
 LDataN:  DoStor=T MaxTD1= 4 Len=   56
 NBasis=   239 RedAO= T EigKep=  1.77D-04  NBF=   239
 NBsUse=   239 1.00D-06 EigRej= -1.00D+00 NBFU=   239
 Initial guess from the checkpoint file:  "pka_scale_frag1_pka_HA_opt.chk"
 B after Tr=    -0.000000    0.000000    0.000000
         Rot=    0.995027    0.001527    0.001216    0.099591 Ang=  11.43 deg.
 ExpMin= 1.22D-01 ExpMax= 2.27D+03 ExpMxC= 3.41D+02 IAcc=3 IRadAn=         5 AccDes= 0.00D+00
 Harris functional with IExCor= 1009 and IRadAn=       5 diagonalized for initial guess.
 HarFok:  IExCor= 1009 AccDes= 0.00D+00 IRadAn=         5 IDoV= 1 UseB2=F ITyADJ=14
 ICtDFT=  3500011 ScaDFX=  1.000000  1.000000  1.000000  1.000000
 FoFCou: FMM=F IPFlag=           0 FMFlag=      100000 FMFlg1=           0
         NFxFlg=           0 DoJE=T BraDBF=F KetDBF=T FulRan=T
         wScrn=  0.000000 ICntrl=       500 IOpCl=  0 I1Cent=   200000004 NGrid=           0
         NMat0=    1 NMatS0=      1 NMatT0=    0 NMatD0=    1 NMtDS0=    0 NMtDT0=    0
 Petite list used in FoFCou.
 Requested convergence on RMS density matrix=1.00D-08 within 128 cycles.
 Requested convergence on MAX density matrix=1.00D-06.
 Requested convergence on             energy=1.00D-06.
 No special actions if energy rises.
 Integral accuracy reduced to 1.0D-05 until final iterations.
 Initial convergence to 1.0D-05 achieved.  Increase integral accuracy.
 SCF Done:  E(RMN15) =  -919.229213611     A.U. after   16 cycles
            NFock= 16  Conv=0.82D-08     -V/T= 2.0084
    1 Symmetry operations used in ECPInt.  ECPInt:  NShTT=    5565 NPrTT=   21745 LenC2=    5151 LenP2D=   14277.
 LDataN:  DoStor=T MaxTD1= 5 Len=  102  Calling FoFJK, ICntrl=      2127 FMM=F ISym2X=0 I1Cent= 0 IOpClX= 0 NMat=1 NMatS=1 NMatT=0.  ***** Axes restored to original set *****
 -------------------------------------------------------------------
 Center     Atomic                   Forces (Hartrees/Bohr)
 Number     Number              X              Y              Z
 -------------------------------------------------------------------
      1        6          -0.011070538    0.014919013    0.005209676
      2        6           0.009260270   -0.010037789   -0.001212901
      3        6           0.000540343    0.002258861    0.000670459
      4        6          -0.001438901    0.002612238    0.000565518
      5        6           0.000648083   -0.003446974   -0.000675023
      6        6           0.004634212   -0.001720496   -0.001298963
      7        7          -0.004803737    0.005308174    0.000657910
      8        8           0.003357975    0.001893666    0.001456506
      9        8          -0.002559136   -0.001762433   -0.000880692
     10        7           0.015253753   -0.014225095   -0.007049882
     11        8          -0.003957479    0.004814934   -0.001066267
     12        8          -0.004510760    0.003875512    0.005668260
     13        7          -0.010392636   -0.001793547   -0.001256357
     14        8           0.008347393    0.002802737    0.001600431
     15        8           0.004642311   -0.000182336    0.000324425
     16        8          -0.007532269    0.001468658    0.000212425
     17        1           0.000864364   -0.000083908    0.000016274
     18        1          -0.001591521    0.000415650   -0.000288686
     19        1           0.000308275   -0.007116864   -0.002653113
 -------------------------------------------------------------------
 Cartesian Forces:  Max     0.015253753 RMS     0.005331723

 GradGradGradGradGradGradGradGradGradGradGradGradGradGradGradGradGradGrad
 Berny optimization.
 Using GEDIIS/GDIIS optimizer.
 FormGI is forming the generalized inverse of G from B-inverse, IUseBI=4.
 Internal  Forces:  Max     0.015419625 RMS     0.004003245
 Search for a local minimum.
 Step number   2 out of a maximum of   95
 All quantities printed in internal units (Hartrees-Bohrs-Radians)
 Mixed Optimization -- RFO/linear search
 Update second derivatives using D2CorX and points    1    2
 DE= -8.96D-03 DEPred=-1.04D-02 R= 8.58D-01
 TightC=F SS=  1.41D+00  RLast= 2.64D-01 DXNew= 5.0454D-01 7.9130D-01
 Trust test= 8.58D-01 RLast= 2.64D-01 DXMaxT set to 5.05D-01
 ITU=  1  0
 Use linear search instead of GDIIS.
     Eigenvalues ---    0.00761   0.00762   0.00784   0.00784   0.01046
     Eigenvalues ---    0.01364   0.01633   0.01690   0.01790   0.01992
     Eigenvalues ---    0.02007   0.02063   0.02070   0.02092   0.02105
     Eigenvalues ---    0.02126   0.15863   0.16000   0.16603   0.22133
     Eigenvalues ---    0.23510   0.24168   0.25000   0.25000   0.25000
     Eigenvalues ---    0.25000   0.25000   0.25000   0.25000   0.25000
     Eigenvalues ---    0.25000   0.27648   0.34686   0.34855   0.35561
     Eigenvalues ---    0.36289   0.38188   0.41010   0.41874   0.44580
     Eigenvalues ---    0.44939   0.45590   0.46523   0.50031   0.54869
     Eigenvalues ---    0.79988   0.87658   0.88176   0.88218   0.88273
     Eigenvalues ---    0.88384
 RFO step:  Lambda=-8.77228396D-03 EMin= 7.61481601D-03
 Quartic linear search produced a step of -0.09471.
 Iteration  1 RMS(Cart)=  0.05032366 RMS(Int)=  0.01785858
 Iteration  2 RMS(Cart)=  0.02246404 RMS(Int)=  0.00616389
 Iteration  3 RMS(Cart)=  0.00119481 RMS(Int)=  0.00604601
 Iteration  4 RMS(Cart)=  0.00002288 RMS(Int)=  0.00604599
 Iteration  5 RMS(Cart)=  0.00000085 RMS(Int)=  0.00604599
 Variable       Old X    -DE/DX   Delta X   Delta X   Delta X     New X
                                 (Linear)    (Quad)   (Total)
    R1        2.64759   0.00707  -0.00015   0.01498   0.01484   2.66242
    R2        2.61210  -0.00017   0.00319  -0.02088  -0.01770   2.59441
    R3        2.75572   0.00548  -0.00202   0.02582   0.02380   2.77951
    R4        2.67125  -0.00374  -0.00159   0.00268   0.00111   2.67236
    R5        2.49630  -0.00071   0.00827  -0.05478  -0.04651   2.44978
    R6        2.62773   0.00305   0.00344  -0.01615  -0.01270   2.61503
    R7        2.75415  -0.00193   0.00200  -0.01778  -0.01578   2.73837
    R8        2.61434   0.00102   0.00370  -0.02191  -0.01822   2.59612
    R9        2.06152  -0.00084   0.00003  -0.00233  -0.00230   2.05922
   R10        2.63439   0.00324   0.00063   0.00240   0.00300   2.63739
   R11        2.75610   0.00685   0.00212   0.00349   0.00561   2.76172
   R12        2.06183  -0.00027  -0.00025   0.00095   0.00070   2.06253
   R13        2.29781  -0.00385   0.00378  -0.02848  -0.02470   2.27311
   R14        2.29813  -0.00281   0.00377  -0.02735  -0.02358   2.27455
   R15        2.29416  -0.00452   0.00409  -0.03119  -0.02710   2.26706
   R16        2.29616  -0.00432   0.00396  -0.03017  -0.02621   2.26995
   R17        2.31807   0.00279   0.00239  -0.01260  -0.01021   2.30786
   R18        2.28708  -0.00463   0.00469  -0.03522  -0.03053   2.25655
   R19        1.85490   0.00651   0.00025   0.00994   0.01019   1.86509
    A1        2.14139   0.00102   0.00018   0.00273   0.00291   2.14430
    A2        2.06797  -0.00505   0.00207  -0.03140  -0.02933   2.03864
    A3        2.07382   0.00403  -0.00225   0.02867   0.02642   2.10025
    A4        2.04154  -0.00375   0.00139  -0.02246  -0.02104   2.02050
    A5        2.04643   0.01005   0.00120   0.02804   0.02922   2.07565
    A6        2.19520  -0.00629  -0.00259  -0.00556  -0.00817   2.18702
    A7        2.12206   0.00440  -0.00143   0.02436   0.02297   2.14503
    A8        2.11880  -0.01542  -0.00077  -0.04955  -0.05034   2.06846
    A9        2.04232   0.01102   0.00220   0.02520   0.02738   2.06970
   A10        2.07127  -0.00108   0.00164  -0.01516  -0.01352   2.05775
   A11        2.10488   0.00031  -0.00039   0.00358   0.00319   2.10807
   A12        2.10703   0.00077  -0.00125   0.01157   0.01033   2.11736
   A13        2.12995  -0.00135  -0.00226   0.00999   0.00769   2.13764
   A14        2.07528   0.00112   0.00138  -0.00506  -0.00366   2.07162
   A15        2.07795   0.00023   0.00088  -0.00494  -0.00404   2.07391
   A16        2.06013   0.00076   0.00048   0.00050   0.00094   2.06107
   A17        2.11119   0.00131  -0.00139   0.01634   0.01497   2.12616
   A18        2.11187  -0.00207   0.00091  -0.01684  -0.01591   2.09596
   A19        2.04362   0.00096   0.00063  -0.00064  -0.00008   2.04354
   A20        2.03671   0.00136   0.00125  -0.00319  -0.00201   2.03470
   A21        2.20285  -0.00232  -0.00188   0.00389   0.00195   2.20480
   A22        2.03396  -0.00121   0.00052   0.00434  -0.02584   2.00812
   A23        2.03432  -0.00019  -0.00002   0.01143  -0.01927   2.01505
   A24        2.21092   0.00238  -0.00030   0.02245  -0.01096   2.19995
   A25        2.06656  -0.01349  -0.00192  -0.03550  -0.03759   2.02896
   A26        2.05335   0.00729   0.00048   0.02288   0.02319   2.07654
   A27        2.16326   0.00620   0.00144   0.01280   0.01407   2.17733
   A28        1.86125   0.00725   0.00837  -0.01419  -0.00582   1.85543
    D1       -0.00629   0.00003  -0.00004   0.00090   0.00083  -0.00546
    D2        3.12880   0.00001  -0.00038   0.00327   0.00289   3.13169
    D3        3.13401   0.00011   0.00007   0.00290   0.00290   3.13691
    D4       -0.01408   0.00009  -0.00027   0.00526   0.00496  -0.00912
    D5        0.00933   0.00008  -0.00035   0.00487   0.00450   0.01383
    D6       -3.13371   0.00011  -0.00027   0.00523   0.00495  -3.12876
    D7       -3.13097   0.00001  -0.00046   0.00292   0.00240  -3.12857
    D8        0.00917   0.00004  -0.00038   0.00327   0.00285   0.01203
    D9       -1.28391  -0.00418  -0.01172  -0.12262  -0.12872  -1.41262
   D10        1.76837   0.00694   0.00264   0.30595   0.30297   2.07134
   D11        1.85645  -0.00410  -0.01162  -0.12073  -0.12672   1.72973
   D12       -1.37446   0.00702   0.00274   0.30785   0.30497  -1.06950
   D13        0.00055  -0.00010   0.00024  -0.00458  -0.00435  -0.00380
   D14       -3.14022  -0.00008  -0.00001  -0.00232  -0.00237   3.14060
   D15       -3.13392  -0.00015   0.00059  -0.00730  -0.00671  -3.14063
   D16        0.00850  -0.00013   0.00034  -0.00504  -0.00472   0.00378
   D17        3.12511   0.00029  -0.00067   0.01275   0.01206   3.13717
   D18       -0.02363   0.00029  -0.00102   0.01529   0.01429  -0.00933
   D19        0.00180   0.00005  -0.00005   0.00226   0.00224   0.00404
   D20       -3.14115   0.00002  -0.00005   0.00094   0.00093  -3.14022
   D21       -3.14059   0.00002   0.00020   0.00006   0.00022  -3.14037
   D22       -0.00035  -0.00001   0.00019  -0.00126  -0.00110  -0.00144
   D23        0.01647  -0.00045  -0.00003  -0.02480  -0.02482  -0.00835
   D24       -3.13108   0.00019   0.00053   0.00786   0.00840  -3.12269
   D25       -3.12434  -0.00043  -0.00027  -0.02264  -0.02292   3.13593
   D26        0.01130   0.00021   0.00028   0.01002   0.01029   0.02159
   D27        0.00137   0.00005  -0.00036   0.00389   0.00354   0.00491
   D28        3.14105  -0.00001  -0.00006  -0.00034  -0.00040   3.14064
   D29       -3.13887   0.00009  -0.00036   0.00521   0.00487  -3.13400
   D30        0.00081   0.00002  -0.00006   0.00099   0.00093   0.00173
   D31       -0.00676  -0.00012   0.00055  -0.00738  -0.00684  -0.01360
   D32        3.13628  -0.00015   0.00048  -0.00776  -0.00731   3.12897
   D33        3.13675  -0.00005   0.00025  -0.00315  -0.00289   3.13386
   D34       -0.00339  -0.00009   0.00017  -0.00353  -0.00336  -0.00676
   D35       -0.02694   0.00032  -0.00038   0.01950   0.01912  -0.00782
   D36        3.11773  -0.00007  -0.00076  -0.00045  -0.00122   3.11652
   D37        3.11280   0.00026  -0.00009   0.01542   0.01534   3.12813
   D38       -0.02572  -0.00014  -0.00047  -0.00453  -0.00500  -0.03071
         Item               Value     Threshold  Converged?
 Maximum Force            0.015420     0.000450     NO 
 RMS     Force            0.004003     0.000300     NO 
 Maximum Displacement     0.309305     0.001800     NO 
 RMS     Displacement     0.064377     0.001200     NO 
 Predicted change in Energy=-5.486959D-03
 GradGradGradGradGradGradGradGradGradGradGradGradGradGradGradGradGradGrad

                          Input orientation:                          
 ---------------------------------------------------------------------
 Center     Atomic      Atomic             Coordinates (Angstroms)
 Number     Number       Type             X           Y           Z
 ---------------------------------------------------------------------
      1          6           0        1.277707    0.316035    0.246129
      2          6           0        0.830269   -0.936457   -0.218680
      3          6           0       -0.564324   -1.054639   -0.421080
      4          6           0       -1.449432   -0.018787   -0.179132
      5          6           0       -0.936434    1.172770    0.272937
      6          6           0        0.428914    1.368045    0.486304
      7          7           0       -1.855540    2.278860    0.532953
      8          8           0       -3.023636    2.080772    0.325046
      9          8           0       -1.368627    3.296264    0.953133
     10          7           0        2.723996    0.462290    0.470339
     11          8           0        3.124234    0.019059    1.510809
     12          8           0        3.267736    1.300142   -0.196929
     13          7           0       -1.089274   -2.317622   -0.899768
     14          8           0       -0.270274   -3.200013   -1.104998
     15          8           0       -2.263289   -2.420460   -1.092188
     16          8           0        1.700235   -1.873899   -0.430667
     17          1           0       -2.518474   -0.148266   -0.345891
     18          1           0        0.795429    2.335109    0.835160
     19          1           0        1.190783   -2.659203   -0.743478
 ---------------------------------------------------------------------
                    Distance matrix (angstroms):
                    1          2          3          4          5
     1  C    0.000000
     2  C    1.408894   0.000000
     3  C    2.391023   1.414152   0.000000
     4  C    2.780331   2.457788   1.383815   0.000000
     5  C    2.374264   2.794953   2.362514   1.373806   0.000000
     6  C    1.372901   2.443116   2.771148   2.427816   1.395647
     7  N    3.708393   4.256382   3.699950   2.439502   1.461437
     8  O    4.649954   4.924621   4.054098   2.672164   2.276751
     9  O    4.047802   4.911641   4.633111   3.504014   2.271274
    10  N    1.470855   2.453047   3.729444   4.250971   3.733965
    11  O    2.257715   3.027609   4.300057   4.876040   4.399137
    12  O    2.263843   3.308185   4.503323   4.898118   4.232262
    13  N    3.721804   2.460924   1.449083   2.435913   3.685299
    14  O    4.072393   2.668416   2.270868   3.516794   4.632894
    15  O    4.670990   3.540535   2.280863   2.695193   4.066376
    16  O    2.330749   1.296370   2.408217   3.664030   4.090143
    17  H    3.870020   3.442603   2.155427   1.089690   2.151961
    18  H    2.157825   3.437286   3.862312   3.407201   2.160203
    19  H    3.136705   1.836638   2.399786   3.776377   4.499130
                    6          7          8          9         10
     6  C    0.000000
     7  N    2.459774   0.000000
     8  O    3.529034   1.202877   0.000000
     9  O    2.677146   1.203639   2.147317   0.000000
    10  N    2.467397   4.927068   5.972928   5.001406   0.000000
    11  O    3.183415   5.555273   6.591889   5.588996   1.199677
    12  O    2.920672   5.266742   6.361069   5.177162   1.201205
    13  N    4.220217   4.875192   4.958608   5.918361   4.913872
    14  O    4.887562   5.934139   6.124763   6.902456   4.985961
    15  O    4.908397   4.989083   4.779934   6.137157   5.968647
    16  O    3.601013   5.551351   6.206889   6.169554   2.705121
    17  H    3.417432   2.665106   2.382006   3.856734   5.340646
    18  H    1.091443   2.668732   3.861368   2.370839   2.712916
    19  H    4.279198   5.940861   6.431985   6.700497   3.683451
                   11         12         13         14         15
    11  O    0.000000
    12  O    2.139658   0.000000
    13  N    5.387450   5.706639   0.000000
    14  O    5.359810   5.795990   1.221268   0.000000
    15  O    6.461598   6.725816   1.194115   2.140088   0.000000
    16  O    3.062743   3.547707   2.863269   2.469050   4.055349
    17  H    5.942684   5.966599   2.656219   3.865723   2.405192
    18  H    3.353196   2.872048   5.311307   5.961335   5.973765
    19  H    3.999141   4.504316   2.310794   1.599331   3.479829
                   16         17         18         19
    16  O    0.000000
    17  H    4.558783   0.000000
    18  H    4.487398   4.306273   0.000000
    19  H    0.986962   4.496829   5.252766   0.000000
 Stoichiometry    C6H3N3O7
 Framework group  C1[X(C6H3N3O7)]
 Deg. of freedom    51
 Full point group                 C1      NOp   1
 Largest Abelian subgroup         C1      NOp   1
 Largest concise Abelian subgroup C1      NOp   1
                         Standard orientation:                         
 ---------------------------------------------------------------------
 Center     Atomic      Atomic             Coordinates (Angstroms)
 Number     Number       Type             X           Y           Z
 ---------------------------------------------------------------------
      1          6           0       -0.601962   -1.146748   -0.019126
      2          6           0       -1.249133    0.104706   -0.023024
      3          6           0       -0.400347    1.235747   -0.011480
      4          6           0        0.979991    1.139508    0.007220
      5          6           0        1.536870   -0.116366    0.009815
      6          6           0        0.764565   -1.278660   -0.011369
      7          7           0        2.993103   -0.238209    0.028243
      8          8           0        3.628197    0.783337    0.031857
      9          8           0        3.439736   -1.355547    0.056912
     10          7           0       -1.463352   -2.338969   -0.024802
     11          8           0       -1.906473   -2.650735    1.045558
     12          8           0       -1.337754   -3.062098   -0.975698
     13          7           0       -1.003500    2.553331   -0.016025
     14          8           0       -2.224045    2.588602   -0.038905
     15          8           0       -0.294471    3.514104   -0.026105
     16          8           0       -2.544876    0.140487   -0.041602
     17          1           0        1.601369    2.034616    0.016956
     18          1           0        1.248322   -2.256998   -0.020352
     19          1           0       -2.795866    1.094990   -0.036873
 ---------------------------------------------------------------------
 Rotational constants (GHZ):           0.5690076           0.5280393           0.2840016
 Standard basis: def2SVP (5D, 7F)
 There are   255 symmetry adapted cartesian basis functions of A   symmetry.
 There are   239 symmetry adapted basis functions of A   symmetry.
   239 basis functions,   421 primitive gaussians,   255 cartesian basis functions
    58 alpha electrons       58 beta electrons
       nuclear repulsion energy      1117.5825399078 Hartrees.
 NAtoms=   19 NActive=   19 NUniq=   19 SFac= 1.00D+00 NAtFMM=   60 NAOKFM=F Big=F
 Integral buffers will be    131072 words long.
 Raffenetti 2 integral format.
 Two-electron integral symmetry is turned on.
 One-electron integrals computed using PRISM.
   1 Symmetry operations used in ECPInt.
 ECPInt:  NShTT=    5565 NPrTT=   21745 LenC2=    5160 LenP2D=   14311.
 LDataN:  DoStor=T MaxTD1= 4 Len=   56
 NBasis=   239 RedAO= T EigKep=  1.85D-04  NBF=   239
 NBsUse=   239 1.00D-06 EigRej= -1.00D+00 NBFU=   239
 Initial guess from the checkpoint file:  "pka_scale_frag1_pka_HA_opt.chk"
 B after Tr=    -0.000000   -0.000000   -0.000000
         Rot=    0.996804    0.001950    0.002000   -0.079834 Ang=   9.16 deg.  ExpMin= 1.22D-01 ExpMax= 2.27D+03 ExpMxC= 3.41D+02 IAcc=3 IRadAn=         5 AccDes= 0.00D+00
 Harris functional with IExCor= 1009 and IRadAn=       5 diagonalized for initial guess.
 HarFok:  IExCor= 1009 AccDes= 0.00D+00 IRadAn=         5 IDoV= 1 UseB2=F ITyADJ=14
 ICtDFT=  3500011 ScaDFX=  1.000000  1.000000  1.000000  1.000000  FoFCou: FMM=F IPFlag=           0 FMFlag=      100000 FMFlg1=           0
         NFxFlg=           0 DoJE=T BraDBF=F KetDBF=T FulRan=T
         wScrn=  0.000000 ICntrl=       500 IOpCl=  0 I1Cent=   200000004 NGrid=           0
         NMat0=    1 NMatS0=      1 NMatT0=    0 NMatD0=    1 NMtDS0=    0 NMtDT0=    0
 Petite list used in FoFCou.  Requested convergence on RMS density matrix=1.00D-08 within 128 cycles.
 Requested convergence on MAX density matrix=1.00D-06.
 Requested convergence on             energy=1.00D-06.
 No special actions if energy rises.
 Integral accuracy reduced to 1.0D-05 until final iterations.  Initial convergence to 1.0D-05 achieved.  Increase integral accuracy.  SCF Done:  E(RMN15) =  -919.222547346     A.U. after   19 cycles
            NFock= 19  Conv=0.23D-08     -V/T= 2.0080
   1 Symmetry operations used in ECPInt.
 ECPInt:  NShTT=    5565 NPrTT=   21745 LenC2=    5160 LenP2D=   14311.
 LDataN:  DoStor=T MaxTD1= 5 Len=  102
 Calling FoFJK, ICntrl=      2127 FMM=F ISym2X=0 I1Cent= 0 IOpClX= 0 NMat=1 NMatS=1 NMatT=0.
 ***** Axes restored to original set *****
 -------------------------------------------------------------------
 Center     Atomic                   Forces (Hartrees/Bohr)
 Number     Number              X              Y              Z
 -------------------------------------------------------------------
      1        6           0.000464842   -0.015116700   -0.011389516
      2        6          -0.008294383    0.012123200    0.005364498
      3        6           0.005076037   -0.005593944    0.000357756
      4        6          -0.005170535   -0.000982975   -0.001103552
      5        6           0.001402242    0.003220158    0.001156140
      6        6           0.003533474    0.004841005    0.000403459
      7        7           0.007234232   -0.007928729    0.000887034
      8        8          -0.017718766   -0.001950975   -0.003822564
      9        8           0.006158530    0.016714406    0.005560981
     10        7          -0.028579824    0.038449384    0.023635263
     11        8           0.013953744   -0.027455174    0.011565375
     12        8           0.015868978    0.003653474   -0.024416471
     13        7           0.003236993    0.014939882    0.000944478
     14        8           0.006839439   -0.019969659   -0.004324509
     15        8          -0.018267685   -0.003389046   -0.001794221
     16        8           0.015416080   -0.003835503    0.000522941
     17        1          -0.000281952   -0.000023759   -0.000014159
     18        1          -0.000147359   -0.000108150   -0.000650677
     19        1          -0.000724086   -0.007586894   -0.002882257
 -------------------------------------------------------------------
 Cartesian Forces:  Max     0.038449384 RMS     0.011622450

 GradGradGradGradGradGradGradGradGradGradGradGradGradGradGradGradGradGrad
 Berny optimization.
 Using GEDIIS/GDIIS optimizer.
 FormGI is forming the generalized inverse of G from B-inverse, IUseBI=4.
 Internal  Forces:  Max     0.024830478 RMS     0.008530287
 Search for a local minimum.
 Step number   3 out of a maximum of   95
 All quantities printed in internal units (Hartrees-Bohrs-Radians)
 Mixed Optimization -- RFO/linear search
 Update second derivatives using D2CorX and points    1    3    2
 DE=  6.67D-03 DEPred=-5.49D-03 R=-1.21D+00
 Trust test=-1.21D+00 RLast= 4.89D-01 DXMaxT set to 2.52D-01
 ITU= -1  1  0
 Use linear search instead of GDIIS.
     Eigenvalues ---    0.00761   0.00765   0.00784   0.00794   0.00993
     Eigenvalues ---    0.01641   0.01694   0.01791   0.01992   0.02007
     Eigenvalues ---    0.02064   0.02070   0.02091   0.02104   0.02124
     Eigenvalues ---    0.06719   0.15797   0.16000   0.16464   0.23129
     Eigenvalues ---    0.23585   0.23725   0.24999   0.25000   0.25000
     Eigenvalues ---    0.25000   0.25000   0.25000   0.25000   0.25000
     Eigenvalues ---    0.25164   0.30363   0.34681   0.34854   0.35363
     Eigenvalues ---    0.36541   0.38531   0.41254   0.42587   0.44778
     Eigenvalues ---    0.45032   0.45769   0.46216   0.50030   0.52841
     Eigenvalues ---    0.84551   0.88086   0.88174   0.88232   0.88275
     Eigenvalues ---    0.90156
 RFO step:  Lambda=-3.50900102D-03 EMin= 7.61379131D-03
 Quartic linear search produced a step of -0.70053.
 Iteration  1 RMS(Cart)=  0.04670018 RMS(Int)=  0.01427772
 Iteration  2 RMS(Cart)=  0.01868773 RMS(Int)=  0.00089464
 Iteration  3 RMS(Cart)=  0.00075793 RMS(Int)=  0.00041266
 Iteration  4 RMS(Cart)=  0.00000089 RMS(Int)=  0.00041266
 Variable       Old X    -DE/DX   Delta X   Delta X   Delta X     New X
                                 (Linear)    (Quad)   (Total)
    R1        2.66242   0.00547  -0.01039   0.01944   0.00904   2.67146
    R2        2.59441   0.00347   0.01240  -0.00258   0.00983   2.60424
    R3        2.77951   0.00432  -0.01667   0.02041   0.00374   2.78326
    R4        2.67236   0.01028  -0.00078   0.00090   0.00011   2.67247
    R5        2.44978   0.01851   0.03258  -0.00196   0.03062   2.48041
    R6        2.61503   0.01059   0.00890   0.00947   0.01835   2.63338
    R7        2.73837   0.01201   0.01105   0.00189   0.01294   2.75131
    R8        2.59612   0.00866   0.01276   0.00289   0.01566   2.61177
    R9        2.05922   0.00028   0.00161  -0.00221  -0.00059   2.05862
   R10        2.63739   0.00171  -0.00210   0.00720   0.00512   2.64251
   R11        2.76172   0.00836  -0.00393   0.02325   0.01932   2.78104
   R12        2.06253  -0.00035  -0.00049  -0.00072  -0.00121   2.06132
   R13        2.27311   0.01819   0.01730  -0.00328   0.01403   2.28713
   R14        2.27455   0.01856   0.01652  -0.00195   0.01457   2.28912
   R15        2.26706   0.02483   0.01899  -0.00219   0.01679   2.28386
   R16        2.26995   0.02329   0.01836  -0.00231   0.01605   2.28600
   R17        2.30786   0.01974   0.00715   0.00686   0.01401   2.32187
   R18        2.25655   0.01854   0.02139  -0.00530   0.01609   2.27264
   R19        1.86509   0.00732  -0.00714   0.01686   0.00972   1.87481
    A1        2.14430   0.00455  -0.00204   0.00917   0.00713   2.15143
    A2        2.03864   0.00249   0.02055  -0.02005   0.00050   2.03914
    A3        2.10025  -0.00704  -0.01851   0.01088  -0.00764   2.09261
    A4        2.02050  -0.00119   0.01474  -0.01820  -0.00349   2.01701
    A5        2.07565  -0.00648  -0.02047   0.03039   0.00993   2.08558
    A6        2.18702   0.00768   0.00572  -0.01219  -0.00645   2.18058
    A7        2.14503  -0.00566  -0.01609   0.01292  -0.00319   2.14183
    A8        2.06846   0.01701   0.03527  -0.03991  -0.00462   2.06383
    A9        2.06970  -0.01136  -0.01918   0.02698   0.00782   2.07751
   A10        2.05775   0.00465   0.00947  -0.00105   0.00842   2.06617
[...]
 084067,0.02334066,0.09579646,-0.23099993,-0.04254792,0.00177667,0.6871
 3895,0.00436810,-0.01781739,-0.00548154,0.01557068,0.01860195,0.006695
 66,0.00852599,-0.03517033,-0.06892368,0.07363920,0.16439999,0.20433600
 ,-0.04523173,0.06584613,0.01321056,-0.03428170,-0.04253369,-0.01728476
 ,0.04944668,-0.01569753,0.00121101,-0.16112494,-0.05822961,-0.02915810
 ,0.70234421,0.01364300,0.03991045,0.01090877,-0.03916470,-0.02151081,-
 0.01139363,0.04019989,-0.05891422,-0.01394084,-0.12165698,-0.30401059,
 -0.08665677,0.06847070,0.63871855,-0.00262805,0.01994434,0.01078145,-0
 .01583093,-0.01173386,-0.00610454,0.01758700,-0.02073946,0.00055289,-0
 .04863498,-0.07881771,-0.09279841,0.08781844,0.16045816,0.18744967,-0.
 21178830,0.09288098,0.00968696,0.06244769,0.05012148,0.02226483,-0.051
 37726,0.03218666,0.00322079,-0.00937178,-0.08162012,-0.02677251,-0.337
 99002,-0.00957343,-0.03390744,0.72631014,0.15479324,-0.28188593,-0.043
 07978,0.00046585,-0.04675301,-0.01407790,0.01622457,-0.01101086,-0.000
 97602,-0.03378984,0.01951248,-0.00015184,-0.07342019,-0.12192507,-0.02
 702730,-0.00610371,0.72546874,0.02834901,-0.05206808,-0.07336407,0.008
 68707,-0.00775488,-0.00093652,-0.00207229,0.00033688,-0.00120042,-0.01
 154938,-0.00735511,0.00401388,-0.05252745,-0.01780911,-0.07530515,0.06
 605295,0.16525491,0.20284479,-0.00412238,-0.00473181,-0.00276313,-0.00
 693395,0.00238882,0.00045435,0.00381519,-0.01018556,-0.00372804,0.0145
 6747,0.01514249,0.00687439,-0.12390462,0.02412372,0.00115344,-0.024078
 95,0.02887562,0.00628387,0.96242949,-0.00684254,0.00764051,-0.00075752
 ,0.00368676,-0.00771309,-0.00135092,-0.00728118,0.00066243,-0.00321543
 ,0.01985802,-0.03412518,-0.00681136,0.02519835,-0.12894058,-0.01334809
 ,0.02325729,0.00405550,0.00523338,0.17126703,0.82248450,-0.00364444,-0
 .00056356,0.00680368,0.00049030,-0.00095123,-0.00285787,-0.00256500,-0
 .00368156,0.00708940,0.00809005,-0.00731645,-0.00461738,0.00163176,-0.
 01328581,-0.07743812,0.00424326,0.00553425,-0.00133752,0.14041246,0.19
 932313,0.30567516,-0.00152385,0.00102032,0.00048718,0.00196801,-0.0028
 4384,-0.00078728,-0.00194943,0.00366276,0.00098009,-0.00154585,-0.0099
 0385,-0.00338329,-0.06531135,0.01809020,-0.00468062,0.00018802,0.00593
 150,0.00140847,-0.62557470,-0.06727279,-0.08670329,0.74773915,0.002254
 60,-0.00103436,0.00035232,0.00027814,0.00139509,0.00032221,0.00092398,
 0.00196116,0.00094624,0.00338214,-0.00670813,-0.00213678,0.03181452,0.
 01122798,0.00186868,-0.00133444,-0.00342386,-0.00233022,-0.05529816,-0
 .13805764,-0.02494784,0.10556228,0.14840876,0.00073703,0.00013892,-0.0
 0111232,0.00028221,-0.00014810,0.00058299,0.00008741,0.00123143,-0.000
 22301,0.00064024,-0.00370386,0.00053281,-0.00057000,0.00015259,0.01787
 364,-0.00077507,-0.00125428,0.00291257,-0.08310491,-0.02641062,-0.0952
 9513,0.11892814,0.04863662,0.05826856,0.00277921,-0.00028588,0.0003605
 2,0.00059683,0.00061282,0.00012273,0.00011248,0.00252964,0.00096041,-0
 .00244496,-0.00064999,-0.00087800,0.01843623,0.01262302,0.00384293,-0.
 00868294,0.00438041,0.00002741,-0.19894731,-0.15320135,-0.06089403,-0.
 05243252,-0.09293524,-0.03758352,0.24120447,0.00167533,-0.00253307,-0.
 00045531,-0.00272395,0.00213266,0.00035151,0.00083313,-0.00216044,-0.0
 0012978,0.00673095,-0.00049978,-0.00030478,-0.00213498,-0.06557735,-0.
 02557589,-0.00766692,-0.00057859,-0.00153368,-0.16522446,-0.53020259,-
 0.15634747,-0.05887395,-0.01088433,-0.01850082,0.22218430,0.61334614,0
 .00090464,-0.00063432,-0.00058626,-0.00077701,0.00052108,0.00061232,0.
 00038475,0.00012796,-0.00133762,0.00133529,-0.00124484,0.00305634,-0.0
 0057677,-0.02368277,0.01101011,-0.00340797,-0.00010114,0.00099103,-0.0
 6447395,-0.15488127,-0.13165374,-0.02736574,-0.02263201,0.01667706,0.0
 9253349,0.20279611,0.10132536,-0.14738114,-0.01055996,-0.00847126,0.00
 096775,-0.02512159,-0.00603188,-0.00088524,0.00281778,-0.00070909,0.00
 244224,-0.00503114,-0.00113864,0.00907366,0.00683516,0.00048049,-0.043
 59200,0.01214406,-0.00446819,-0.00209502,0.00422200,0.00089671,0.00145
 041,-0.00162576,-0.00021654,0.00068315,-0.00247761,-0.00069566,0.69954
 584,-0.01080892,-0.10054389,-0.02019439,-0.04004803,0.01124721,-0.0013
 3987,-0.00162540,-0.00420601,-0.00242709,-0.00003243,-0.00360480,-0.00
 132577,0.00773067,-0.00452955,-0.00229972,0.01669871,0.01746819,0.0079
 0119,0.00174744,0.00466281,0.00094046,0.00036697,-0.00148452,-0.000170
 06,-0.00116298,-0.00203384,-0.00059355,-0.03958107,1.06405085,-0.01102
 843,-0.01706789,-0.08565787,-0.00875963,-0.00749759,-0.00154436,-0.000
 08104,-0.00271869,0.00414421,0.00071732,-0.00048596,-0.00100458,0.0001
 4815,-0.00253208,0.00669661,0.00596566,0.00433650,0.00317845,-0.000341
 90,0.00026941,0.00175076,0.00071624,-0.00018363,-0.00058681,0.00028340
 ,-0.00021391,-0.00021088,0.12518762,-0.19674443,0.31940011,-0.04297346
 ,0.03993293,-0.02514094,-0.00413449,0.00689028,0.00100304,0.00180748,-
 0.00122731,0.00050814,-0.00109863,0.00279986,0.00050853,-0.00352104,-0
 .00083927,0.00135806,-0.00167898,-0.00547984,-0.00252675,0.00062687,-0
 .00220599,-0.00020959,-0.00114256,0.00086667,-0.00003710,-0.00037933,0
 .00088533,0.00025526,-0.31098689,0.23878134,-0.12268432,0.31683215,0.0
 2705936,0.00312287,0.01536096,0.00706642,-0.01088658,-0.00321930,-0.00
 024715,0.00096694,0.00010832,0.00018142,-0.00072430,-0.00013738,0.0001
 1066,0.00150980,-0.00047356,-0.00000939,0.00030488,-0.00079265,-0.0003
 3254,-0.00084863,-0.00014304,0.00034967,0.00017498,0.00008534,0.000404
 46,0.00054321,0.00009846,0.21729700,-0.41832788,0.14383700,-0.27622900
 ,0.52922300,-0.02068257,0.01622622,0.01186866,0.00179765,0.00197634,0.
 00007231,-0.00079020,0.00025392,-0.00049731,-0.00001972,-0.00025515,0.
 00002426,0.00022111,0.00108147,-0.00009708,-0.00377772,-0.00230641,0.0
 0046508,0.00029318,-0.00019959,-0.00036433,-0.00052621,0.00012490,0.00
 007661,-0.00024923,0.00005348,0.00006519,-0.11976663,0.14807009,-0.146
 38971,0.15042653,-0.19617738,0.12055238,-0.02934673,-0.05281192,-0.001
 10644,-0.00820488,0.00675972,0.00198655,-0.00056650,-0.00221778,-0.001
 24593,-0.00108220,-0.00008934,-0.00022934,-0.00038386,-0.00153780,-0.0
 0060995,-0.00318928,-0.00297252,0.00089613,0.00124632,-0.00200010,-0.0
 0039570,-0.00069595,0.00071769,0.00013984,-0.00041634,0.00119969,0.000
 27711,-0.19961001,-0.18231153,0.01453589,0.04509593,0.03829989,-0.0043
 8380,0.19868506,-0.03848796,-0.02629246,0.00361267,-0.00052533,-0.0001
 0962,-0.00024803,0.00059654,-0.00079659,-0.00060927,0.00032222,0.00099
 683,0.00060365,-0.00372880,0.00091711,0.00016092,0.00914873,-0.0064137
 5,-0.00149453,-0.00042770,-0.00272389,-0.00098105,0.00008587,0.0008431
 0,0.00027332,0.00059957,0.00150364,0.00046466,-0.16640133,-0.55698201,
 0.07211818,0.00259081,-0.10540402,0.03671332,0.20067198,0.69110980,-0.
 00256257,-0.00076983,0.02099843,-0.00126220,0.00172491,0.00196777,0.00
 017542,0.00064450,-0.00070698,-0.00016613,-0.00007901,-0.00004035,0.00
 024404,0.00053951,-0.00035697,-0.00120745,-0.00037223,-0.00003300,-0.0
 0006310,-0.00025562,-0.00031618,-0.00004355,0.00010722,0.00011032,-0.0
 0000565,0.00011094,0.00013967,0.01027799,0.06587715,-0.09238244,0.0025
 9423,0.04416155,0.01649667,-0.00954997,-0.11051277,0.05357414,-0.00644
 406,-0.00018005,-0.00177366,-0.00129738,-0.04534756,-0.01446628,-0.118
 43581,-0.01130247,-0.00905595,0.02360479,-0.00172436,0.00278480,-0.001
 04325,0.01201136,0.00254147,-0.00523165,0.00134557,-0.00009020,0.00703
 416,-0.00059804,0.00036956,-0.00352859,-0.00037802,-0.00051407,-0.0019
 8113,0.00108866,0.00017870,-0.00061048,-0.00347348,-0.00023638,0.00045
 827,0.00138570,0.00026790,0.00019632,0.00084478,-0.00001241,1.07442521
 ,0.00192055,-0.00408427,-0.00319661,-0.03921052,0.02341459,0.00503039,
 -0.01498360,-0.13193786,-0.02038119,-0.00113816,-0.05457102,-0.0161542
 6,0.01545337,0.00974367,0.00213461,-0.00894733,0.00433875,0.00083524,0
 .00344376,-0.00309933,-0.00115043,-0.00219851,0.00127153,0.00015822,-0
 .00127015,0.00142825,0.00048741,-0.00490288,0.00150181,-0.00108961,0.0
 0240893,-0.00132191,0.00054307,0.00238313,0.00013902,0.00034568,-0.120
 69428,0.69887497,-0.00122834,-0.00336009,0.00489748,-0.01334031,0.0039
 0319,-0.00458688,-0.00947507,-0.02022909,-0.08093549,0.00276258,-0.015
 53785,-0.00781447,0.00348772,0.00179570,0.00883747,-0.00271657,0.00216
 229,-0.00146816,0.00155082,-0.00167421,0.00183343,-0.00102708,0.000420
 39,-0.00019094,-0.00052389,0.00079793,-0.00053452,-0.00128536,0.000020
 55,0.00024714,0.00060676,-0.00022544,0.00009764,0.00050806,0.00014853,
 -0.00012372,0.04361501,0.14173060,0.28033791,0.00203147,-0.00591870,-0
 .00169128,-0.02397052,0.02367377,0.00520935,0.01866709,0.01918363,0.00
 665320,0.00064358,-0.00468131,-0.00177711,0.00561182,0.00162047,0.0012
 2112,-0.00523631,0.00184899,-0.00011258,-0.00122862,0.00031396,0.00003
 811,0.00091396,0.00011907,0.00013144,0.00029658,0.00011788,0.00004178,
 -0.00036340,0.00266244,-0.00033857,0.00025950,-0.00165719,-0.00024010,
 -0.00003188,-0.00107182,0.00019774,-0.28269810,0.18142741,0.03916893,0
 .38793002,-0.00023322,0.00249274,0.00103605,0.01037428,-0.00516813,-0.
 00053265,0.02640962,-0.05475573,-0.02118434,-0.00728816,0.00178732,-0.
 00150785,-0.00235668,-0.00419502,-0.00106390,0.00384656,-0.00154847,-0
 .00009277,-0.00204656,0.00127139,0.00039009,0.00076965,-0.00065510,-0.
 00011921,0.00057295,-0.00139102,-0.00042717,0.00242834,-0.00020380,0.0
 0052596,-0.00128600,0.00040058,-0.00039039,-0.00097860,-0.00005466,-0.
 00014848,0.21309528,-0.39338496,-0.08431767,-0.25561210,0.44723570,0.0
 0023707,0.00030444,-0.00039784,0.00099469,0.00081408,0.00074771,0.0088
 7279,-0.02158912,0.01095243,-0.00278410,-0.00120846,0.00267091,0.00009
 737,-0.00075912,-0.00133767,0.00051531,-0.00041725,0.00038971,-0.00068
 548,0.00066640,-0.00058372,0.00032558,-0.00022684,0.00003691,0.0001838
 4,-0.00051975,0.00007995,0.00071016,0.00031151,0.00003369,-0.00029897,
 -0.00006410,-0.00006415,-0.00033109,-0.00022590,0.00001098,0.04954986,
 -0.08766672,-0.09804444,-0.04905584,0.11244236,0.06362259,-0.00080905,
 -0.00009820,-0.00018645,0.00031571,0.00098154,0.00001074,-0.04728755,-
 0.03559089,-0.01778098,-0.00521190,0.01353036,0.00335284,-0.00107860,-
 0.00521487,-0.00159890,0.00161940,0.00019960,0.00020943,-0.00388011,0.
 00101194,-0.00016113,0.00227961,0.00002146,0.00027406,0.00116179,-0.00
 033270,0.00003916,0.00147051,0.00092063,-0.00005841,-0.00048611,-0.000
 58888,-0.00019288,-0.00100372,-0.00103661,0.00006387,-0.66453254,-0.04
 982308,-0.07322740,-0.10194060,0.04263404,0.00186002,0.81048524,-0.002
 13591,0.00025175,0.00018876,0.00746488,-0.01017046,-0.00373337,-0.0455
 3607,-0.00454649,-0.01199785,-0.00262668,-0.00435263,-0.00211370,-0.00
 256125,0.00065984,0.00009285,-0.00014703,-0.00111685,-0.00043375,-0.00
 080720,0.00146579,0.00039981,0.00062348,-0.00071715,-0.00016697,0.0002
 9990,-0.00073494,-0.00020357,0.00194050,-0.00072622,0.00032215,-0.0008
 2144,0.00042346,-0.00019749,-0.00103415,-0.00026213,-0.00010472,-0.063
 64271,-0.13343738,-0.02357295,0.08097530,0.01903136,0.00579022,0.03835
 272,0.13409895,-0.00051597,0.00054813,-0.00136639,0.00215201,-0.004430
 66,0.00266884,-0.02143205,-0.01113560,0.01310881,-0.00156710,-0.000524
 06,0.00141815,-0.00079351,-0.00015522,-0.00080571,0.00005828,-0.000421
 43,0.00007191,-0.00065675,0.00060864,-0.00007834,0.00042978,-0.0002461
 5,0.00006985,0.00021539,-0.00028103,0.00000257,0.00070476,-0.00008993,
 -0.00014801,-0.00026537,0.00004335,-0.00004872,-0.00035143,-0.00017306
 ,0.00005737,-0.07773504,-0.02213272,-0.09494859,0.01438488,0.00195696,
 0.02743755,0.08805293,0.03718946,0.05170534,0.02142655,0.00508432,0.00
 362461,-0.25751477,0.15143481,0.02841213,-0.04348956,0.03472014,0.0047
 0358,-0.00169623,-0.00824472,-0.00360710,-0.00120740,0.00603418,0.0018
 7179,-0.00457610,-0.00377191,-0.00299732,0.00290025,-0.00408864,-0.000
 71758,-0.00110354,0.00104552,0.00015629,-0.00016786,0.00203478,0.00058
 180,-0.00937836,0.00891252,-0.00325692,0.00062556,-0.01157133,-0.00326
 088,0.00230895,-0.00231003,0.00169201,0.00779803,0.00376337,0.00236378
 ,-0.02061984,-0.01406725,-0.00778859,-0.00414185,0.00009917,-0.0002507
 5,0.45957707,0.02706216,-0.06154030,-0.01931186,0.17597470,-0.28054055
 ,-0.05460093,0.02685124,0.01575441,0.00290538,-0.00147103,-0.00602803,
 -0.00416791,0.01395224,-0.00092712,0.00147634,-0.01687886,0.00490153,-
 0.00203484,-0.00523861,0.00679254,0.00153581,0.00307441,-0.00138872,-0
 .00004528,0.00082306,-0.00252388,-0.00063476,0.01195796,-0.00040619,0.
 00535685,-0.00787519,-0.00104069,-0.00577885,-0.00307665,0.00004917,-0
 .00111409,0.01578042,-0.04198916,-0.01198319,-0.04793450,0.01087528,-0
 .00367571,-0.00892033,0.00912972,0.00262071,-0.03254828,0.60107053,0.0
 0978873,-0.02104057,0.00091566,0.03523421,-0.05845060,-0.07163929,0.00
 294426,0.00475658,0.01459899,-0.00171686,-0.00452744,0.00542564,0.0040
 1117,0.00034132,-0.00028094,-0.00597675,-0.00062340,0.00393440,-0.0013
 9952,0.00180949,0.00011434,0.00090485,-0.00031586,-0.00005470,0.000300
 59,-0.00056943,-0.00022165,0.00400961,0.00167099,-0.00266406,-0.004272
 57,-0.00349192,-0.00205884,-0.00069093,-0.00084695,0.00075315,0.006261
 07,-0.01306782,-0.00545965,-0.01872268,0.00002946,0.00404465,-0.003292
 58,0.00338618,-0.00010812,0.03905295,0.18688418,0.11519209,0.00076473,
 0.00008996,0.00023051,0.00019449,0.00197554,-0.00000778,-0.01014693,-0
 .00132770,-0.00231990,-0.34956515,-0.03887868,-0.04837408,-0.00249092,
 -0.00118453,-0.00144349,0.00050055,-0.00007406,-0.00071350,-0.00173030
 ,-0.00035320,0.00026880,-0.00094422,0.00360173,0.00101649,-0.00026627,
 -0.00017002,-0.00017288,-0.00072371,-0.00016262,-0.00010816,0.00027666
 ,-0.00003722,0.00004314,0.00024168,0.00017243,0.00005684,-0.00312580,-
 0.00084834,-0.00003785,0.00031193,-0.00028512,-0.00011952,0.00142524,-
 0.00350135,-0.00092354,-0.00022808,-0.00028457,-0.00007545,0.36555321,
 0.00059082,-0.00092136,-0.00003999,0.00114467,-0.00302834,-0.00253473,
 0.02029186,0.00785260,0.00287040,-0.03895975,-0.05449660,-0.00822890,-
 0.02316681,0.00399291,-0.00379988,-0.00093472,-0.00415922,-0.00293840,
 -0.00376449,-0.00036426,0.00090790,0.00315199,-0.00103513,0.00017475,0
 .00144154,0.00174221,0.00047962,-0.00025597,-0.00023523,0.00004873,0.0
 0005163,0.00000446,-0.00002603,-0.00001723,0.00018643,0.00002303,0.003
 20256,0.00021169,0.00185744,-0.00218857,0.00145026,0.00012156,-0.00274
 661,-0.00347826,-0.00133560,0.00118818,-0.00063633,0.00003877,0.041284
 13,0.05170703,0.00017403,-0.00019161,-0.00055999,-0.00045010,-0.002453
 54,0.00483613,0.00426865,0.00017052,0.00704830,-0.04838880,-0.00830733
 ,-0.05143351,-0.00809904,-0.00102622,0.00605818,-0.00080578,-0.0028049
 5,0.00443541,-0.00074054,0.00131348,-0.00462301,0.00086821,0.00024130,
 -0.00018517,0.00030471,0.00027698,0.00085981,0.00011010,-0.00002426,-0
 .00013090,-0.00000825,0.00014969,-0.00004180,-0.00002732,-0.00004762,0
 .00000628,0.00118761,0.00154506,-0.00426908,-0.00064084,0.00016710,0.0
 0054809,-0.00065204,-0.00138933,-0.00065910,0.00036874,-0.00003574,-0.
 00035614,0.05267572,0.01202249,0.03850197,0.01144047,0.01583021,0.0051
 1098,-0.00295651,0.00194277,-0.00061927,-0.00063590,0.00107514,0.00030
 949,-0.00500025,0.00006098,-0.00098125,-0.00238860,-0.02307195,-0.0075
 6045,-0.09039424,-0.09882108,-0.03484838,-0.00098656,-0.00392638,-0.00
 094970,0.00194306,0.00092693,0.00047215,0.00054965,0.00280267,0.000932
 85,0.00108659,0.00245144,-0.00018318,0.00057311,-0.00136558,0.00108823
 ,-0.00352217,-0.00156007,-0.00058014,-0.00046217,-0.00039505,-0.000138
 21,0.00006794,0.00008573,0.00003590,0.00026542,-0.00004138,0.00001156,
 0.00048520,0.00115770,0.00043948,0.00007669,-0.00117346,-0.00036295,0.
 09004631,-0.00624255,-0.01188361,-0.00589107,0.00221690,-0.00058367,-0
 .00174522,0.00081128,0.00059301,0.00037643,0.00112165,0.00088738,-0.00
 086842,-0.00133441,0.00361624,-0.00091143,-0.09814979,-0.29499426,-0.0
 8218140,-0.00044627,-0.00106114,0.00073025,-0.00063878,-0.00030994,-0.
 00035853,0.00324837,-0.00224929,-0.00011990,-0.00235554,-0.00335318,0.
 00161315,0.00004686,0.00037485,-0.00033102,-0.00178156,0.00217069,-0.0
 0009710,-0.00025822,-0.00069372,-0.00018761,-0.00007555,0.00025020,0.0
 0009634,0.00015807,0.00019783,0.00006627,-0.00050804,-0.00055123,-0.00
 014123,0.00002801,0.00031753,0.00017859,0.10393377,0.30733202,-0.00276
 272,-0.00351851,0.00576853,-0.00048445,-0.00197668,0.00643282,0.000108
 55,0.00033664,-0.00040978,-0.00095632,-0.00118804,0.00450852,-0.001327
 80,-0.00387532,0.00537001,-0.03420675,-0.08233295,-0.07048332,0.000360
 26,0.00042874,-0.00399088,-0.00014292,-0.00015595,0.00055275,0.0010702
 9,-0.00017817,-0.00032084,0.00177277,0.00122585,-0.00448859,-0.0014598
 8,0.00111740,0.00007305,0.00013468,0.00027701,0.00006540,-0.00004839,-
 0.00001787,-0.00024290,0.00004741,0.00002885,-0.00006682,0.00005396,0.
 00000644,0.00006097,0.00001883,0.00004753,-0.00029884,0.00004719,-0.00
 000082,-0.00024680,0.03774140,0.08969053,0.05801930,-0.00456613,0.0111
 4360,0.00263539,0.03032701,0.01144256,0.00749923,-0.00559185,-0.004440
 78,-0.00179516,-0.00172760,0.00274581,0.00067488,-0.00495456,-0.001408
 18,-0.00097997,0.00612199,-0.00177625,-0.00000831,0.00086278,-0.001045
 13,-0.00020054,-0.00072966,0.00005689,-0.00006410,-0.00010173,0.000051
 86,0.00000516,-0.00109391,-0.00106569,-0.00047734,-0.00015404,-0.00011
 630,-0.00024780,0.00027926,0.00051673,0.00015102,-0.02412584,0.0336113
 8,0.00893643,0.01935538,-0.01606276,-0.00231899,0.01134911,-0.00690077
 ,-0.00151807,-0.15099803,-0.15240586,-0.06679958,-0.00012380,0.0008602
 0,0.00021790,-0.00018804,0.00022582,0.00003388,0.12605965,0.00265468,0
 .00589176,0.00123406,0.00474605,-0.05304919,-0.01826505,-0.00590182,-0
 .00163210,-0.00041958,-0.00181752,-0.00004408,-0.00005216,-0.00341269,
 0.00023375,-0.00034512,0.00322534,-0.00224020,-0.00074218,0.00151449,-
 0.00189913,-0.00039329,-0.00095735,0.00041630,0.00002654,-0.00021447,0
 .00067301,0.00018000,-0.00132996,-0.00229375,0.00010586,0.00070941,0.0
 0150499,0.00061950,0.00079708,0.00112334,-0.00008063,-0.00115514,0.023
 59533,0.00825146,0.00719681,-0.02343793,-0.00419394,0.00654180,-0.0057
 1619,-0.00210805,-0.13720680,-0.25100098,-0.09584176,-0.00004440,0.000
 88963,0.00021540,0.00008762,-0.00005972,0.00008530,0.12456687,0.307045
 15,0.00055736,0.00287655,0.00472643,0.00459892,-0.01747073,-0.00328197
 ,-0.00227425,-0.00029817,-0.00263198,-0.00074130,0.00052937,-0.0005682
 5,-0.00174391,-0.00016063,-0.00010544,0.00154598,-0.00134105,0.0008909
 4,0.00057455,-0.00074807,-0.00011057,-0.00038856,0.00015542,-0.0000459
 8,-0.00007140,0.00022307,0.00004611,-0.00136695,-0.00080874,-0.0002427
 6,-0.00035681,-0.00023730,-0.00022992,0.00044365,0.00076693,-0.0002205
 4,-0.00282362,0.01204692,0.00236777,0.00548503,-0.00679240,-0.01008053
 ,0.00323377,-0.00346218,0.00156163,-0.06096739,-0.09744362,-0.06183668
 ,-0.00004254,0.00035965,0.00021135,0.00008150,0.00008136,-0.00030259,0
 .05425597,0.11172364,0.06985300\\0.00000446,0.00003001,0.00000654,-0.0
 0007472,-0.00003937,-0.00001095,0.00004776,-0.00002298,-0.00000575,-0.
 00000193,0.00005332,0.00000785,-0.00003004,-0.00002164,-0.00000163,0.0
 0003079,-0.00002486,0.00000212,0.00000150,0.00000314,-0.00003475,-0.00
 000740,-0.00000462,0.00001123,0.00000471,0.00001501,0.00001381,-0.0000
 1033,0.00001214,-0.00000267,0.00000102,-0.00001095,-0.00000254,0.00001
 411,-0.00000496,0.00000494,0.00002448,0.00000341,0.00000757,0.00000711
 ,-0.00000516,-0.00000114,-0.00001717,-0.00000257,-0.00000108,0.0000125
 2,-0.00000037,-0.00000684,-0.00000067,-0.00001366,-0.00000017,-0.00000
 722,0.00000261,-0.00000028,0.00000100,0.00003151,0.00001374\\\@


 THE FIRST AND LAST THING REQUIRED OF GENIUS IS THE LOVE OF TRUTH.

                          -- GOETHE
 Job cpu time:       0 days  0 hours 46 minutes 20.9 seconds.
 Elapsed time:       0 days  0 hours  0 minutes 44.2 seconds.
 File lengths (MBytes):  RWF=    145 Int=      0 D2E=      0 Chk=      6 Scr=      1
 Normal termination of Gaussian 16 at Wed Jun 10 15:26:09 2026.
