
                                 *****************
                                 * O   R   C   A *
                                 *****************

                                            #,                                       
                                            ###                                      
                                            ####                                     
                                            #####                                    
                                            ######                                   
                                           ########,                                 
                                     ,,################,,,,,                         
                               ,,#################################,,                 
                          ,,##########################################,,             
                       ,#########################################, ''#####,          
                    ,#############################################,,   '####,        
                  ,##################################################,,,,####,       
                ,###########''''           ''''###############################       
              ,#####''   ,,,,##########,,,,          '''####'''          '####       
            ,##' ,,,,###########################,,,                        '##       
           ' ,,###''''                  '''############,,,                           
         ,,##''                                '''############,,,,        ,,,,,,###''
      ,#''                                            '''#######################'''  
     '                                                          ''''####''''         
             ,#######,   #######,   ,#######,      ##                                
            ,#'     '#,  ##    ##  ,#'     '#,    #''#        ,####,    ,#,          
            ##       ##  ##   ,#'  ##            #'  '#       #'       ,# #          
            ##       ##  #######   ##           ,######,      #####,      #          
            '#,     ,#'  ##    ##  '#,     ,#' ,#      #,     #,   #      #          
             '#######'   ##     ##  '#######'  #'      '#     '####' #    #          



                #########################################################
                #                        -***-                          #
                #          Department of theory and spectroscopy        #
                #                                                       #
                #                      Frank Neese                      #
                #                                                       #
                #     Directorship, Architecture, Infrastructure        #
                #                    SHARK, DRIVERS                     #
                #        Core code/Algorithms in most modules           #
                #                                                       #
                #        Max Planck Institute fuer Kohlenforschung      #
                #                Kaiser Wilhelm Platz 1                 #
                #                 D-45470 Muelheim/Ruhr                 #
                #                      Germany                          #
                #                                                       #
                #                  All rights reserved                  #
                #                        -***-                          #
                #########################################################


                         Program Version 6.1.0  -  RELEASE   -
                                (GIT: $679e74b$)
                          ($2025-06-10 18:02:51 +0200$)


 With contributions from (in alphabetic order):
[Max-Planck-Institut fuer Kohlenforschung]                               
  Daniel Aravena         : Magnetic Suceptibility                        
  Michael Atanasov       : Ab Initio Ligand Field Theory (pilot matlab implementation)
  Alexander A. Auer      : GIAO ZORA, VPT2 properties, NMR spectrum      
  Ute Becker             : All parallelization in ORCA, NUMFREQ, NUMCALC 
  Giovanni Bistoni       : ED, misc. LED, open-shell LED, HFLD           
  Dmytro Bykov           : pre 5.0 version of the SCF Hessian            
  Marcos Casanova-Páez   : Triplet and SCS-CIS(D). UHF-(DLPNO)-IP/EA/STEOM-CCSD. UHF-CVS-IP/STEOM-CCSD   
  Vijay G. Chilkuri      : MRCI spin determinant printing, contributions to CSF-ICE 
  Pauline Colinet        : FMM embedding                                 
  Dipayan Datta          : RHF DLPNO-CCSD density                        
  Achintya Kumar Dutta   : EOM-CC, STEOM-CC                              
  Nicolas Foglia         : Exact transition moments, OPA infrastructure, MCD improvements    
  Dmitry Ganyushin       : Spin-Orbit,Spin-Spin,Magnetic field MRCI      
  Miquel Garcia-Rates    : C-PCM and meta-GGA Hessian, CCSD/C-PCM, Gaussian charge scheme 
  Tiago L. C. Gouveia    : GS-ROHF, GS-ROCIS                             
  Yang Guo               : DLPNO-NEVPT2, F12-NEVPT2, CIM, IAO-localization        
  Andreas Hansen         : Spin unrestricted coupled pair/coupled cluster methods 
  Ingolf Harden          : AUTO-CI MPn and infrastructure                
  Benjamin Helmich-Paris : MC-RPA, TRAH-(SCF,CASSCF), AVAS, COSX integrals, SCF dyn. polar., MC-PDFT, srDFT 
  Lee Huntington         : MR-EOM, pCC                                   
  Robert Izsak           : Overlap fitted RIJCOSX, COSX-SCS-MP3, EOM     
  Riya Kayal             : Wick's Theorem for AUTO-CI, AUTO-CI UHF-CCSDT 
  Emily Kempfer          : AUTO-CI RHF CISDT and CCSDT, approximate NEVPT4
  Christian Kollmar      : KDIIS, OOCD, Brueckner-CCSD(T), CCSD density, CASPT2, CASPT2-K, improved NEVPT2 
  Axel Koslowski         : Symmetry handling                             
  Simone Kossmann        : meta-GGA functionals, TD-DFT gradient, OOMP2, (MP2 Hessian; deprecated post 5.0) 
  Lucas Lang             : DCDCAS, Hyperfine gauge corrections, ICE-SOC+SSC
  Marvin Lechner         : AUTO-CI (C++ implementation), FIC-MRCC        
  Spencer Leger          : CASSCF response                               
  Dagmar Lenk            : GEPOL surface, SMD, ORCA-2-JSON               
  Dimitrios Liakos       : Extrapolation schemes; Compound Job, Property file
  Dimitrios Manganas     : Further ROCIS development; embedding schemes. LFT, Crystal Embedding 
  Dimitrios Pantazis     : SARC Basis sets                               
  Anastasios Papadopoulos: AUTO-CI, single reference methods and gradients 
  Taras Petrenko         : pre 6.0 DFT Hessian and TD-DFT gradient,  ECA, NRVS 
  Petra Pikulova         : Analytic Raman intensities                    
  Peter Pinski           : DLPNO-MP2, DLPNO-MP2 Gradient                 
  Shashank Vittal Rao    : ES-AILFT, MagRelax                            
  Christoph Reimann      : Effective Core Potentials                     
  Marius Retegan         : Local ZFS, SOC                                
  Christoph Riplinger    : Optimizer, TS searches, QM/MM, DLPNO-CCSD(T), (RO)-DLPNO pert. Triples 
  Michael Roemelt        : Original ROCIS implementation, recursive CI coupling coefficients
  Masaaki Saitow         : Open-shell DLPNO-CCSD energy and density      
  Barbara Sandhoefer     : DKH picture change effects                    
  Yorick L. A. Schmerwitz: GMF and freeze-and-release deltaSCF, NEB S-IDPP initial path                    
  Kantharuban Sivalingam : CASSCF convergence/infrastructure, NEVPT2, NEVPT3, NEVPT4(SD), FIC-MRCI and CEPA variants
  Bernardo de Souza      : ESD, SOC TD-DFT                               
  Georgi L. Stoychev     : AutoAux, RI-MP2 NMR, DLPNO-MP2 response, X2C  
  Van Anh Tran           : RI-MP2 g-tensors                              
  Willem Van den Heuvel  : Paramagnetic NMR                              
  Zikuan Wang            : NOTCH, Electric field optimization            
  Frank Wennmohs         : Technical directorship and infrastructure     
  Hang Xu                : AUTO-CI-Response properties                   
                                                                         
[FACCTs GmbH]                                                            
  Markus Bursch, Nicolas Foglia, Miquel Garcia-Rates, Ingolf Harden, Hagen Neugebauer, Anastasios Papadopoulos, 
  Christoph Riplinger, Bernardo de Souza, Georgi L. Stoychev                                                    
                                                                 
  APM, various basis sets, CI-OPT, improved COSX, DLPNO-Multilevel,           
  DOCKER, DRACO, updates on ESD, Fragmentator, GOAT, IRC, LR-CPCM, L-BFGS, MBIS, meta-GGA TD-DFT gradient, ML-optimized integration grids, 
  MM, NACMEs, nearIR, NEB, NEB-TS, NL-DFT gradient (VV10), 2- and 3-layer-ONIOM, interface openCOSMO-RS, QMMM,   
  Crystal-QMMM, RESP, rigid body optimization, SF, symmetry and pop. for TD-DFT, various functionals, SOLVATOR                                   
                                                                         
[Other institutions]                                                     
  V. Asgeirsson          : NEB                                           
  Christoph Bannwarth    : sTDA-DFT, sTD-DFT, PBEh-3c, B97-3c, D3        
  Giovanni Bistoni       : ETS/NOCV, ADLD/ADEX, COVALED                  
  Martin Brehm           : Molecular dynamics                            
  Ronald Cardenas        : ETS/NOCV                                      
  Martina Colucci        : COVALED                                       
  Sebastian Ehlert       : rSCAN, r2SCAN, r2SCAN-3c, D4, dhf basis sets  
  Marvin Friede          : D4 for Fr, Ra, Ac-Lr                          
  Lars Goerigk           : TD-DFT with DH, B97 family of functionals     
  Stefan Grimme          : VdW corrections, initial TS optimization, DFT functionals, gCP, sTDA/sTD-DF 
  Waldemar Hujo          : DFT-NL                                        
  H. Jonsson             : NEB                                           
  Holger Kruse           : gCP                                           
  Marcel Mueller         : wB97X-3c, vDZP basis set                      
  Hagen Neugebauer       : wr2SCAN, Native XTB                           
  Gianluca Regni         : ADLD/ADEX                                     
  Tobias Risthaus        : pre 6.0 range-separated hybrid DFT and stability analysis
  Lukas Wittmann         : regularized MP2, r2SCAN double-hybrids, wr2SCAN        
                                                                         
We gratefully acknowledge several colleagues who have allowed us to      
interface, adapt or use parts of their codes:                            
  Ed Valeev, F. Pavosevic, A. Kumar             : LibInt (2-el integral package), F12 methods 
  Garnet Chan, S. Sharma, J. Yang, R. Olivares  : DMRG                   
  Ulf Ekstrom                                   : XCFun DFT Library      
  Mihaly Kallay                                 : mrcc  (arbitrary order and MRCC methods)
  Frank Weinhold                                : gennbo (NPA and NBO analysis)           
  Simon Mueller                                 : openCOSMO-RS                            
  Christopher J. Cramer and Donald G. Truhlar   : smd solvation model                     
  S Lehtola, MJT Oliveira, MAL Marques          : LibXC Library                           
  Liviu Ungur et al                             : ANISO software                          


 Your calculation uses the libint2 library for the computation of 2-el integrals
 For citations please refer to: http://libint.valeyev.net

 Your ORCA version has been built with support for libXC version: 7.0.0
 For citations please refer to: https://libxc.gitlab.io

 This ORCA versions uses:
   CBLAS   interface :  Fast vector & matrix operations
   LAPACKE interface :  Fast linear algebra routines
   SCALAPACK package :  Parallel linear algebra routines
   Shared memory     :  Shared parallel matrices
   BLAS/LAPACK       :  OpenBLAS 0.3.29  USE64BITINT DYNAMIC_ARCH NO_AFFINITY Cooperlake SINGLE_THREADED
        Core in use  :  Cooperlake
   Copyright (c) 2011-2014, The OpenBLAS Project


  ***********************************
  * Starting time: Wed Jun 10 15:26:59 2026
  * Host name:     chpc-cn081.rc.cuhk.edu.hk
  * Process ID:    113181
  * Working dir.:  /lustre/project/xlzhang/jingyi/chemsmart/test_pka/orca
  ***********************************

NOTE: MaxCore=2109 MB was set to SCF,MP2,MDCI,CIPSI,MRCI,RASCI and CIS
      => If you want to overwrite this, your respective input block should be placed after the MaxCore statement
XCFun DFT library Copyright 2009-2010 Ulf Ekstrom and contributors.
See http://admol.org/xcfun for more information.
This is free software; see the source code for copying conditions.
There is ABSOLUTELY NO WARRANTY; not even for MERCHANTABILITY or FITNESS FOR A PARTICULAR PURPOSE.
For details see the documentation.
Scientific users of this library should cite U. Ekstrom, L. Visscher, R. Bast, A. J. Thorvaldsen and K. Ruud;
J.Chem.Theor.Comp. 2010, DOI: 10.1021/ct100117s
XCFun Version 0.99 

Warning: RI is on but no J-basis has been assigned. Assigning Def2/J (nothing to worry about!)
================================================================================

----- Orbital basis set information -----
Your calculation utilizes the basis: def2-SVP
   F. Weigend and R. Ahlrichs, Phys. Chem. Chem. Phys. 7, 3297 (2005).

----- AuxJ basis set information -----
Your calculation utilizes the auxiliary basis: def2/J
   H-Rn: F. Weigend, Phys. Chem. Chem. Phys. 8, 1057 (2006).
   Fr-Lr: K. Eichkorn, F. Weigend, O. Treutler, R. Ahlrichs; Theor. Chem. Acc. 97, 119 (1997).

================================================================================
                                        WARNINGS
                       Please study these warnings very carefully!
================================================================================

WARNING: Functional chosen is sensitive to the integration grid.
         DEFGRID3 seems to be a minimum grid for robust results!

WARNING: Geometry Optimization
  ===> : Switching off AutoStart
         For restart on a previous wavefunction, please use MOREAD

================================================================================
                                       INPUT FILE
================================================================================
NAME = /lustre/project/xlzhang/jingyi/chemsmart/test_pka/orca/pka_scale_frag3_pka_HA_opt.inp
|  1> ! Opt Freq M062X def2-SVP defgrid2
|  2> # Number of processors
|  3> %pal nprocs 64 end
|  4> # Memory per core
|  5> %maxcore 2109
|  6> * xyz 0 1
|  7> C       -0.9335433255   -0.0600627498   -0.2303758313
|  8> C        0.4936076142    0.2789326841    0.0469143517
|  9> O        1.0325253107    1.3566292976   -0.1361364056
| 10> O        1.1814013696   -0.7644700621    0.5462122720
| 11> H       -1.4426868599    0.8202986055   -0.6327062184
| 12> H       -1.4304568177   -0.3575832070    0.6962707506
| 13> H       -0.9867314458   -0.8625467632   -0.9701798996
| 14> H        2.0858841544   -0.4111978052    0.6800009806
| 15> *
| 16> 
| 17>                          ****END OF INPUT****
================================================================================

                       *****************************
                       * Geometry Optimization Run *
                       *****************************

Geometry optimization settings:
Update method            Update   .... BFGS
Choice of coordinates    CoordSys .... (2022) Redundant Internals
Initial Hessian          InHess   .... Almloef's Model
Max. no of cycles        MaxIter  .... 50

Convergence Tolerances:
Energy Change            TolE     ....  5.0000e-06 Eh
Max. Gradient            TolMAXG  ....  3.0000e-04 Eh/bohr
RMS Gradient             TolRMSG  ....  1.0000e-04 Eh/bohr
Max. Displacement        TolMAXD  ....  4.0000e-03 bohr
RMS Displacement         TolRMSD  ....  2.0000e-03 bohr
Strict Convergence                .... False

------------------------------------------------------------------------------
                        ORCA OPTIMIZATION COORDINATE SETUP
------------------------------------------------------------------------------

The optimization will be done in redundant internal coordinates (2022)
Making redundant internal coordinates   ...  (2022 redundants) done
Evaluating the initial hessian          ...  (Almloef) done
Evaluating the coordinates              ...  done
Calculating the B-matrix                .... done
Calculating the G-matrix                .... done
The number of degrees of freedom        ....   24

    -----------------------------------------------------------------
                    Redundant Internal Coordinates


    -----------------------------------------------------------------
         Definition                    Initial Value    Approx d2E/dq
    -----------------------------------------------------------------
      1. B(C   1,C   0)                  1.4928         0.428219   
      2. B(O   2,C   1)                  1.2188         1.049740   
      3. B(O   3,C   1)                  1.3458         0.658371   
      4. B(H   4,C   0)                  1.0937         0.355266   
      5. B(H   5,C   0)                  1.0928         0.356473   
      6. B(H   6,C   0)                  1.0928         0.356470   
      7. B(H   7,O   3)                  0.9802         0.482771   
      8. A(H   5,C   0,H   6)          110.6108         0.289916   
      9. A(H   4,C   0,H   6)          108.6280         0.289762   
     10. A(C   1,C   0,H   4)          109.3045         0.330962   
     11. A(C   1,C   0,H   5)          109.8184         0.331148   
     12. A(H   4,C   0,H   5)          108.6277         0.289762   
     13. A(C   1,C   0,H   6)          109.8186         0.331147   
     14. A(O   2,C   1,O   3)          121.0190         0.476605   
     15. A(C   0,C   1,O   3)          112.4235         0.408035   
     16. A(C   0,C   1,O   2)          126.5575         0.443566   
     17. A(C   1,O   3,H   7)          104.0525         0.369217   
     18. D(O   2,C   1,C   0,H   5)   -119.0771         0.013545   
     19. D(O   2,C   1,C   0,H   4)      0.0003         0.013545   
     20. D(O   3,C   1,C   0,H   4)   -179.9998         0.013545   
     21. D(O   3,C   1,C   0,H   5)     60.9228         0.013545   
     22. D(O   2,C   1,C   0,H   6)    119.0783         0.013545   
     23. D(H   7,O   3,C   1,O   2)     -0.0003         0.032102   
     24. D(H   7,O   3,C   1,C   0)    179.9998         0.032102   
    -----------------------------------------------------------------

Number of atoms                         .... 8
Number of degrees of freedom            .... 24


         *************************************************************
         *                GEOMETRY OPTIMIZATION CYCLE   1            *
         *************************************************************
---------------------------------
CARTESIAN COORDINATES (ANGSTROEM)
---------------------------------
  C     -0.933543   -0.060063   -0.230376
  C      0.493608    0.278933    0.046914
  O      1.032525    1.356629   -0.136136
  O      1.181401   -0.764470    0.546212
  H     -1.442687    0.820299   -0.632706
  H     -1.430457   -0.357583    0.696271
  H     -0.986731   -0.862547   -0.970180
  H      2.085884   -0.411198    0.680001

----------------------------
CARTESIAN COORDINATES (A.U.)
----------------------------
  NO LB      ZA    FRAG     MASS         X           Y           Z
   0 C     6.0000    0    12.011   -1.764141   -0.113502   -0.435347
   1 C     6.0000    0    12.011    0.932783    0.527106    0.088655
   2 O     8.0000    0    15.999    1.951190    2.563658   -0.257261
   3 O     8.0000    0    15.999    2.232525   -1.444639    1.032192
   4 H     1.0000    0     1.008   -2.726283    1.550140   -1.195641
   5 H     1.0000    0     1.008   -2.703172   -0.675734    1.315761
   6 H     1.0000    0     1.008   -1.864652   -1.629977   -1.833374
   7 H     1.0000    0     1.008    3.941750   -0.777051    1.285016

--------------------------------
INTERNAL COORDINATES (ANGSTROEM)
--------------------------------
 C      0   0   0     0.000000000000     0.00000000     0.00000000
 C      1   0   0     1.492838757026     0.00000000     0.00000000
 O      2   1   0     1.218757504222   126.55750554     0.00000000
 O      2   1   3     1.345751817372   112.42345805   179.99992916
 H      1   2   3     1.093678652489   109.30454669     0.00000000
 H      1   2   3     1.092755841407   109.81839189   240.92286656
 H      1   2   3     1.092757808198   109.81864086   119.07825154
 H      4   2   1     0.980198864539   104.05249550   179.99975706

---------------------------
INTERNAL COORDINATES (A.U.)
---------------------------
 C      0   0   0     0.000000000000     0.00000000     0.00000000
 C      1   0   0     2.821056412883     0.00000000     0.00000000
 O      2   1   0     2.303117906642   126.55750554     0.00000000
 O      2   1   3     2.543102379060   112.42345805   179.99992916
 H      1   2   3     2.066753131721   109.30454669     0.00000000
 H      1   2   3     2.065009271503   109.81839189   240.92286656
 H      1   2   3     2.065012988198   109.81864086   119.07825154
 H      4   2   1     1.852307410759   104.05249550   179.99975706

---------------------
BASIS SET INFORMATION
---------------------
There are 3 groups of distinct atoms

 Group   1 Type C   : 7s4p1d contracted to 3s2p1d pattern {511/31/1}
 Group   2 Type O   : 7s4p1d contracted to 3s2p1d pattern {511/31/1}
 Group   3 Type H   : 4s1p contracted to 2s1p pattern {31/1}

Atom   0C    basis set group =>   1
Atom   1C    basis set group =>   1
Atom   2O    basis set group =>   2
Atom   3O    basis set group =>   2
Atom   4H    basis set group =>   3
Atom   5H    basis set group =>   3
Atom   6H    basis set group =>   3
Atom   7H    basis set group =>   3
---------------------------------
AUXILIARY/J BASIS SET INFORMATION
---------------------------------
There are 3 groups of distinct atoms

 Group   1 Type C   : 12s5p4d2f1g contracted to 6s4p3d1f1g pattern {711111/2111/211/2/1}
 Group   2 Type O   : 12s5p4d2f1g contracted to 6s4p3d1f1g pattern {711111/2111/211/2/1}
 Group   3 Type H   : 5s2p1d contracted to 3s1p1d pattern {311/2/1}

Atom   0C    basis set group =>   1
Atom   1C    basis set group =>   1
Atom   2O    basis set group =>   2
Atom   3O    basis set group =>   2
Atom   4H    basis set group =>   3
Atom   5H    basis set group =>   3
Atom   6H    basis set group =>   3
Atom   7H    basis set group =>   3


           ************************************************************
           *        Program running with 64 parallel MPI-processes    *
           *              working on a common directory               *
           ************************************************************
------------------------------------------------------------------------------
                             ORCA STARTUP CALCULATIONS
                           -- RI-GTO INTEGRALS CHOSEN --
------------------------------------------------------------------------------
------------------------------------------------------------------------------
                   ___                                                        
                  /   \      - P O W E R E D   B Y -                         
                 /     \                                                     
                 |  |  |   _    _      __       _____    __    __             
                 |  |  |  | |  | |    /  \     |  _  \  |  |  /  |          
                  \  \/   | |  | |   /    \    | | | |  |  | /  /          
                 / \  \   | |__| |  /  /\  \   | |_| |  |  |/  /          
                |  |  |   |  __  | /  /__\  \  |    /   |      \           
                |  |  |   | |  | | |   __   |  |    \   |  |\   \          
                \     /   | |  | | |  |  |  |  | |\  \  |  | \   \       
                 \___/    |_|  |_| |__|  |__|  |_| \__\ |__|  \__/        
                                                                              
                      - O R C A' S   B I G   F R I E N D -                    
                                      &                                       
                       - I N T E G R A L  F E E D E R -                       
                                                                              
 v1 FN, 2020, v2 2021, v3 2022-2024                                           
------------------------------------------------------------------------------


----------------------
SHARK INTEGRAL PACKAGE
----------------------

Number of atoms                             ...      8
Number of basis functions                   ...     76
Number of shells                            ...     36
Maximum angular momentum                    ...      2
Integral batch strategy                     ... SHARK/LIBINT Hybrid
RI-J (if used) integral strategy            ... SPLIT-RIJ (Revised 2003 algorithm where possible)
Printlevel                                  ...      1
Contraction scheme used                     ... SEGMENTED contraction
Prescreening option                         ... SCHWARTZ
   Thresh                                   ... 2.500e-11
   Tcut                                     ... 2.500e-12
   Tpresel                                  ... 2.500e-12 
Coulomb Range Separation                    ... NOT USED
Exchange Range Separation                   ... NOT USED
Multipole approximations                    ... NOT USED
Finite Nucleus Model                        ... NOT USED
CABS basis                                  ... NOT available
Auxiliary Coulomb fitting basis             ... AVAILABLE
   # of basis functions in Aux-J            ...    240
   # of shells in Aux-J                     ...     80
   Maximum angular momentum in Aux-J        ...      4
Auxiliary J/K fitting basis                 ... NOT available
Auxiliary Correlation fitting basis         ... NOT available
Auxiliary 'external' fitting basis          ... NOT available

Checking pre-screening integrals            ... done (  0.0 sec) Dimension = 36
   => SHARK Basis and OBASIS are compatible. Storing Pre-screening
Shell pair information
Shell pair cut-off parameter TPreSel        ...   2.5e-12
Total number of shell pairs                 ...       666
Shell pairs after pre-screening             ...       663
Total number of primitive shell pairs       ...      2410
Primitive shell pairs kept                  ...      1993
          la=0 lb=0:    207 shell pairs
          la=1 lb=0:    240 shell pairs
          la=1 lb=1:     78 shell pairs
          la=2 lb=0:     80 shell pairs
          la=2 lb=1:     48 shell pairs
          la=2 lb=2:     10 shell pairs

Checking whether 4 symmetric matrices of dimension 76 fit in memory
:Max Core in MB      =   2109.00
 MB in use           =      4.11
 MB left             =   2104.89
 MB needed           =      0.09
 Data fit in memory  = YES
Calculating RI/J V-Matrix + Cholesky decomp.... done (  0.3 sec)
Calculating Nuclear repulsion               ... done (  0.0 sec) ENN=    121.192963515417 Eh

Diagonalization of the overlap matrix:
Smallest eigenvalue                        ... 3.325e-03
Time for diagonalization                   ...    0.014 sec
Threshold for overlap eigenvalues          ... 1.000e-07
Number of eigenvalues below threshold      ... 0
Time for construction of square roots      ...    0.072 sec
Total time needed                          ...    0.106 sec

-------------------
DFT GRID GENERATION
-------------------

General Integration Accuracy     IntAcc      ... 4.388
Radial Grid Type                 RadialGrid  ... OptM3 with GC (2021)
Angular Grid (max. ang.)         AngularGrid ... 4 (Lebedev-302)
Angular grid pruning method      GridPruning ... 4 (adaptive)
Weight generation scheme         WeightScheme... mBecke (2022)
Basis function cutoff            BFCut       ... 1.0000e-11
Integration weight cutoff        WCut        ... 1.0000e-14
Partially contracted basis set               ... off
Rotationally invariant grid construction     ... off
Angular grids for H and He will be reduced by one unit

Total number of grid points                  ...    37409
Total number of batches                      ...      590
Average number of points per batch           ...       63
Average number of grid points per atom       ...     4676

--------------------
COSX GRID GENERATION
--------------------

GRIDX 1
-------
General Integration Accuracy     IntAcc      ... 3.816
Radial Grid Type                 RadialGrid  ... OptM3 with GC (2021)
Angular Grid (max. ang.)         AngularGrid ... 1 (Lebedev-50)
Angular grid pruning method      GridPruning ... 4 (adaptive)
Weight generation scheme         WeightScheme... mBecke (2022)
Basis function cutoff            BFCut       ... 1.0000e-11
Integration weight cutoff        WCut        ... 1.0000e-14
Partially contracted basis set               ... on
Rotationally invariant grid construction     ... off
Angular grids for H and He will be reduced by one unit

Total number of grid points                  ...     4795
Total number of batches                      ...       42
Average number of points per batch           ...      114
Average number of grid points per atom       ...      599
UseSFitting                                  ... on

GRIDX 2
-------
General Integration Accuracy     IntAcc      ... 4.020
Radial Grid Type                 RadialGrid  ... OptM3 with GC (2021)
Angular Grid (max. ang.)         AngularGrid ... 2 (Lebedev-110)
Angular grid pruning method      GridPruning ... 4 (adaptive)
Weight generation scheme         WeightScheme... mBecke (2022)
Basis function cutoff            BFCut       ... 1.0000e-11
Integration weight cutoff        WCut        ... 1.0000e-14
Partially contracted basis set               ... on
Rotationally invariant grid construction     ... off
Angular grids for H and He will be reduced by one unit

Total number of grid points                  ...    10541
Total number of batches                      ...       87
Average number of points per batch           ...      121
Average number of grid points per atom       ...     1318
UseSFitting                                  ... on

GRIDX 3
-------
General Integration Accuracy     IntAcc      ... 4.338
Radial Grid Type                 RadialGrid  ... OptM3 with GC (2021)
Angular Grid (max. ang.)         AngularGrid ... 3 (Lebedev-194)
Angular grid pruning method      GridPruning ... 4 (adaptive)
Weight generation scheme         WeightScheme... mBecke (2022)
Basis function cutoff            BFCut       ... 1.0000e-11
Integration weight cutoff        WCut        ... 1.0000e-14
Partially contracted basis set               ... on
Rotationally invariant grid construction     ... off
Angular grids for H and He will be reduced by one unit

Total number of grid points                  ...    23306
Total number of batches                      ...      187
Average number of points per batch           ...      124
Average number of grid points per atom       ...     2913
UseSFitting                                  ... on
Grids setup in   1.4 sec
Initializing property integral containers    ... done (  0.2 sec)

SHARK setup successfully completed in   2.3 seconds

Maximum memory used throughout the entire STARTUP-calculation: 11.2 MB


           ************************************************************
           *        Program running with 64 parallel MPI-processes    *
           *              working on a common directory               *
           ************************************************************
-------------------------------------------------------------------------------
                                 ORCA GUESS
                   Start orbitals & Density for SCF / CASSCF
-------------------------------------------------------------------------------

------------
SCF SETTINGS
------------
Hamiltonian:
 Density Functional     Method          .... DFT(GTOs)
 Exchange Functional    Exchange        .... M062X
 Correlation Functional Correlation     .... M062X
 Gradients option       PostSCFGGA      .... off
 Hybrid DFT is turned on
   Fraction HF Exchange ScalHFX         ....  0.540000
   Scaling of DF-GGA-X  ScalDFX         ....  0.460000
   Scaling of DF-GGA-C  ScalDFC         ....  1.000000
   Scaling of DF-LDA-C  ScalLDAC        ....  1.000000
   Perturbative correction              ....  0.000000
 RI-approximation to the Coulomb term is turned on
   Number of AuxJ basis functions       .... 240
   RIJ-COSX (HFX calculated with COS-X)).... on


General Settings:
 Integral files         IntName         .... /lustre/project/xlzhang/jingyi/chemsmart/test_pka/orca/pka_scale_frag3_pka_HA_opt
 Hartree-Fock type      HFTyp           .... RHF
 Total Charge           Charge          ....    0
 Multiplicity           Mult            ....    1
 Number of Electrons    NEL             ....   32
 Basis Dimension        Dim             ....   76
 Nuclear Repulsion      ENuc            ....    121.1929635154 Eh

Convergence Acceleration:
 AO-DIIS                CNVDIIS         .... on
   Start iteration      DIISMaxIt       ....    12
   Startup error        DIISStart       ....  0.200000
   # of expansion vecs  DIISMaxEq       ....     5
   Bias factor          DIISBfac        ....   1.050
   Max. coefficient     DIISMaxC        ....  10.000
 MO-DIIS                CNVKDIIS        .... off
 Trust-Rad. Augm. Hess. CNVTRAH         .... auto
   Auto Start mean grad. ratio tolernc. ....  1.125000
   Auto Start start iteration           ....    50
   Auto Start num. interpolation iter.  ....    10
   Max. Number of Micro iterations      ....    24
   Max. Number of Macro iterations      .... Maxiter - #DIIS iter
   Number of Davidson start vectors     ....     2
   Converg. threshold    (grad. norm)   ....   1.000e-05
   Grad. Scal. Fac. for Micro threshold ....   0.100
   Minimum threshold for Micro iter.    ....   1.000e-02
   NR start threshold (gradient norm)   ....   1.000e-04
   Initial trust radius                 ....   0.400
   Minimum AH scaling param. (alpha)    ....   1.000
   Maximum AH scaling param. (alpha)    .... 1000.000
   Quad. conv. algorithm                .... NR
   White noise on init. David. guess    .... on
   Maximum white noise                  ....   0.010
   Pseudo random numbers                .... off
   Inactive MOs                         .... canonical
   Orbital update algorithm             .... Taylor
   Preconditioner                       .... Diag
   Full preconditioner red. dimension   ....   250
 SOSCF                 CNVSOSCF           .... on
   Start iteration     SOSCFMaxIt         ....   150
   Startup grad/error  SOSCFStart         ....  0.003300
   Hessian update      SOSCFHessUp        .... L-BFGS
   Autom. constraints  SOSCFAutoConstrain .... off
 Level Shifting         CNVShift        .... on
   Level shift para.    LevelShift      ....    0.2500
   Turn off err/grad.   ShiftErr        ....    0.0010
 Zerner damping         CNVZerner       .... off
 Static damping         CNVDamp         .... on
   Fraction old density DampFac         ....    0.7000
   Max. Damping (<1)    DampMax         ....    0.9800
   Min. Damping (>=0)   DampMin         ....    0.0000
   Turn off err/grad.   DampErr         ....    0.1000

SCF Procedure:
 Maximum # iterations   MaxIter         ....   125
 SCF integral mode      SCFMode         .... Direct
   Integral package                     .... SHARK and LIBINT hybrid scheme
 Reset frequency        DirectResetFreq ....    20
 Integral Threshold     Thresh          ....  2.500e-11 Eh
 Primitive CutOff       TCut            ....  2.500e-12 Eh

Convergence Tolerance:
 Convergence Check Mode ConvCheckMode   .... Total+1el-Energy
 Convergence forced     ConvForced      .... 0
 Energy Change          TolE            ....  1.000e-08 Eh
 1-El. energy change                    ....  1.000e-05 Eh
 Orbital Gradient       TolG            ....  1.000e-05
 Orbital Rotation angle TolX            ....  1.000e-05
 DIIS Error             TolErr          ....  5.000e-07

------------------------------
INITIAL GUESS: MODEL POTENTIAL
------------------------------
Loading Hartree-Fock densities                     ... done
Calculating cut-offs                               ... done
Initializing the effective Hamiltonian             ... done
Setting up the integral package (SHARK)            ... done
Starting the Coulomb interaction                   ... done (   0.1 sec)
Making the grid                                    ... done (   0.3 sec)
Mapping shells                                     ... done
Starting the XC term evaluation                    ... done (   0.0 sec)
  promolecular density results
     # of electrons  =     31.997852150
     EX              =    -27.699708825
     EC              =     -1.056150505
     EX+EC           =    -28.755859330
Transforming the Hamiltonian                       ... done (   0.2 sec)
Diagonalizing the Hamiltonian                      ... done (   0.0 sec)
Back transforming the eigenvectors                 ... done (   0.0 sec)
Now organizing SCF variables                       ... done
                      ------------------
                      INITIAL GUESS DONE (   0.9 sec)
                      ------------------
             **** ENERGY FILE WAS UPDATED (/lustre/project/xlzhang/jingyi/chemsmart/test_pka/orca/pka_scale_frag3_pka_HA_opt.en.tmp) ****
Finished Guess after   4.4 sec
Maximum memory used throughout the entire GUESS-calculation: 6.3 MB


           ************************************************************
           *        Program running with 64 parallel MPI-processes    *
           *              working on a common directory               *
           ************************************************************

-------------------------------------------------------------------------------------------
                                      ORCA LEAN-SCF
                              memory conserving SCF solver
-------------------------------------------------------------------------------------------

----------------------------------------D-I-I-S--------------------------------------------
Iteration    Energy (Eh)           Delta-E    RMSDP     MaxDP     DIISErr   Damp  Time(sec)
-------------------------------------------------------------------------------------------
               ***  Starting incremental Fock matrix formation  ***
    1    -228.6578249769929130     0.00e+00  3.74e-02  8.20e-02  2.60e-01  0.700   1.0
    2    -228.7280936382216510    -7.03e-02  2.42e-02  5.21e-02  1.24e-01  0.700   1.1
                               ***Turning on AO-DIIS***
    3    -228.7578622312151424    -2.98e-02  8.43e-03  2.01e-02  4.73e-02  0.700   0.8
    4    -228.7756736224708902    -1.78e-02  1.42e-02  2.96e-02  2.97e-02  0.000   1.5
    5    -228.8144970527339410    -3.88e-02  2.55e-03  5.03e-03  5.63e-03  0.000   0.9
                              *** Initializing SOSCF ***
---------------------------------------S-O-S-C-F--------------------------------------
Iteration    Energy (Eh)           Delta-E    RMSDP     MaxDP     MaxGrad    Time(sec)
--------------------------------------------------------------------------------------
    6    -228.8146160820846831    -1.19e-04  1.04e-03  2.13e-03  2.25e-03     1.1
               *** Restarting incremental Fock matrix formation ***
    7    -228.8147284196546707    -1.12e-04  7.42e-04  1.44e-03  5.97e-04     0.9
    8    -228.8147322525629193    -3.83e-06  5.96e-04  1.19e-03  1.94e-04     1.5
    9    -228.8147327635843453    -5.11e-07  2.47e-04  5.48e-04  1.46e-04     0.7
   10    -228.8147331682417303    -4.05e-07  5.53e-05  1.38e-04  4.15e-05     1.0
   11    -228.8147331552378319     1.30e-08  3.09e-05  8.34e-05  4.81e-05     0.8
   12    -228.8147331851055810    -2.99e-08  4.01e-06  6.51e-06  3.89e-06     0.8
   13    -228.8147331863545446    -1.25e-09  1.93e-06  3.43e-06  2.26e-06     0.6
                 **** Energy Check signals convergence ****

               *****************************************************
               *                     SUCCESS                       *
               *           SCF CONVERGED AFTER  13 CYCLES          *
               *****************************************************

Recomputing exchange energy using gridx3       ... done (    0.088 sec)
Old exchange energy                            :    -15.229508186 Eh
New exchange energy                            :    -15.229498000 Eh
Exchange energy change after final integration :      0.000010186 Eh
Total energy after final integration           :   -228.814722999 Eh
             **** ENERGY FILE WAS UPDATED (/lustre/project/xlzhang/jingyi/chemsmart/test_pka/orca/pka_scale_frag3_pka_HA_opt.en.tmp) ****

----------------
TOTAL SCF ENERGY
----------------

Total Energy       :       -228.81472299907969 Eh           -6226.36516 eV

Components:
Nuclear Repulsion  :        121.19296351541676 Eh            3297.82820 eV
Electronic Energy  :       -350.00769670060441 Eh           -9524.19363 eV
One Electron Energy:       -551.81570197740984 Eh          -15015.66863 eV
Two Electron Energy:        201.80800527680543 Eh            5491.47500 eV

Virial components:
Potential Energy   :       -455.74438700722737 Eh          -12401.43525 eV
Kinetic Energy     :        226.92966400814771 Eh            6175.07009 eV
Virial Ratio       :          2.00830679849270

DFT components:
N(Alpha)           :       16.000003215079 electrons
N(Beta)            :       16.000003215079 electrons
N(Total)           :       32.000006430158 electrons
E(XC)              :      -14.165573067868 Eh       

---------------
SCF CONVERGENCE
---------------

  Last Energy change         ...    1.2490e-09  Tolerance :   1.0000e-08
  Last MAX-Density change    ...    3.4320e-06  Tolerance :   1.0000e-07
  Last RMS-Density change    ...    1.9307e-06  Tolerance :   5.0000e-09
  Last DIIS Error            ...    2.2464e-03  Tolerance :   5.0000e-07
  Last Orbital Gradient      ...    2.2579e-06  Tolerance :   1.0000e-05
  Last Orbital Rotation      ...    1.2932e-06  Tolerance :   1.0000e-05


----------------
ORBITAL ENERGIES
----------------

  NO   OCC          E(Eh)            E(eV) 
   0   2.0000     -19.677546      -535.4532 
   1   2.0000     -19.621193      -533.9198 
   2   2.0000     -10.689968      -290.8888 
   3   2.0000     -10.567786      -287.5641 
   4   2.0000      -1.219136       -33.1744 
   5   2.0000      -1.113443       -30.2983 
   6   2.0000      -0.851300       -23.1651 
   7   2.0000      -0.687851       -18.7174 
   8   2.0000      -0.569826       -15.5057 
   9   2.0000      -0.562853       -15.3160 
  10   2.0000      -0.553033       -15.0488 
  11   2.0000      -0.474376       -12.9084 
  12   2.0000      -0.469629       -12.7793 
  13   2.0000      -0.467396       -12.7185 
  14   2.0000      -0.389380       -10.5956 
  15   2.0000      -0.353396        -9.6164 
  16   0.0000       0.053716         1.4617 
  17   0.0000       0.092128         2.5069 
  18   0.0000       0.119646         3.2557 
  19   0.0000       0.165265         4.4971 
  20   0.0000       0.176821         4.8116 
  21   0.0000       0.258994         7.0476 
  22   0.0000       0.301564         8.2060 
  23   0.0000       0.350243         9.5306 
  24   0.0000       0.493804        13.4371 
  25   0.0000       0.495971        13.4960 
  26   0.0000       0.533946        14.5294 
*Only the first 10 virtual orbitals were printed.

                    ********************************
                    * MULLIKEN POPULATION ANALYSIS *
                    ********************************

-----------------------
MULLIKEN ATOMIC CHARGES
-----------------------
   0 C :   -0.058098
   1 C :    0.140274
   2 O :   -0.278110
   3 O :   -0.243162
   4 H :    0.070876
   5 H :    0.080829
   6 H :    0.080974
   7 H :    0.206417
Sum of atomic charges:    0.0000000

--------------------------------
MULLIKEN REDUCED ORBITAL CHARGES
--------------------------------
  0 C s       :     2.997329  s :     2.997329
      pz      :     1.042642  p :     3.038431
      px      :     0.952527
      py      :     1.043263
      dz2     :     0.003890  d :     0.022339
      dxz     :     0.003509
      dyz     :     0.005488
      dx2y2   :     0.006001
      dxy     :     0.003452

  1 C s       :     3.091493  s :     3.091493
      pz      :     0.800026  p :     2.635212
      px      :     0.997339
      py      :     0.837847
      dz2     :     0.011379  d :     0.133021
      dxz     :     0.012244
      dyz     :     0.030089
      dx2y2   :     0.038925
      dxy     :     0.040384

  2 O s       :     3.760678  s :     3.760678
      pz      :     1.440364  p :     4.498365
      px      :     1.660672
      py      :     1.397329
      dz2     :     0.002266  d :     0.019067
      dxz     :     0.001356
      dyz     :     0.004806
      dx2y2   :     0.005113
      dxy     :     0.005525

  3 O s       :     3.702427  s :     3.702427
      pz      :     1.719795  p :     4.526180
      px      :     1.258798
      py      :     1.547587
      dz2     :     0.002133  d :     0.014554
      dxz     :     0.000502
      dyz     :     0.003332
      dx2y2   :     0.003428
      dxy     :     0.005159

  4 H s       :     0.906964  s :     0.906964
      pz      :     0.005420  p :     0.022160
      px      :     0.005265
      py      :     0.011475

  5 H s       :     0.895782  s :     0.895782
      pz      :     0.011947  p :     0.023389
      px      :     0.006109
      py      :     0.005333

  6 H s       :     0.895627  s :     0.895627
      pz      :     0.009319  p :     0.023399
      px      :     0.003793
      py      :     0.010287

  7 H s       :     0.729017  s :     0.729017
      pz      :     0.015681  p :     0.064566
      px      :     0.033510
      py      :     0.015375



                     *******************************
                     * LOEWDIN POPULATION ANALYSIS *
                     *******************************

----------------------
LOEWDIN ATOMIC CHARGES
----------------------
   0 C :   -0.084194
   1 C :    0.101149
   2 O :   -0.210190
   3 O :   -0.070023
   4 H :    0.048928
   5 H :    0.054064
   6 H :    0.054044
   7 H :    0.106222

-------------------------------
LOEWDIN REDUCED ORBITAL CHARGES
-------------------------------
  0 C s       :     2.838802  s :     2.838802
      pz      :     1.073449  p :     3.179787
      px      :     1.025489
      py      :     1.080849
      dz2     :     0.010658  d :     0.065604
      dxz     :     0.010856
      dyz     :     0.015442
      dx2y2   :     0.017405
      dxy     :     0.011243

  1 C s       :     2.852122  s :     2.852122
      pz      :     0.799359  p :     2.757777
      px      :     1.000549
      py      :     0.957869
      dz2     :     0.024099  d :     0.288952
      dxz     :     0.022050
      dyz     :     0.060937
      dx2y2   :     0.087714
      dxy     :     0.094152

  2 O s       :     3.555867  s :     3.555867
      pz      :     1.437831  p :     4.623329
      px      :     1.686056
      py      :     1.499442
      dz2     :     0.004246  d :     0.030994
      dxz     :     0.001642
      dyz     :     0.006172
      dx2y2   :     0.008640
      dxy     :     0.010294

  3 O s       :     3.438935  s :     3.438935
      pz      :     1.690822  p :     4.604156
      px      :     1.315659
      py      :     1.597674
      dz2     :     0.003814  d :     0.026932
      dxz     :     0.001587
      dyz     :     0.004781
      dx2y2   :     0.006838
      dxy     :     0.009912

  4 H s       :     0.885191  s :     0.885191
      pz      :     0.016303  p :     0.065881
      px      :     0.017978
      py      :     0.031601

  5 H s       :     0.878489  s :     0.878489
      pz      :     0.033171  p :     0.067448
      px      :     0.019166
      py      :     0.015111

  6 H s       :     0.878509  s :     0.878509
      pz      :     0.025834  p :     0.067447
      px      :     0.012923
      py      :     0.028690

  7 H s       :     0.723167  s :     0.723167
      pz      :     0.042499  p :     0.170611
      px      :     0.084497
      py      :     0.043614



                      *****************************
                      * MAYER POPULATION ANALYSIS *
                      *****************************

  NA   - Mulliken gross atomic population
  ZA   - Total nuclear charge
  QA   - Mulliken gross atomic charge
  VA   - Mayer's total valence
  BVA  - Mayer's bonded valence
  FA   - Mayer's free valence

  ATOM       NA         ZA         QA         VA         BVA        FA
  0 C      6.0581     6.0000    -0.0581     3.8648     3.8648     0.0000
  1 C      5.8597     6.0000     0.1403     4.3610     4.3610     0.0000
  2 O      8.2781     8.0000    -0.2781     2.1960     2.1960     0.0000
  3 O      8.2432     8.0000    -0.2432     2.1608     2.1608     0.0000
  4 H      0.9291     1.0000     0.0709     1.0012     1.0012     0.0000
  5 H      0.9192     1.0000     0.0808     0.9916     0.9916     0.0000
  6 H      0.9190     1.0000     0.0810     0.9916     0.9916     0.0000
  7 H      0.7936     1.0000     0.2064     1.0193     1.0193     0.0000

  Mayer bond orders larger than 0.100000
B(  0-C ,  1-C ) :   1.0206 B(  0-C ,  4-H ) :   0.9653 B(  0-C ,  5-H ) :   0.9518 
B(  0-C ,  6-H ) :   0.9519 B(  1-C ,  2-O ) :   2.0762 B(  1-C ,  3-O ) :   1.1815 
B(  3-O ,  7-H ) :   0.9424 

-------
TIMINGS
-------

Total SCF time: 0 days 0 hours 0 min 17 sec 

Total time                  ....      17.442 sec
Sum of individual times     ....      16.226 sec  ( 93.0%)

SCF preparation             ....       3.064 sec  ( 17.6%)
Fock matrix formation       ....      11.281 sec  ( 64.7%)
  Startup                   ....       0.119 sec  (  1.1% of F)
  Split-RI-J                ....       0.925 sec  (  8.2% of F)
  Chain of spheres X        ....       1.714 sec  ( 15.2% of F)
  XC integration            ....       5.104 sec  ( 45.2% of F)
    XC Preparation          ....       0.000 sec  (  0.0% of XC)
    Basis function eval.    ....       0.011 sec  (  0.2% of XC)
    Density eval.           ....       0.013 sec  (  0.3% of XC)
    XC-Functional eval.     ....       0.007 sec  (  0.1% of XC)
    XC-Potential eval.      ....       0.015 sec  (  0.3% of XC)
Diagonalization             ....       0.000 sec  (  0.0%)
Density matrix formation    ....       0.661 sec  (  3.8%)
Total Energy calculation    ....       0.088 sec  (  0.5%)
Population analysis         ....       0.122 sec  (  0.7%)
Orbital Transformation      ....       0.289 sec  (  1.7%)
Orbital Orthonormalization  ....       0.000 sec  (  0.0%)
DIIS solution               ....       0.355 sec  (  2.0%)
SOSCF solution              ....       0.366 sec  (  2.1%)
Finished LeanSCF after  17.7 sec

Maximum memory used throughout the entire LEANSCF-calculation: 6.7 MB


           ************************************************************
           *        Program running with 64 parallel MPI-processes    *
           *              working on a common directory               *
           ************************************************************

------------------------------------------------------------------------------
                         ORCA PROPERTY INTEGRAL CALCULATIONS
------------------------------------------------------------------------------

GBWName                                   ... /lustre/project/xlzhang/jingyi/chemsmart/test_pka/orca/pka_scale_frag3_pka_HA_opt.gbw
Number of atoms                           ...      8
Number of basis functions                 ...     76
Max core memory                           ...   2109 MB

Dipole integrals                          ... YES
Quadrupole integrals                      ...  NO
Linear momentum integrals                 ...  NO
Angular momentum integrals                ...  NO
Higher moments length integrals           ...  NO
Higher moments velocity integrals         ...  NO
Kinetic energy integrals                  ...  NO
GIAO right hand sides                     ...  NO
GIAO dipole derivative integrals          ...  NO
SOC integrals                             ...  NO
EPR diamagnetic integrals (GIAO)          ...  NO
EPR gauge integrals                       ...  NO
Field gradient integrals                  ...  NO (   0 nuclei)
Spin-dipole/Fermi contact integrals       ...  NO (   0 nuclei)
Contact density integrals                 ...  NO (   0 nuclei)
Nucleus-orbit integrals                   ...  NO (   0 nuclei)
Geometric perturbations                   ...  NO (   8 nuclei)

Choice of electric origin   ... Center of mass
Position of electric origin ... (  0.8921,  0.3551,  0.1299) 
Choice of magnetic origin   ... GIAO
Position of magnetic origin ... (  0.0000,  0.0000,  0.0000) 

Calculating integrals                     ... Electric Dipole (Length)     done (  0.1 sec)

Property integrals calculated in   0.1 sec

Maximum memory used throughout the entire PROPINT-calculation: 6.5 MB

-------------------------   --------------------
FINAL SINGLE POINT ENERGY      -228.814722999080
-------------------------   --------------------



           ************************************************************
           *        Program running with 64 parallel MPI-processes    *
           *              working on a common directory               *
           ************************************************************
------------------------------------------------------------------------------
                         ORCA SCF GRADIENT CALCULATION
------------------------------------------------------------------------------

Nuc. rep. gradient        (SHARK) ... done (  0.0 sec)
HCore & Overlap gradient  (SHARK) ... done (  0.1 sec)
Split-RIJ-J gradient      (SHARK) ... done (  0.2 sec)
done (  0.3 sec)
XC gradient                       ... done (  0.1 sec)

------------------
CARTESIAN GRADIENT
------------------

   1   C   :    0.003942324   -0.009101819    0.003886489
   2   C   :   -0.021354726   -0.024560552    0.001687122
   3   O   :    0.016714208    0.027180743   -0.003793108
   4   O   :   -0.006698227   -0.009087976    0.001041975
   5   H   :   -0.000977335   -0.001626308    0.000260570
   6   H   :    0.000703971    0.005094730   -0.001991439
   7   H   :    0.000481028    0.005442310   -0.000967703
   8   H   :    0.007188758    0.006658872   -0.000123905

Difference to translation invariance:
           :    0.0000000001    0.0000000003   -0.0000000000

Difference to rotation invariance:
           :    0.0000030211   -0.0000040898    0.0001927656

Norm of the Cartesian gradient     ...    0.0499757553
RMS gradient                       ...    0.0102012583
MAX gradient                       ...    0.0271807431

-------
TIMINGS
-------

Total SCF gradient time     ....        0.724 sec

Densities                   ....       0.014 sec  (  2.0%)
One electron gradient       ....       0.102 sec  ( 14.1%)
RI-J Coulomb gradient       ....       0.213 sec  ( 29.5%)
COSX gradient               ....       0.312 sec  ( 43.1%)
XC gradient                 ....       0.067 sec  (  9.3%)

Maximum memory used throughout the entire SCFGRAD-calculation: 8.9 MB
------------------------------------------------------------------------------
                         ORCA GEOMETRY RELAXATION STEP
------------------------------------------------------------------------------

Reading the OPT-File                    .... done
Getting information on internals        .... done
Copying old internal coords+grads       .... done
Making the new internal coordinates     .... (2022 redundants) done
Validating the new internal coordinates .... (2022 redundants) done
Calculating the B-matrix                .... done
Calculating the G,G- and P matrices     .... done
Transforming gradient to internals      .... done
Projecting the internal gradient        .... done
Number of atoms                         ....   8
Number of internal coordinates          ....  24
Current Energy                          ....  -228.814722999 Eh
Current gradient norm                   ....     0.049975755 Eh/bohr
Maximum allowed component of the step   ....  0.300
Current trust radius                    ....  0.300
Evaluating the initial hessian          ....  (Almloef) done
Projecting the Hessian                  .... done
Forming the augmented Hessian           .... done
Diagonalizing the augmented Hessian     .... done
Last element of RFO vector              ....  0.998272657
Lowest eigenvalues of augmented Hessian:
 -0.001695405  0.013545583  0.018509595  0.032102518  0.139413774
Length of the computed step             ....  0.058852856
The final length of the internal step   ....  0.058852856
Converting the step to Cartesian space:
 Initial RMS(Int)=    0.0120132889
Transforming coordinates:
 Iter   0:  RMS(Cart)=    0.0110938634 RMS(Int)=    0.0120005715
done
Storing new coordinates                 .... done

                                .--------------------.
          ----------------------|Geometry convergence|-------------------------
          Item                value                   Tolerance       Converged
          ---------------------------------------------------------------------
          RMS gradient        0.0072840812            0.0001000000      NO
          MAX gradient        0.0319935699            0.0003000000      NO
          RMS step            0.0120132889            0.0020000000      NO
          MAX step            0.0304284556            0.0040000000      NO
          -------------------------------------------------------------------------
          ........................................................
          Max(Bonds)      0.0161      Max(Angles)    1.25
          Max(Dihed)        1.03      Max(Improp)    0.00
          ---------------------------------------------------------------------

The optimization has not yet converged - more geometry cycles are needed


    ---------------------------------------------------------------------------
                         Redundant Internal Coordinates
                            (Angstroem and degrees)

        Definition                    Value    dE/dq     Step     New-Value
    ----------------------------------------------------------------------------
     1. B(C   1,C   0)                1.4928 -0.004148  0.0051    1.4979   
     2. B(O   2,C   1)                1.2188  0.031994 -0.0161    1.2027   
     3. B(O   3,C   1)                1.3458  0.002485 -0.0020    1.3438   
     4. B(H   4,C   0)                1.0937 -0.000946  0.0014    1.0951   
     5. B(H   5,C   0)                1.0928 -0.003397  0.0050    1.0978   
     6. B(H   6,C   0)                1.0928 -0.003369  0.0050    1.0977   
     7. B(H   7,O   3)                0.9802  0.009010 -0.0098    0.9704   
     8. A(H   5,C   0,H   6)          110.61  0.004026   -1.25    109.36   
     9. A(H   4,C   0,H   6)          108.63 -0.002914    0.75    109.38   
    10. A(C   1,C   0,H   4)          109.30  0.000865    0.06    109.36   
    11. A(C   1,C   0,H   5)          109.82  0.000321   -0.14    109.68   
    12. A(H   4,C   0,H   5)          108.63 -0.002225    0.73    109.35   
    13. A(C   1,C   0,H   6)          109.82 -0.000150   -0.11    109.71   
    14. A(O   2,C   1,O   3)          121.02 -0.003856    0.48    121.49   
    15. A(C   0,C   1,O   3)          112.42  0.000842   -0.10    112.32   
    16. A(C   0,C   1,O   2)          126.56  0.003014   -0.37    126.18   
    17. A(C   1,O   3,H   7)          104.05 -0.007093    1.10    105.15   
    18. D(O   2,C   1,C   0,H   5)   -119.08  0.002208   -0.69   -119.77   
    19. D(O   2,C   1,C   0,H   4)      0.00  0.000208    0.14      0.14   
    20. D(O   3,C   1,C   0,H   4)   -180.00 -0.000822    0.45   -179.55   
    21. D(O   3,C   1,C   0,H   5)     60.92  0.001177   -0.39     60.54   
    22. D(O   2,C   1,C   0,H   6)    119.08 -0.002916    1.03    120.11   
    23. D(H   7,O   3,C   1,O   2)     -0.00 -0.000502    0.18      0.18   
    24. D(H   7,O   3,C   1,C   0)    180.00  0.000464   -0.11    179.89   
    ----------------------------------------------------------------------------

Geometry step timings:
Preparation and reading OPT file:      0.000 s ( 0.241 %)
Internal coordinates            :      0.000 s ( 0.122 %)
B/P matrices and projection     :      0.000 s ( 0.668 %)
Hessian update/contruction      :      0.007 s (26.957 %)
Making the step                 :      0.000 s ( 0.746 %)
Converting the step to Cartesian:      0.000 s ( 0.189 %)
Storing new data                :      0.000 s ( 0.408 %)
Checking convergence            :      0.000 s ( 0.148 %)
Final printing                  :      0.019 s (70.498 %)
Total time                      :      0.027 s

Time for energy+gradient        :     35.242 s
Time for complete geometry iter :     44.494 s

         *************************************************************
         *                GEOMETRY OPTIMIZATION CYCLE   2            *
         *************************************************************
---------------------------------
CARTESIAN COORDINATES (ANGSTROEM)
---------------------------------
  C     -0.933722   -0.052780   -0.232455
  C      0.497737    0.287928    0.048046
  O      1.022644    1.354486   -0.134453
  O      1.183798   -0.756871    0.541409
  H     -1.443462    0.827243   -0.638565
  H     -1.428678   -0.363308    0.696899
  H     -0.983270   -0.871448   -0.962080
  H      2.084952   -0.425250    0.681200

----------------------------
CARTESIAN COORDINATES (A.U.)
----------------------------
  NO LB      ZA    FRAG     MASS         X           Y           Z
   0 C     6.0000    0    12.011   -1.764478   -0.099740   -0.439277
   1 C     6.0000    0    12.011    0.940587    0.544104    0.090795
   2 O     8.0000    0    15.999    1.932516    2.559608   -0.254079
   3 O     8.0000    0    15.999    2.237054   -1.430278    1.023114
   4 H     1.0000    0     1.008   -2.727748    1.563263   -1.206713
   5 H     1.0000    0     1.008   -2.699810   -0.686553    1.316948
   6 H     1.0000    0     1.008   -1.858110   -1.646798   -1.818068
   7 H     1.0000    0     1.008    3.939989   -0.803606    1.287281

--------------------------------
INTERNAL COORDINATES (ANGSTROEM)
--------------------------------
 C      0   0   0     0.000000000000     0.00000000     0.00000000
 C      1   0   0     1.497944757036     0.00000000     0.00000000
 O      2   1   0     1.202655459111   126.18393602     0.00000000
 O      2   1   3     1.343759311114   112.32115426   180.30700218
 H      1   2   3     1.095080570174   109.35886495     0.14217939
 H      1   2   3     1.097774267415   109.67416721   240.23089358
 H      1   2   3     1.097735727285   109.70782716   120.10528203
 H      4   2   1     0.970357094057   105.14818908   179.88670103

---------------------------
INTERNAL COORDINATES (A.U.)
---------------------------
 C      0   0   0     0.000000000000     0.00000000     0.00000000
 C      1   0   0     2.830705354541     0.00000000     0.00000000
 O      2   1   0     2.272689451185   126.18393602     0.00000000
 O      2   1   3     2.539337087912   112.32115426   180.30700218
 H      1   2   3     2.069402372207   109.35886495     0.14217939
 H      1   2   3     2.074492722280   109.67416721   240.23089358
 H      1   2   3     2.074419891989   109.70782716   120.10528203
 H      4   2   1     1.833709159875   105.14818908   179.88670103



           ************************************************************
           *        Program running with 64 parallel MPI-processes    *
           *              working on a common directory               *
           ************************************************************
------------------------------------------------------------------------------
                   ___                                                        
                  /   \      - P O W E R E D   B Y -                         
                 /     \                                                     
                 |  |  |   _    _      __       _____    __    __             
                 |  |  |  | |  | |    /  \     |  _  \  |  |  /  |          
                  \  \/   | |  | |   /    \    | | | |  |  | /  /          
                 / \  \   | |__| |  /  /\  \   | |_| |  |  |/  /          
                |  |  |   |  __  | /  /__\  \  |    /   |      \           
                |  |  |   | |  | | |   __   |  |    \   |  |\   \          
                \     /   | |  | | |  |  |  |  | |\  \  |  | \   \       
                 \___/    |_|  |_| |__|  |__|  |_| \__\ |__|  \__/        
                                                                              
                      - O R C A' S   B I G   F R I E N D -                    
                                      &                                       
                       - I N T E G R A L  F E E D E R -                       
                                                                              
 v1 FN, 2020, v2 2021, v3 2022-2024                                           
------------------------------------------------------------------------------


----------------------
SHARK INTEGRAL PACKAGE
----------------------

Number of atoms                             ...      8
Number of basis functions                   ...     76
Number of shells                            ...     36
Maximum angular momentum                    ...      2
Integral batch strategy                     ... SHARK/LIBINT Hybrid
RI-J (if used) integral strategy            ... SPLIT-RIJ (Revised 2003 algorithm where possible)
Printlevel                                  ...      1
Contraction scheme used                     ... SEGMENTED contraction
Prescreening option                         ... SCHWARTZ
   Thresh                                   ... 2.500e-11
   Tcut                                     ... 2.500e-12
   Tpresel                                  ... 2.500e-12 
Coulomb Range Separation                    ... NOT USED
Exchange Range Separation                   ... NOT USED
Multipole approximations                    ... NOT USED
Finite Nucleus Model                        ... NOT USED
CABS basis                                  ... NOT available
Auxiliary Coulomb fitting basis             ... AVAILABLE
   # of basis functions in Aux-J            ...    240
   # of shells in Aux-J                     ...     80
   Maximum angular momentum in Aux-J        ...      4
Auxiliary J/K fitting basis                 ... NOT available
Auxiliary Correlation fitting basis         ... NOT available
Auxiliary 'external' fitting basis          ... NOT available

Checking pre-screening integrals            ... done (  0.0 sec) Dimension = 36
   => SHARK Basis and OBASIS are compatible. Storing Pre-screening
Shell pair information
Shell pair cut-off parameter TPreSel        ...   2.5e-12
Total number of shell pairs                 ...       666
Shell pairs after pre-screening             ...       663
Total number of primitive shell pairs       ...      2410
Primitive shell pairs kept                  ...      1994
          la=0 lb=0:    207 shell pairs
          la=1 lb=0:    240 shell pairs
          la=1 lb=1:     78 shell pairs
          la=2 lb=0:     80 shell pairs
          la=2 lb=1:     48 shell pairs
          la=2 lb=2:     10 shell pairs

Checking whether 4 symmetric matrices of dimension 76 fit in memory
:Max Core in MB      =   2109.00
 MB in use           =      4.15
 MB left             =   2104.85
 MB needed           =      0.09
 Data fit in memory  = YES
Calculating RI/J V-Matrix + Cholesky decomp.... done (  0.3 sec)
Calculating Nuclear repulsion               ... done (  0.0 sec) ENN=    121.574484362058 Eh

Diagonalization of the overlap matrix:
Smallest eigenvalue                        ... 3.396e-03
Time for diagonalization                   ...    0.002 sec
Threshold for overlap eigenvalues          ... 1.000e-07
Number of eigenvalues below threshold      ... 0
Time for construction of square roots      ...    0.007 sec
Total time needed                          ...    0.032 sec

-------------------
DFT GRID GENERATION
-------------------

General Integration Accuracy     IntAcc      ... 4.388
Radial Grid Type                 RadialGrid  ... OptM3 with GC (2021)
Angular Grid (max. ang.)         AngularGrid ... 4 (Lebedev-302)
Angular grid pruning method      GridPruning ... 4 (adaptive)
Weight generation scheme         WeightScheme... mBecke (2022)
Basis function cutoff            BFCut       ... 1.0000e-11
Integration weight cutoff        WCut        ... 1.0000e-14
Partially contracted basis set               ... off
Rotationally invariant grid construction     ... off
Angular grids for H and He will be reduced by one unit

Total number of grid points                  ...    37414
Total number of batches                      ...      590
Average number of points per batch           ...       63
Average number of grid points per atom       ...     4677

--------------------
COSX GRID GENERATION
--------------------

GRIDX 1
-------
General Integration Accuracy     IntAcc      ... 3.816
Radial Grid Type                 RadialGrid  ... OptM3 with GC (2021)
Angular Grid (max. ang.)         AngularGrid ... 1 (Lebedev-50)
Angular grid pruning method      GridPruning ... 4 (adaptive)
Weight generation scheme         WeightScheme... mBecke (2022)
Basis function cutoff            BFCut       ... 1.0000e-11
Integration weight cutoff        WCut        ... 1.0000e-14
Partially contracted basis set               ... on
Rotationally invariant grid construction     ... off
Angular grids for H and He will be reduced by one unit

Total number of grid points                  ...     4796
Total number of batches                      ...       42
Average number of points per batch           ...      114
Average number of grid points per atom       ...      600
UseSFitting                                  ... on

GRIDX 2
-------
General Integration Accuracy     IntAcc      ... 4.020
Radial Grid Type                 RadialGrid  ... OptM3 with GC (2021)
Angular Grid (max. ang.)         AngularGrid ... 2 (Lebedev-110)
Angular grid pruning method      GridPruning ... 4 (adaptive)
Weight generation scheme         WeightScheme... mBecke (2022)
Basis function cutoff            BFCut       ... 1.0000e-11
Integration weight cutoff        WCut        ... 1.0000e-14
Partially contracted basis set               ... on
Rotationally invariant grid construction     ... off
Angular grids for H and He will be reduced by one unit

Total number of grid points                  ...    10539
Total number of batches                      ...       87
Average number of points per batch           ...      121
Average number of grid points per atom       ...     1317
UseSFitting                                  ... on

GRIDX 3
-------
General Integration Accuracy     IntAcc      ... 4.338
Radial Grid Type                 RadialGrid  ... OptM3 with GC (2021)
Angular Grid (max. ang.)         AngularGrid ... 3 (Lebedev-194)
Angular grid pruning method      GridPruning ... 4 (adaptive)
Weight generation scheme         WeightScheme... mBecke (2022)
Basis function cutoff            BFCut       ... 1.0000e-11
Integration weight cutoff        WCut        ... 1.0000e-14
Partially contracted basis set               ... on
Rotationally invariant grid construction     ... off
Angular grids for H and He will be reduced by one unit

Total number of grid points                  ...    23306
Total number of batches                      ...      186
Average number of points per batch           ...      125
Average number of grid points per atom       ...     2913
UseSFitting                                  ... on
Grids setup in   1.0 sec
Initializing property integral containers    ... done (  0.2 sec)

SHARK setup successfully completed in   2.1 seconds

Maximum memory used throughout the entire STARTUP-calculation: 11.2 MB


           ************************************************************
           *        Program running with 64 parallel MPI-processes    *
           *              working on a common directory               *
           ************************************************************
Occupation numbers will be reassigned to an Aufbau configuration
             **** ENERGY FILE WAS UPDATED (/lustre/project/xlzhang/jingyi/chemsmart/test_pka/orca/pka_scale_frag3_pka_HA_opt.en.tmp) ****
Finished Guess after   3.9 sec
Maximum memory used throughout the entire GUESS-calculation: 6.4 MB


           ************************************************************
           *        Program running with 64 parallel MPI-processes    *
           *              working on a common directory               *
           ************************************************************
----------------------------------------D-I-I-S--------------------------------------------
Iteration    Energy (Eh)           Delta-E    RMSDP     MaxDP     DIISErr   Damp  Time(sec)
-------------------------------------------------------------------------------------------
               ***  Starting incremental Fock matrix formation  ***
    1    -228.8154913420992784     0.00e+00  1.17e-03  1.80e-03  7.66e-03  0.700   1.6
    2    -228.8155825776235588    -9.12e-05  9.99e-04  1.58e-03  5.08e-03  0.700   0.9
                               ***Turning on AO-DIIS***
    3    -228.8156499108625326    -6.73e-05  7.95e-04  1.45e-03  3.32e-03  0.700   0.7
                              *** Initializing SOSCF ***
---------------------------------------S-O-S-C-F--------------------------------------
Iteration    Energy (Eh)           Delta-E    RMSDP     MaxDP     MaxGrad    Time(sec)
--------------------------------------------------------------------------------------
    4    -228.8156988146947697    -4.89e-05  2.07e-03  3.74e-03  2.74e-03     0.9
               *** Restarting incremental Fock matrix formation ***
    5    -228.8158256029829545    -1.27e-04  2.37e-04  4.17e-04  1.29e-04     0.5
    6    -228.8158260922901945    -4.89e-07  1.17e-04  2.26e-04  1.14e-04     0.9
    7    -228.8158262420096776    -1.50e-07  3.88e-05  1.13e-04  3.95e-05     0.6
    8    -228.8158262489993149    -6.99e-09  2.13e-05  6.39e-05  3.02e-05     0.7
                 **** Energy Check signals convergence ****

               *****************************************************
               *                     SUCCESS                       *
               *           SCF CONVERGED AFTER   8 CYCLES          *
               *****************************************************

Recomputing exchange energy using gridx3       ... done (    0.063 sec)
Old exchange energy                            :    -15.237861666 Eh
New exchange energy                            :    -15.237843442 Eh
Exchange energy change after final integration :      0.000018224 Eh
Total energy after final integration           :   -228.815808037 Eh
             **** ENERGY FILE WAS UPDATED (/lustre/project/xlzhang/jingyi/chemsmart/test_pka/orca/pka_scale_frag3_pka_HA_opt.en.tmp) ****

----------------
TOTAL SCF ENERGY
----------------

Total Energy       :       -228.81580803659122 Eh           -6226.39468 eV

Components:
Nuclear Repulsion  :        121.57448436205827 Eh            3308.20991 eV
Electronic Energy  :       -350.39031062252690 Eh           -9534.60508 eV
One Electron Energy:       -552.55934734564221 Eh          -15035.90425 eV
Two Electron Energy:        202.16903672311531 Eh            5501.29917 eV

Virial components:
Potential Energy   :       -455.80164679855841 Eh          -12402.99337 eV
Kinetic Energy     :        226.98583876196719 Eh            6176.59868 eV
Virial Ratio       :          2.00806204159962

DFT components:
N(Alpha)           :       16.000004045474 electrons
N(Beta)            :       16.000004045474 electrons
N(Total)           :       32.000008090947 electrons
E(XC)              :      -14.171075253116 Eh       

---------------
SCF CONVERGENCE
---------------

  Last Energy change         ...    6.9896e-09  Tolerance :   1.0000e-08
  Last MAX-Density change    ...    6.3862e-05  Tolerance :   1.0000e-07
  Last RMS-Density change    ...    2.1268e-05  Tolerance :   5.0000e-09
  Last DIIS Error            ...    2.7361e-03  Tolerance :   5.0000e-07
  Last Orbital Gradient      ...    3.0177e-05  Tolerance :   1.0000e-05
  Last Orbital Rotation      ...    2.5116e-05  Tolerance :   1.0000e-05


Total SCF time: 0 days 0 hours 0 min 12 sec 
Finished LeanSCF after  12.4 sec

Maximum memory used throughout the entire LEANSCF-calculation: 6.8 MB


           ************************************************************
           *        Program running with 64 parallel MPI-processes    *
           *              working on a common directory               *
           ************************************************************

------------------------------------------------------------------------------
                         ORCA PROPERTY INTEGRAL CALCULATIONS
------------------------------------------------------------------------------

GBWName                                   ... /lustre/project/xlzhang/jingyi/chemsmart/test_pka/orca/pka_scale_frag3_pka_HA_opt.gbw
Number of atoms                           ...      8
Number of basis functions                 ...     76
Max core memory                           ...   2109 MB

Dipole integrals                          ... YES
Quadrupole integrals                      ...  NO
Linear momentum integrals                 ...  NO
Angular momentum integrals                ...  NO
Higher moments length integrals           ...  NO
Higher moments velocity integrals         ...  NO
Kinetic energy integrals                  ...  NO
GIAO right hand sides                     ...  NO
GIAO dipole derivative integrals          ...  NO
SOC integrals                             ...  NO
EPR diamagnetic integrals (GIAO)          ...  NO
EPR gauge integrals                       ...  NO
Field gradient integrals                  ...  NO (   0 nuclei)
Spin-dipole/Fermi contact integrals       ...  NO (   0 nuclei)
Contact density integrals                 ...  NO (   0 nuclei)
Nucleus-orbit integrals                   ...  NO (   0 nuclei)
Geometric perturbations                   ...  NO (   8 nuclei)

Choice of electric origin   ... Center of mass
Position of electric origin ... (  0.8899,  0.3633,  0.1281) 
Choice of magnetic origin   ... GIAO
Position of magnetic origin ... (  0.0000,  0.0000,  0.0000) 

Calculating integrals                     ... Electric Dipole (Length)     done (  0.0 sec)

Property integrals calculated in   0.0 sec

Maximum memory used throughout the entire PROPINT-calculation: 6.5 MB

-------------------------   --------------------
FINAL SINGLE POINT ENERGY      -228.815808036591
-------------------------   --------------------



           ************************************************************
[...]
     21       0.000000   0.000000   0.000000   0.000000   0.000000   0.000000
     22       0.000000   0.000000   0.000000   0.000000   0.000000   0.000000
     23       0.000000   0.000000   0.000000   0.000000   0.000000   0.000000
                  6          7          8          9         10         11    
      0       0.000705   0.063153  -0.007983   0.249113  -0.012670  -0.267890
      1      -0.001338  -0.162651  -0.003411   0.076513   0.012653  -0.067699
      2      -0.002171   0.060072  -0.009700   0.043533   0.037779  -0.050076
      3       0.002836   0.003227  -0.053912   0.121569  -0.034420   0.126038
      4      -0.002186   0.146204   0.048196   0.010301   0.033923   0.092365
      5      -0.009848  -0.032224   0.186178   0.052323   0.132399   0.001018
      6      -0.012585   0.146657   0.021925  -0.242897   0.015420   0.052321
      7       0.013178   0.087422  -0.019260   0.152974  -0.016769   0.173981
      8       0.049208   0.013005  -0.048091  -0.110696  -0.063845  -0.029756
      9       0.011562  -0.207468   0.006744  -0.088755   0.029967   0.110428
     10      -0.012251   0.004536   0.004298  -0.196020  -0.026749  -0.145311
     11      -0.046300  -0.057362  -0.007471   0.027299  -0.098224   0.070135
     12       0.130925  -0.365266   0.074293   0.380530   0.049199  -0.354887
     13      -0.169118  -0.438586  -0.065589   0.146396  -0.028421  -0.109276
     14      -0.490807   0.017035  -0.231450   0.037940  -0.117316  -0.064728
     15      -0.123638   0.309482  -0.351773   0.178239  -0.261818  -0.376842
     16       0.568240  -0.309474  -0.081242   0.097128  -0.092229  -0.053599
     17       0.119676   0.142610  -0.220121   0.010456  -0.132103  -0.095569
     18      -0.032194   0.375830   0.368048   0.233059   0.271876  -0.378205
     19      -0.370751  -0.275615   0.007851   0.099122   0.049914  -0.044020
     20       0.465900   0.181354  -0.051974   0.019679  -0.032560  -0.084393
     21      -0.001049  -0.145806   0.191918   0.055234  -0.218530   0.217040
     22      -0.001103  -0.239910  -0.157193  -0.693862   0.206473  -0.542063
     23       0.002280   0.031204  -0.717427   0.113401   0.826546   0.188351
                 12         13         14         15         16         17    
      0       0.019952   0.037693   0.022004   0.094023   0.156891  -0.037661
      1      -0.163996  -0.041950  -0.055268   0.046069  -0.018903  -0.031988
      2       0.047424  -0.160794   0.021536   0.011180   0.039985   0.022051
      3       0.045122  -0.055888  -0.081622   0.113477  -0.180369   0.094421
      4      -0.006259   0.056065   0.061427  -0.056649   0.099449  -0.042175
      5       0.017005   0.205994  -0.038242   0.045461  -0.077243   0.048529
      6       0.031648   0.012790   0.037830  -0.015349   0.007968  -0.017190
      7       0.024438  -0.009663   0.091498   0.015347  -0.044085  -0.001573
      8       0.001104  -0.043166  -0.013997  -0.008208   0.013996  -0.005583
      9      -0.066847   0.011140   0.009443  -0.049391   0.062635  -0.028545
     10       0.080509  -0.011134  -0.165576   0.003385  -0.019457   0.012750
     11      -0.040011  -0.030935   0.045167  -0.014373   0.022541  -0.012520
     12       0.637234  -0.140346   0.247640  -0.437118  -0.399815  -0.220271
     13       0.240022   0.093706   0.090021  -0.283581  -0.304406  -0.270717
     14       0.116252   0.320196   0.047095  -0.029597   0.113689  -0.259111
     15      -0.400730   0.553203  -0.039841  -0.376501  -0.363677   0.197154
     16       0.174054   0.252309   0.115571  -0.193922   0.424675   0.434978
     17      -0.067402   0.220935   0.040438  -0.303569  -0.098222   0.287497
     18      -0.443252  -0.572613  -0.009655  -0.503212  -0.207313   0.127354
     19       0.089271  -0.187860   0.054671  -0.038239   0.262748   0.402379
     20      -0.236032   0.076314  -0.107919   0.138266  -0.273505  -0.528581
     21      -0.009977  -0.003262  -0.238074  -0.128128   0.129959  -0.054663
     22      -0.140380   0.003753   0.842109   0.344495  -0.334245   0.139671
     23       0.037004   0.020102  -0.275270  -0.121606   0.122070  -0.053497
                 18         19         20         21         22         23    
      0       0.012268   0.055674   0.045740  -0.021073  -0.023178   0.000749
      1       0.027214   0.043922   0.023179   0.025951   0.086940   0.000433
      2       0.048020   0.003259   0.001916   0.086529  -0.031345   0.000044
      3      -0.057188  -0.353754  -0.002684  -0.000376   0.001071  -0.002547
      4       0.031100  -0.648128  -0.000064   0.000074   0.002065   0.000352
      5       0.002308   0.076110  -0.000739   0.000342  -0.000297  -0.000779
      6       0.007875   0.203468   0.000011  -0.000041  -0.000352   0.000038
      7      -0.003172   0.415264  -0.000261   0.000081  -0.000865  -0.000880
      8       0.000638  -0.054692   0.000096   0.000216   0.000139   0.000235
      9       0.016295   0.013789   0.000191  -0.000025   0.000435  -0.057859
     10      -0.007570   0.059480   0.000079  -0.000025  -0.000202  -0.017586
     11       0.003274  -0.011840   0.000001   0.000001   0.000191  -0.011112
     12       0.245443  -0.172313  -0.212333  -0.027882   0.410425   0.000102
     13      -0.177915  -0.131129   0.370772   0.045875  -0.699826  -0.000804
     14      -0.626772  -0.003285  -0.185255  -0.011719   0.350830   0.000441
     15       0.306307   0.064819  -0.284684   0.314834  -0.133030  -0.000325
     16      -0.425594   0.080929  -0.172807   0.199731  -0.071412  -0.000889
     17       0.047860   0.022642   0.551385  -0.591170   0.248113   0.001861
     18      -0.432915   0.100174  -0.017281  -0.030630  -0.013769   0.000557
     19       0.157908   0.065390  -0.468715  -0.556395  -0.271289  -0.001695
     20      -0.101056  -0.029690  -0.381510  -0.435162  -0.226893  -0.000781
     21       0.032773   0.110837  -0.001945   0.000301  -0.001533   0.938828
     22      -0.078751  -0.350821  -0.001799  -0.000209  -0.001096   0.287135
     23       0.018186   0.120585  -0.000188  -0.000510  -0.000239   0.179884


-----------
IR SPECTRUM
-----------

 Mode   freq       eps      Int      T**2         TX        TY        TZ
       cm**-1   L/(mol*cm) km/mol    a.u.
----------------------------------------------------------------------------
  6:     90.41   0.000162    0.82  0.000560  (-0.007241  0.009409  0.020467)
  7:    427.03   0.000743    3.75  0.000543  ( 0.003180 -0.021811  0.007543)
  8:    542.83   0.005616   28.38  0.003229  ( 0.010624 -0.011639 -0.054594)
  9:    609.02   0.009168   46.33  0.004698  ( 0.062307 -0.021396  0.018921)
 10:    678.93   0.020221  102.19  0.009295  (-0.023647  0.023141  0.090553)
 11:    898.68   0.000743    3.75  0.000258  ( 0.015592  0.003483  0.001622)
 12:   1000.87   0.006438   32.54  0.002007  ( 0.027444 -0.031601  0.015990)
 13:   1063.75   0.002836   14.33  0.000832  (-0.009086  0.007175  0.026420)
 14:   1244.56   0.042188  213.20  0.010578  (-0.063158  0.072988 -0.035528)
 15:   1342.62   0.002450   12.38  0.000569  ( 0.004813 -0.021924  0.008093)
 16:   1432.00   0.024380  123.21  0.005313  (-0.058729  0.036647 -0.022822)
 17:   1448.72   0.006657   33.64  0.001434  ( 0.037678  0.003717 -0.000685)
 18:   1452.26   0.004005   20.24  0.000861  (-0.014448 -0.003762 -0.025252)
 19:   1936.10   0.069445  350.94  0.011193  (-0.031032 -0.099490  0.018221)
 20:   3090.73   0.000036    0.18  0.000004  ( 0.001654  0.000958  0.000166)
 21:   3183.18   0.000075    0.38  0.000007  ( 0.000191  0.001036  0.002507)
 22:   3228.81   0.000121    0.61  0.000012  (-0.002493  0.002006 -0.001198)
 23:   3819.71   0.019642   99.26  0.001605  ( 0.038730  0.002014  0.010033)

* The epsilon (eps) is given for a Dirac delta lineshape.
** The dipole moment derivative (T) already includes vibrational overlap.

The first frequency considered to be a vibration is 6
The total number of vibrations considered is 18


--------------------------
THERMOCHEMISTRY AT 298.15K
--------------------------

Temperature         ...   298.15 K
Pressure            ...     1.00 atm
Total Mass          ...    60.05 AMU
Quasi RRHO          ...     True
Cut-Off Frequency   ...     1.00 cm^-1

Throughout the following assumptions are being made:
  (1) The electronic state is orbitally nondegenerate
  (2) There are no thermally accessible electronically excited states
  (3) Hindered rotations indicated by low frequency modes are not
      treated as such but are treated as vibrations and this may
      cause some error
  (4) All equations used are the standard statistical mechanics
      equations for an ideal gas
  (5) All vibrations are strictly harmonic

freq.      90.41  E(vib)   ...       0.47 
freq.     427.03  E(vib)   ...       0.18 
freq.     542.83  E(vib)   ...       0.12 
freq.     609.02  E(vib)   ...       0.10 
freq.     678.93  E(vib)   ...       0.08 
freq.     898.68  E(vib)   ...       0.03 
freq.    1000.87  E(vib)   ...       0.02 
freq.    1063.75  E(vib)   ...       0.02 
freq.    1244.56  E(vib)   ...       0.01 
freq.    1342.62  E(vib)   ...       0.01 
freq.    1432.00  E(vib)   ...       0.00 
freq.    1448.72  E(vib)   ...       0.00 
freq.    1452.26  E(vib)   ...       0.00 
freq.    1936.10  E(vib)   ...       0.00 
freq.    3090.73  E(vib)   ...       0.00 
freq.    3183.18  E(vib)   ...       0.00 
freq.    3228.81  E(vib)   ...       0.00 
freq.    3819.71  E(vib)   ...       0.00 

------------
INNER ENERGY
------------

The inner energy is: U= E(el) + E(ZPE) + E(vib) + E(rot) + E(trans)
    E(el)   - is the total energy from the electronic structure calculation
              = E(kin-el) + E(nuc-el) + E(el-el) + E(nuc-nuc)
    E(ZPE)  - the the zero temperature vibrational energy from the frequency calculation
    E(vib)  - the the finite temperature correction to E(ZPE) due to population
              of excited vibrational states
    E(rot)  - is the rotational thermal energy
    E(trans)- is the translational thermal energy

Summary of contributions to the inner energy U:
Electronic energy                ...   -228.81609254 Eh
Zero point energy                ...      0.06262727 Eh      39.30 kcal/mol
Thermal vibrational correction   ...      0.00167052 Eh       1.05 kcal/mol
Thermal rotational correction    ...      0.00141627 Eh       0.89 kcal/mol
Thermal translational correction ...      0.00141627 Eh       0.89 kcal/mol
-----------------------------------------------------------------------
Total thermal energy                   -228.74896221 Eh


Summary of corrections to the electronic energy:
(perhaps to be used in another calculation)
Total thermal correction                  0.00450307 Eh       2.83 kcal/mol
Non-thermal (ZPE) correction              0.06262727 Eh      39.30 kcal/mol
-----------------------------------------------------------------------
Total correction                          0.06713033 Eh      42.12 kcal/mol


--------
ENTHALPY
--------

The enthalpy is H = U + kB*T
                kB is Boltzmann's constant
Total thermal energy              ...   -228.74896221 Eh 
Thermal Enthalpy correction       ...      0.00094421 Eh       0.59 kcal/mol
-----------------------------------------------------------------------
Total Enthalpy                    ...   -228.74801800 Eh


Note: Only C1 symmetry has been detected, increase convergence thresholds 
      if your molecule has a higher symmetry. Symmetry factor of 1.0 is   
      used for the rotational entropy correction. 
 

Note: Rotational entropy computed according to Herzberg 
Infrared and Raman Spectra, Chapter V,1, Van Nostrand Reinhold, 1945 
Point Group:  C1, Symmetry Number:   1  
Rotational constants in cm-1:     0.383002     0.316808     0.179208 

Vibrational entropy computed according to the QRRHO of S. Grimme
Chem.Eur.J. 2012 18 9955 using a reference frequency of 100.0 cm-1


-------
ENTROPY
-------

The entropy contributions are T*S = T*(S(el)+S(vib)+S(rot)+S(trans))
     S(el)   - electronic entropy
     S(vib)  - vibrational entropy
     S(rot)  - rotational entropy
     S(trans)- translational entropy
The entropies will be listed as multiplied by the temperature to get
units of energy

Electronic entropy                ...      0.00000000 Eh      0.00 kcal/mol
Vibrational entropy               ...      0.00277454 Eh      1.74 kcal/mol
Rotational entropy                ...      0.01131815 Eh      7.10 kcal/mol
Translational entropy             ...      0.01814900 Eh     11.39 kcal/mol
-----------------------------------------------------------------------
Final entropy term                ...      0.03224169 Eh     20.23 kcal/mol

In case the symmetry of your molecule has not been determined correctly
or in case you have a reason to use a different symmetry number we print 
out the resulting rotational entropy values for sn=1,12:

 non-linear molecules -----------------------------------
|  sn= 1 | S(rot)=       0.01131815 Eh      7.10 kcal/mol|
|  sn= 2 | S(rot)=       0.01066370 Eh      6.69 kcal/mol|
|  sn= 3 | S(rot)=       0.01028087 Eh      6.45 kcal/mol|
|  sn= 4 | S(rot)=       0.01000924 Eh      6.28 kcal/mol|
|  sn= 5 | S(rot)=       0.00979855 Eh      6.15 kcal/mol|
|  sn= 6 | S(rot)=       0.00962641 Eh      6.04 kcal/mol|
|  sn= 7 | S(rot)=       0.00948086 Eh      5.95 kcal/mol|
|  sn= 8 | S(rot)=       0.00935479 Eh      5.87 kcal/mol|
|  sn= 9 | S(rot)=       0.00924358 Eh      5.80 kcal/mol|
|  sn=10 | S(rot)=       0.00914410 Eh      5.74 kcal/mol|
|  sn=11 | S(rot)=       0.00905411 Eh      5.68 kcal/mol|
|  sn=12 | S(rot)=       0.00897195 Eh      5.63 kcal/mol|
 linear molecules ---------------------------------------
|  Dinfh | S(rot)=       0.00694905 Eh      4.36 kcal/mol|
|  Cinfv | S(rot)=       0.00760351 Eh      4.77 kcal/mol|
 --------------------------------------------------------


-------------------
GIBBS FREE ENERGY
-------------------

The Gibbs free energy is G = H - T*S

Total enthalpy                    ...   -228.74801800 Eh 
Total entropy correction          ...     -0.03224169 Eh    -20.23 kcal/mol
-----------------------------------------------------------------------
Final Gibbs free energy         ...   -228.78025970 Eh

For completeness - the Gibbs free energy minus the electronic energy
G-E(el)                           ...      0.03583285 Eh     22.49 kcal/mol


Maximum memory used throughout the entire PROP-calculation: 15.7 MB

--------------------------------
SUGGESTED CITATIONS FOR THIS RUN
--------------------------------

Below you find a list of papers that are relevant to this ORCA run
We neither can nor want to force you to cite these papers, but we appreciate if you do
You receive ORCA, which is the product of decades of hard work by many enthusiastic individuals, for free
The only thing we kindly ask in return is that you cite our papers,
We deeply appreciate it, if you show your appreciation for ORCA by not just citing the generic ORCA reference.

Please note that relegating all ORCA citations to the supporting information does *not* help us.
SI sections are not indexed - citations you put there will not count into any citation statistics
But we need these citations in order to attract the funding resources that allow us to do what we are doing

Therefore, if you are a happy ORCA user, please consider citing a few of the papers listed below in the main body of your paper

In addition to the list printed below, the program has created the file /lustre/project/xlzhang/jingyi/chemsmart/test_pka/orca/pka_scale_frag3_pka_HA_opt.bibtex that contains the list in bibtex format
You can import this file easily into all common literature databanks and citation aid programs


List of essential papers. We consider these as the minimum necessary citations

  1. Neese, F.
     Software update: the ORCA program system, version 6.0
     WIRES Comput. Molec. Sci. 2025 15(1), e70019
     doi.org/10.1002/wcms.7019

List of papers to cite with high priority. The work reported in these papers was absolutely
necessary for this run to complete.
Our perspective: the developers of density functionals and basis sets usually get cited in chemistry papers
Good! But without the algorithms to do something with them, the functionals or basis sets would not do anything.
Hence, in our opinion, the algorithm design and method developments papers are equally worthy of getting cited

  1. Neese, F.
     An improvement of the resolution of the identity approximation for the formation of the Coulomb matrix
     J. Comp. Chem. 2003 24(14), 1740-1747
     doi.org/10.1002/jcc.10318
  2. Neese, F.; Wennmohs, F.; Hansen, A.; Becker, U.
     Efficient, approximate and parallel Hartree-Fock and hybrid DFT calculations. A 'chain-of-spheres' algorithm for the Hartree-Fock exchange
     Chem. Phys. 2009 356(1-3), 98-109
     doi.org/10.1016/j.chemphys.2008.10.036
  3. Bykov, D.; Petrenko, T.; Izsak, R.; Kossmann, S.; Becker, U.; Valeev, E.; Neese, F.
     Efficient implementation of the analytic second derivatives of Hartree-Fock and hybrid DFT energies: a detailed analysis of different approximations
     Molec. Phys. 2015 113 , 1961-1977
     doi.org/10.1080/00268976.2015.1025114
  4. Helmich-Paris, B.; de Souza, B.; Neese, F.; Izsák, R.
     An improved chain of spheres for exchange algorithm
     J. Chem. Phys. 2021 155(10), 104109
     doi.org/10.1063/5.0058766
  5. Neese, F.
     The SHARK Integral Generation and Digestion System
     J. Comp. Chem. 2022 44(3), 381
     doi.org/10.1002/jcc.26942

List of suggested additional citations. These are papers that are important in the 'surrounding' of 
of this run, or papers that preceded the highly important papers. If you like your results we are grateful for a citation.

  1. Izsak, R.; Neese, F.
     An overlap fitted chain of spheres exchange method
     J. Chem. Phys. 2011 135 , 144105
     doi.org/10.1063/1.3646921
  2. Izsak, R.; Hansen, A.; Neese, F.
     The resolution of identity and chain of spheres approximations for the LPNO-CCSD singles Fock term
     Molec. Phys. 2012 110 , 2413-2417
     doi.org/10.1080/00268976.2012.687466
  3. Neese, F.
     The ORCA program system
     WIRES Comput. Molec. Sci. 2012 2(1), 73-78
     doi.org/10.1002/wcms.81
  4. Izsak, R.; Neese, F.; Klopper, W.
     Robust fitting techniques in the chain of spheres approximation to the Fock exchange: The role of the complementary space
     J. Chem. Phys. 2013 139 , 
     doi.org/10.1063/1.4819264
  5. Neese, F.
     Software update: the ORCA program system, version 4.0
     WIRES Comput. Molec. Sci. 2018 8(1), 1-6
     doi.org/10.1002/wcms.1327
  6. Neese, F.; Wennmohs, F.; Becker, U.; Riplinger, C.
     The ORCA quantum chemistry program package
     J. Chem. Phys. 2020 152(22), 224108
     doi.org/10.1063/5.0004608
  7. Neese, F.
     Software update: The ORCA program system—Version 5.0
     WIRES Comput. Molec. Sci. 2022 12(1), e1606
     doi.org/10.1002/wcms.1606

List of optional additional citations

  1. Neese, F.
     Approximate second-order SCF convergence for spin unrestricted wavefunctions
     Chem. Phys. Lett. 2000 325(1-3), 93-98
     doi.org/10.1016/s0009-2614(00)00662-x

Timings for individual modules:

Sum of individual times          ...      320.329 sec (=   5.339 min)
Startup calculation              ...       60.044 sec (=   1.001 min)  18.7 %
SCF iterations                   ...      173.597 sec (=   2.893 min)  54.2 %
Property integrals               ...       34.303 sec (=   0.572 min)  10.7 %
SCF Response                     ...       12.417 sec (=   0.207 min)   3.9 %
Property calculations            ...        5.536 sec (=   0.092 min)   1.7 %
SCF Gradient evaluation          ...       34.263 sec (=   0.571 min)  10.7 %
Geometry relaxation              ...        0.169 sec (=   0.003 min)   0.1 %
                             ****ORCA TERMINATED NORMALLY****
TOTAL RUN TIME: 0 days 0 hours 7 minutes 6 seconds 322 msec
