 Entering Gaussian System, Link 0=/project/xlzhang/shared/bin/g16/g16
 Input=/lustre/project/xlzhang/jingyi/chemsmart/test_pka/gaussian/pka_scale_frag5_pka_A_opt.com
 Output=/lustre/project/xlzhang/jingyi/chemsmart/test_pka/gaussian/pka_scale_frag5_pka_A_opt.log
 Initial command:
 /project/xlzhang/shared/bin/g16/l1.exe "/lustre/project/xlzhang/jingyi/chemsmart/test_pka/gaussian/Gau-3463792.inp" -scrdir="/lustre/project/xlzhang/jingyi/chemsmart/test_pka/gaussian/"
 Entering Link 1 = /project/xlzhang/shared/bin/g16/l1.exe PID=   3463793.
  
 Copyright (c) 1988-2017, Gaussian, Inc.  All Rights Reserved.
  
 This is part of the Gaussian(R) 16 program.  It is based on
 the Gaussian(R) 09 system (copyright 2009, Gaussian, Inc.),
 the Gaussian(R) 03 system (copyright 2003, Gaussian, Inc.),
 the Gaussian(R) 98 system (copyright 1998, Gaussian, Inc.),
 the Gaussian(R) 94 system (copyright 1995, Gaussian, Inc.),
 the Gaussian 92(TM) system (copyright 1992, Gaussian, Inc.),
 the Gaussian 90(TM) system (copyright 1990, Gaussian, Inc.),
 the Gaussian 88(TM) system (copyright 1988, Gaussian, Inc.),
 the Gaussian 86(TM) system (copyright 1986, Carnegie Mellon
 University), and the Gaussian 82(TM) system (copyright 1983,
 Carnegie Mellon University). Gaussian is a federally registered
 trademark of Gaussian, Inc.
  
 This software contains proprietary and confidential information,
 including trade secrets, belonging to Gaussian, Inc.
  
 This software is provided under written license and may be
 used, copied, transmitted, or stored only in accord with that
 written license.
  
 The following legend is applicable only to US Government
 contracts under FAR:
  
                    RESTRICTED RIGHTS LEGEND
  
 Use, reproduction and disclosure by the US Government is
 subject to restrictions as set forth in subparagraphs (a)
 and (c) of the Commercial Computer Software - Restricted
 Rights clause in FAR 52.227-19.
  
 Gaussian, Inc.
 340 Quinnipiac St., Bldg. 40, Wallingford CT 06492
  
  
 ---------------------------------------------------------------
 Warning -- This program may not be used in any manner that
 competes with the business of Gaussian, Inc. or will provide
 assistance to any competitor of Gaussian, Inc.  The licensee
 of this program is prohibited from giving any competitor of
 Gaussian, Inc. access to this program.  By using this program,
 the user acknowledges that Gaussian, Inc. is engaged in the
 business of creating and licensing software in the field of
 computational chemistry and represents and warrants to the
 licensee that it is not a competitor of Gaussian, Inc. and that
 it will not use this program in any manner prohibited above.
 ---------------------------------------------------------------
  

 Cite this work as:
 Gaussian 16, Revision B.01,
 M. J. Frisch, G. W. Trucks, H. B. Schlegel, G. E. Scuseria, 
 M. A. Robb, J. R. Cheeseman, G. Scalmani, V. Barone, 
 G. A. Petersson, H. Nakatsuji, X. Li, M. Caricato, A. V. Marenich, 
 J. Bloino, B. G. Janesko, R. Gomperts, B. Mennucci, H. P. Hratchian, 
 J. V. Ortiz, A. F. Izmaylov, J. L. Sonnenberg, D. Williams-Young, 
 F. Ding, F. Lipparini, F. Egidi, J. Goings, B. Peng, A. Petrone, 
 T. Henderson, D. Ranasinghe, V. G. Zakrzewski, J. Gao, N. Rega, 
 G. Zheng, W. Liang, M. Hada, M. Ehara, K. Toyota, R. Fukuda, 
 J. Hasegawa, M. Ishida, T. Nakajima, Y. Honda, O. Kitao, H. Nakai, 
 T. Vreven, K. Throssell, J. A. Montgomery, Jr., J. E. Peralta, 
 F. Ogliaro, M. J. Bearpark, J. J. Heyd, E. N. Brothers, K. N. Kudin, 
 V. N. Staroverov, T. A. Keith, R. Kobayashi, J. Normand, 
 K. Raghavachari, A. P. Rendell, J. C. Burant, S. S. Iyengar, 
 J. Tomasi, M. Cossi, J. M. Millam, M. Klene, C. Adamo, R. Cammi, 
 J. W. Ochterski, R. L. Martin, K. Morokuma, O. Farkas, 
 J. B. Foresman, and D. J. Fox, Gaussian, Inc., Wallingford CT, 2016.
 
 ******************************************
 Gaussian 16:  ES64L-G16RevB.01 20-Dec-2017
                10-Jun-2026 
 ******************************************
 %chk=pka_scale_frag5_pka_A_opt.chk
 %nprocshared=64
 Will use up to   64 processors via shared memory.
 %mem=180GB
 -----------------------
 # opt freq mn15 def2svp
 -----------------------
 1/18=20,19=15,26=3,38=1/1,3;
 2/9=110,12=2,17=6,18=5,40=1/2;
 3/5=43,7=101,11=2,25=1,30=1,71=1,74=-73/1,2,3;
 4//1;
 5/5=2,38=5/2;
 6/7=2,8=2,9=2,10=2,28=1/1;
 7//1,2,3,16;
 1/18=20,19=15,26=3/3(2);
 2/9=110/2;
 99//99;
 2/9=110/2;
 3/5=43,7=101,11=2,25=1,30=1,71=1,74=-73/1,2,3;
 4/5=5,16=3,69=1/1;
 5/5=2,38=5/2;
 7//1,2,3,16;
 1/18=20,19=15,26=3/3(-5);
 2/9=110/2;
 6/7=2,8=2,9=2,10=2,19=2,28=1/1;
 99/9=1/99;
 ----------------------------
 Gaussian pKa calculation job
 ----------------------------
 Symbolic Z-matrix:
 Charge = -1 Multiplicity = 1
 C                     0.61095  -0.36495   0.12408 
 C                     0.32324   0.98204   0.38695 
 C                    -0.99203   1.44722   0.30329 
 C                    -2.0247    0.57276  -0.03304 
 C                    -1.74928  -0.77104  -0.27886 
 C                    -0.43714  -1.24037  -0.19589 
 C                     1.98576  -0.93055   0.19897 
 O                     2.16516  -2.11339   0.45673 
 S                     3.34931   0.12362  -0.1422 
 H                     1.09964   1.6829    0.68186 
 H                    -1.21374   2.49184   0.51027 
 H                    -3.04773   0.93701  -0.09387 
 H                    -2.55587  -1.45563  -0.53059 
 H                    -0.23449  -2.29391  -0.3832 
 

 GradGradGradGradGradGradGradGradGradGradGradGradGradGradGradGradGradGrad
 Berny optimization.
 Initialization pass.
                           ----------------------------
                           !    Initial Parameters    !
                           ! (Angstroms and Degrees)  !
 --------------------------                            --------------------------
 ! Name  Definition              Value          Derivative Info.                !
 --------------------------------------------------------------------------------
 ! R1    R(1,2)                  1.4022         estimate D2E/DX2                !
 ! R2    R(1,6)                  1.4026         estimate D2E/DX2                !
 ! R3    R(1,7)                  1.4885         estimate D2E/DX2                !
 ! R4    R(2,3)                  1.3976         estimate D2E/DX2                !
 ! R5    R(2,10)                 1.0867         estimate D2E/DX2                !
 ! R6    R(3,4)                  1.3943         estimate D2E/DX2                !
 ! R7    R(3,11)                 1.0878         estimate D2E/DX2                !
 ! R8    R(4,5)                  1.3936         estimate D2E/DX2                !
 ! R9    R(4,12)                 1.0876         estimate D2E/DX2                !
 ! R10   R(5,6)                  1.396          estimate D2E/DX2                !
 ! R11   R(5,13)                 1.0875         estimate D2E/DX2                !
 ! R12   R(6,14)                 1.0891         estimate D2E/DX2                !
 ! R13   R(7,8)                  1.2238         estimate D2E/DX2                !
 ! R14   R(7,9)                  1.757          estimate D2E/DX2                !
 ! A1    A(2,1,6)              119.2752         estimate D2E/DX2                !
 ! A2    A(2,1,7)              123.0307         estimate D2E/DX2                !
 ! A3    A(6,1,7)              117.6777         estimate D2E/DX2                !
 ! A4    A(1,2,3)              120.1053         estimate D2E/DX2                !
 ! A5    A(1,2,10)             121.5879         estimate D2E/DX2                !
 ! A6    A(3,2,10)             118.2901         estimate D2E/DX2                !
 ! A7    A(2,3,4)              120.1777         estimate D2E/DX2                !
 ! A8    A(2,3,11)             120.0036         estimate D2E/DX2                !
 ! A9    A(4,3,11)             119.816          estimate D2E/DX2                !
 ! A10   A(3,4,5)              120.0606         estimate D2E/DX2                !
 ! A11   A(3,4,12)             120.005          estimate D2E/DX2                !
 ! A12   A(5,4,12)             119.9315         estimate D2E/DX2                !
 ! A13   A(4,5,6)              119.9641         estimate D2E/DX2                !
 ! A14   A(4,5,13)             120.0847         estimate D2E/DX2                !
 ! A15   A(6,5,13)             119.9506         estimate D2E/DX2                !
 ! A16   A(1,6,5)              120.4034         estimate D2E/DX2                !
 ! A17   A(1,6,14)             120.2634         estimate D2E/DX2                !
 ! A18   A(5,6,14)             119.3331         estimate D2E/DX2                !
 ! A19   A(1,7,8)              120.8802         estimate D2E/DX2                !
 ! A20   A(1,7,9)              118.6235         estimate D2E/DX2                !
 ! A21   A(8,7,9)              120.4668         estimate D2E/DX2                !
 ! D1    D(6,1,2,3)             -1.2699         estimate D2E/DX2                !
 ! D2    D(6,1,2,10)           177.2191         estimate D2E/DX2                !
 ! D3    D(7,1,2,3)           -179.7624         estimate D2E/DX2                !
 ! D4    D(7,1,2,10)            -1.2734         estimate D2E/DX2                !
 ! D5    D(2,1,6,5)              1.3029         estimate D2E/DX2                !
 ! D6    D(2,1,6,14)          -178.7597         estimate D2E/DX2                !
 ! D7    D(7,1,6,5)            179.8757         estimate D2E/DX2                !
 ! D8    D(7,1,6,14)            -0.1869         estimate D2E/DX2                !
 ! D9    D(2,1,7,8)            152.6788         estimate D2E/DX2                !
 ! D10   D(2,1,7,9)            -29.2888         estimate D2E/DX2                !
 ! D11   D(6,1,7,8)            -25.8363         estimate D2E/DX2                !
 ! D12   D(6,1,7,9)            152.1961         estimate D2E/DX2                !
 ! D13   D(1,2,3,4)              0.4261         estimate D2E/DX2                !
 ! D14   D(1,2,3,11)           179.8284         estimate D2E/DX2                !
 ! D15   D(10,2,3,4)          -178.1121         estimate D2E/DX2                !
 ! D16   D(10,2,3,11)            1.2901         estimate D2E/DX2                !
 ! D17   D(2,3,4,5)              0.4031         estimate D2E/DX2                !
 ! D18   D(2,3,4,12)           179.7813         estimate D2E/DX2                !
 ! D19   D(11,3,4,5)          -179.0003         estimate D2E/DX2                !
 ! D20   D(11,3,4,12)            0.3779         estimate D2E/DX2                !
 ! D21   D(3,4,5,6)             -0.3732         estimate D2E/DX2                !
 ! D22   D(3,4,5,13)           179.3335         estimate D2E/DX2                !
 ! D23   D(12,4,5,6)          -179.7518         estimate D2E/DX2                !
 ! D24   D(12,4,5,13)           -0.0452         estimate D2E/DX2                !
 ! D25   D(4,5,6,1)             -0.4865         estimate D2E/DX2                !
 ! D26   D(4,5,6,14)           179.5755         estimate D2E/DX2                !
 ! D27   D(13,5,6,1)           179.8065         estimate D2E/DX2                !
 ! D28   D(13,5,6,14)           -0.1315         estimate D2E/DX2                !
 --------------------------------------------------------------------------------
 Trust Radius=3.00D-01 FncErr=1.00D-07 GrdErr=1.00D-06 EigMax=2.50D+02 EigMin=1.00D-04
 Number of steps in this run=     73 maximum allowed number of steps=    100.
 GradGradGradGradGradGradGradGradGradGradGradGradGradGradGradGradGradGrad

                          Input orientation:                          
 ---------------------------------------------------------------------
 Center     Atomic      Atomic             Coordinates (Angstroms)
 Number     Number       Type             X           Y           Z
 ---------------------------------------------------------------------
      1          6           0        0.610950   -0.364949    0.124078
      2          6           0        0.323240    0.982041    0.386951
      3          6           0       -0.992032    1.447217    0.303286
      4          6           0       -2.024703    0.572761   -0.033044
      5          6           0       -1.749283   -0.771036   -0.278863
      6          6           0       -0.437138   -1.240367   -0.195893
      7          6           0        1.985761   -0.930551    0.198968
      8          8           0        2.165155   -2.113395    0.456726
      9         16           0        3.349315    0.123619   -0.142204
     10          1           0        1.099638    1.682899    0.681864
     11          1           0       -1.213740    2.491838    0.510275
     12          1           0       -3.047729    0.937012   -0.093874
     13          1           0       -2.555870   -1.455633   -0.530593
     14          1           0       -0.234494   -2.293909   -0.383205
 ---------------------------------------------------------------------
                    Distance matrix (angstroms):
                    1          2          3          4          5
     1  C    0.000000
     2  C    1.402234   0.000000
     3  C    2.426028   1.397615   0.000000
     4  C    2.801903   2.420071   1.394346   0.000000
     5  C    2.428574   2.794985   2.415155   1.393583   0.000000
     6  C    1.402579   2.420120   2.789300   2.415434   1.396024
     7  C    1.488496   2.541126   3.812074   4.289243   3.768863
     8  O    2.362894   3.602671   4.761231   5.001022   4.203076
     9  S    2.794324   3.189674   4.560445   5.393859   5.178299
    10  H    2.177986   1.086724   2.138679   3.391903   3.880869
    11  H    3.411726   2.158009   1.087765   2.153071   3.399396
    12  H    3.889542   3.405386   2.154979   1.087639   2.153511
    13  H    3.412761   3.882450   3.401100   2.155012   1.087484
    14  H    2.166333   3.411166   3.878292   3.397831   2.150491
                    6          7          8          9         10
     6  C    0.000000
     7  C    2.474337   0.000000
     8  O    2.821350   1.223822   0.000000
     9  S    4.024992   1.756971   2.600996   0.000000
    10  H    3.417254   2.801522   3.949413   2.858582   0.000000
    11  H    3.877002   4.695367   5.712090   5.182245   2.456734
    12  H    3.400966   5.376762   6.064841   6.448729   4.284713
    13  H    2.155780   4.629728   4.867805   6.125038   4.968216
    14  H    1.089082   2.669683   2.548801   4.329689   4.327734
                   11         12         13         14
    11  H    0.000000
    12  H    2.479112   0.000000
    13  H    4.297354   2.481410   0.000000
    14  H    4.965944   4.293815   2.472491   0.000000
 Stoichiometry    C7H5OS(1-)
 Framework group  C1[X(C7H5OS)]
 Deg. of freedom    36
 Full point group                 C1      NOp   1
 Largest Abelian subgroup         C1      NOp   1
 Largest concise Abelian subgroup C1      NOp   1
                         Standard orientation:                         
 ---------------------------------------------------------------------
 Center     Atomic      Atomic             Coordinates (Angstroms)
 Number     Number       Type             X           Y           Z
 ---------------------------------------------------------------------
      1          6           0        0.083179    0.161732    0.068569
      2          6           0        0.593508   -1.127881    0.275270
      3          6           0        1.970028   -1.357576    0.199383
      4          6           0        2.842372   -0.304535   -0.073236
      5          6           0        2.344459    0.983189   -0.262780
      6          6           0        0.970317    1.217540   -0.187327
      7          6           0       -1.369064    0.480556    0.139009
      8          8           0       -1.751851    1.601408    0.447076
      9         16           0       -2.527162   -0.772309   -0.280617
     10          1           0       -0.055505   -1.964391    0.520223
     11          1           0        2.364360   -2.358096    0.362773
     12          1           0        3.913394   -0.485798   -0.128133
     13          1           0        3.025394    1.806708   -0.464688
     14          1           0        0.592965    2.229115   -0.330232
 ---------------------------------------------------------------------
 Rotational constants (GHZ):           3.1878967           0.9355444           0.7432158
 Standard basis: def2SVP (5D, 7F)
 There are   164 symmetry adapted cartesian basis functions of A   symmetry.
 There are   155 symmetry adapted basis functions of A   symmetry.
   155 basis functions,   272 primitive gaussians,   164 cartesian basis functions
    36 alpha electrons       36 beta electrons
       nuclear repulsion energy       450.8515596089 Hartrees.
 NAtoms=   14 NActive=   14 NUniq=   14 SFac= 1.00D+00 NAtFMM=   60 NAOKFM=F Big=F
 Integral buffers will be    131072 words long.
 Raffenetti 2 integral format.
 Two-electron integral symmetry is turned on.
 One-electron integrals computed using PRISM.
   1 Symmetry operations used in ECPInt.
 ECPInt:  NShTT=    2556 NPrTT=    9872 LenC2=    2507 LenP2D=    7505.
 LDataN:  DoStor=T MaxTD1= 4 Len=   56
 NBasis=   155 RedAO= T EigKep=  3.01D-04  NBF=   155
 NBsUse=   155 1.00D-06 EigRej= -1.00D+00 NBFU=   155
 ExpMin= 1.22D-01 ExpMax= 9.18D+03 ExpMxC= 1.38D+03 IAcc=3 IRadAn=         5 AccDes= 0.00D+00
 Harris functional with IExCor= 1009 and IRadAn=       5 diagonalized for initial guess.
 HarFok:  IExCor= 1009 AccDes= 0.00D+00 IRadAn=         5 IDoV= 1 UseB2=F ITyADJ=14
 ICtDFT=  3500011 ScaDFX=  1.000000  1.000000  1.000000  1.000000
 FoFCou: FMM=F IPFlag=           0 FMFlag=      100000 FMFlg1=           0
         NFxFlg=           0 DoJE=T BraDBF=F KetDBF=T FulRan=T
         wScrn=  0.000000 ICntrl=       500 IOpCl=  0 I1Cent=   200000004 NGrid=           0
         NMat0=    1 NMatS0=      1 NMatT0=    0 NMatD0=    1 NMtDS0=    0 NMtDT0=    0
 Petite list used in FoFCou.
 Requested convergence on RMS density matrix=1.00D-08 within 128 cycles.
 Requested convergence on MAX density matrix=1.00D-06.
 Requested convergence on             energy=1.00D-06.
 No special actions if energy rises.
 Integral accuracy reduced to 1.0D-05 until final iterations.
 Initial convergence to 1.0D-05 achieved.  Increase integral accuracy.  SCF Done:  E(RMN15) =  -742.255521852     A.U. after   17 cycles
            NFock= 17  Conv=0.41D-08     -V/T= 2.0064

 **********************************************************************

            Population analysis using the SCF Density.

 **********************************************************************

 Orbital symmetries:
       Occupied  (A) (A) (A) (A) (A) (A) (A) (A) (A) (A) (A) (A)
                 (A) (A) (A) (A) (A) (A) (A) (A) (A) (A) (A) (A)
                 (A) (A) (A) (A) (A) (A) (A) (A) (A) (A) (A) (A)
       Virtual   (A) (A) (A) (A) (A) (A) (A) (A) (A) (A) (A) (A)
                 (A) (A) (A) (A) (A) (A) (A) (A) (A) (A) (A) (A)
                 (A) (A) (A) (A) (A) (A) (A) (A) (A) (A) (A) (A)
                 (A) (A) (A) (A) (A) (A) (A) (A) (A) (A) (A) (A)
                 (A) (A) (A) (A) (A) (A) (A) (A) (A) (A) (A) (A)
                 (A) (A) (A) (A) (A) (A) (A) (A) (A) (A) (A) (A)
                 (A) (A) (A) (A) (A) (A) (A) (A) (A) (A) (A) (A)
                 (A) (A) (A) (A) (A) (A) (A) (A) (A) (A) (A) (A)
                 (A) (A) (A) (A) (A) (A) (A) (A) (A) (A) (A) (A)
                 (A) (A) (A) (A) (A) (A) (A) (A) (A) (A) (A)
 The electronic state is 1-A.
 Alpha  occ. eigenvalues --  -87.48940 -18.59065  -9.94683  -9.93263  -9.93104
 Alpha  occ. eigenvalues --   -9.92959  -9.92062  -9.91932  -9.91320  -7.42907
 Alpha  occ. eigenvalues --   -5.62599  -5.61848  -5.61332  -0.85894  -0.76180
 Alpha  occ. eigenvalues --   -0.65510  -0.64989  -0.54263  -0.51104  -0.48959
 Alpha  occ. eigenvalues --   -0.44128  -0.38222  -0.36044  -0.34319  -0.33130
 Alpha  occ. eigenvalues --   -0.29716  -0.29299  -0.25723  -0.25361  -0.24055
 Alpha  occ. eigenvalues --   -0.21836  -0.16186  -0.14963  -0.09023  -0.04572
 Alpha  occ. eigenvalues --   -0.03077
 Alpha virt. eigenvalues --    0.13276   0.14687   0.21616   0.23988   0.25901
 Alpha virt. eigenvalues --    0.27907   0.31433   0.32419   0.32992   0.37183
 Alpha virt. eigenvalues --    0.43159   0.44573   0.46098   0.46555   0.48120
 Alpha virt. eigenvalues --    0.49610   0.52119   0.55342   0.56856   0.58110
 Alpha virt. eigenvalues --    0.61187   0.62968   0.63810   0.64616   0.65310
 Alpha virt. eigenvalues --    0.66702   0.68379   0.70869   0.74495   0.75124
 Alpha virt. eigenvalues --    0.77991   0.79580   0.80272   0.81146   0.83152
 Alpha virt. eigenvalues --    0.84110   0.85762   0.87227   0.88130   0.89420
 Alpha virt. eigenvalues --    0.89962   0.90858   0.91284   0.93147   0.94855
 Alpha virt. eigenvalues --    0.96646   0.97839   0.99199   0.99633   1.02444
 Alpha virt. eigenvalues --    1.08180   1.10585   1.11656   1.19277   1.21082
 Alpha virt. eigenvalues --    1.23002   1.26820   1.32046   1.34052   1.35546
 Alpha virt. eigenvalues --    1.38310   1.39554   1.40554   1.42556   1.43097
 Alpha virt. eigenvalues --    1.45410   1.46484   1.59174   1.64979   1.72658
 Alpha virt. eigenvalues --    1.79615   1.80684   1.82203   1.84082   1.86852
 Alpha virt. eigenvalues --    1.87395   1.87710   1.88766   1.89707   1.91227
 Alpha virt. eigenvalues --    1.93824   2.01896   2.04574   2.05548   2.09468
 Alpha virt. eigenvalues --    2.09972   2.11065   2.13338   2.20822   2.22663
 Alpha virt. eigenvalues --    2.24774   2.25523   2.25613   2.35822   2.38057
 Alpha virt. eigenvalues --    2.38915   2.39887   2.43308   2.44285   2.52475
 Alpha virt. eigenvalues --    2.59735   2.63539   2.70055   2.70829   2.71313
 Alpha virt. eigenvalues --    2.81913   2.83107   2.89042   2.90838   2.92865
 Alpha virt. eigenvalues --    2.95534   2.97825   3.11779   3.18129   3.25600
 Alpha virt. eigenvalues --    3.30608   3.45468   3.66038   3.75925
          Condensed to atoms (all electrons):
               1          2          3          4          5          6
     1  C    6.002129   0.181032   0.123043  -0.197635   0.118189   0.130096
     2  C    0.181032   5.197923   0.209293   0.137727  -0.171708   0.092604
     3  C    0.123043   0.209293   5.195738   0.186317   0.133866  -0.168273
     4  C   -0.197635   0.137727   0.186317   5.243934   0.189980   0.144475
     5  C    0.118189  -0.171708   0.133866   0.189980   5.232093   0.162114
     6  C    0.130096   0.092604  -0.168273   0.144475   0.162114   5.266598
     7  C    0.017667  -0.067115   0.012180  -0.002314   0.023501  -0.039793
     8  O   -0.145332   0.002084  -0.000100  -0.000057   0.002049   0.019638
     9  S   -0.140364  -0.004320   0.000458  -0.000020  -0.000132   0.004529
    10  H   -0.098972   0.428947  -0.071105   0.018347  -0.003067   0.019483
    11  H    0.020052  -0.077097   0.439695  -0.093473   0.018314  -0.002893
    12  H   -0.002223   0.016784  -0.080715   0.433730  -0.082556   0.017078
    13  H    0.019038  -0.002345   0.017845  -0.090706   0.441059  -0.082949
    14  H   -0.097477   0.017005  -0.002227   0.017054  -0.075901   0.443137
               7          8          9         10         11         12
     1  C    0.017667  -0.145332  -0.140364  -0.098972   0.020052  -0.002223
     2  C   -0.067115   0.002084  -0.004320   0.428947  -0.077097   0.016784
     3  C    0.012180  -0.000100   0.000458  -0.071105   0.439695  -0.080715
     4  C   -0.002314  -0.000057  -0.000020   0.018347  -0.093473   0.433730
     5  C    0.023501   0.002049  -0.000132  -0.003067   0.018314  -0.082556
     6  C   -0.039793   0.019638   0.004529   0.019483  -0.002893   0.017078
     7  C    4.996406   0.694857   0.410638  -0.013681  -0.000158   0.000039
     8  O    0.694857   7.789742  -0.093117   0.000371   0.000002   0.000000
     9  S    0.410638  -0.093117  16.310769   0.046696  -0.000042   0.000001
    10  H   -0.013681   0.000371   0.046696   0.743935  -0.017625  -0.000254
    11  H   -0.000158   0.000002  -0.000042  -0.017625   0.790472  -0.016517
    12  H    0.000039   0.000000   0.000001  -0.000254  -0.016517   0.797131
    13  H   -0.000327  -0.000005   0.000005   0.000041  -0.000331  -0.016488
    14  H   -0.008972   0.021421   0.000886  -0.000187   0.000038  -0.000293
              13         14
     1  C    0.019038  -0.097477
     2  C   -0.002345   0.017005
     3  C    0.017845  -0.002227
     4  C   -0.090706   0.017054
     5  C    0.441059  -0.075901
     6  C   -0.082949   0.443137
     7  C   -0.000327  -0.008972
     8  O   -0.000005   0.021421
     9  S    0.000005   0.000886
    10  H    0.000041  -0.000187
    11  H   -0.000331   0.000038
    12  H   -0.016488  -0.000293
    13  H    0.793143  -0.015500
    14  H   -0.015500   0.741916
 Mulliken charges:
               1
     1  C    0.070757
     2  C    0.039185
     3  C    0.003986
     4  C    0.012639
     5  C    0.012199
     6  C   -0.005842
     7  C   -0.022928
     8  O   -0.291554
     9  S   -0.535985
    10  H   -0.052928
    11  H   -0.060437
    12  H   -0.065716
    13  H   -0.062478
    14  H   -0.040900
 Sum of Mulliken charges =  -1.00000
 Mulliken charges with hydrogens summed into heavy atoms:
               1
     1  C    0.070757
     2  C   -0.013743
     3  C   -0.056451
     4  C   -0.053076
     5  C   -0.050279
     6  C   -0.046741
     7  C   -0.022928
     8  O   -0.291554
     9  S   -0.535985
 Electronic spatial extent (au):  <R**2>=           1483.5000
 Charge=             -1.0000 electrons
 Dipole moment (field-independent basis, Debye):
    X=              8.5667    Y=             -0.4611    Z=              0.0847  Tot=              8.5795
 Quadrupole moment (field-independent basis, Debye-Ang):
   XX=            -88.9472   YY=            -67.3348   ZZ=            -64.4464
   XY=              0.2200   XZ=             -0.7674   YZ=             -3.4355
 Traceless Quadrupole moment (field-independent basis, Debye-Ang):
   XX=            -15.3710   YY=              6.2413   ZZ=              9.1297
   XY=              0.2200   XZ=             -0.7674   YZ=             -3.4355
 Octapole moment (field-independent basis, Debye-Ang**2):
  XXX=             53.8295  YYY=             -0.8089  ZZZ=              2.9389  XYY=             15.5826
  XXY=              4.9822  XXZ=              1.4982  XZZ=             -4.6882  YZZ=              2.7875
  YYZ=             -1.7520  XYZ=              3.1953
 Hexadecapole moment (field-independent basis, Debye-Ang**3):
 XXXX=          -1668.9531 YYYY=           -479.3205 ZZZZ=            -96.7452 XXXY=            -21.1674
 XXXZ=            -12.9912 YYYX=              1.4540 YYYZ=             -9.8873 ZZZX=             -4.5880
 ZZZY=              2.9802 XXYY=           -354.4762 XXZZ=           -285.0521 YYZZ=            -99.3194
 XXYZ=             -9.4555 YYXZ=              3.3426 ZZXY=             -3.8937
 N-N= 4.508515596089D+02 E-N=-2.661954985265D+03  KE= 7.375408382746D+02
   1 Symmetry operations used in ECPInt.
 ECPInt:  NShTT=    2556 NPrTT=    9872 LenC2=    2507 LenP2D=    7505.
 LDataN:  DoStor=T MaxTD1= 5 Len=  102
 Calling FoFJK, ICntrl=      2127 FMM=F ISym2X=0 I1Cent= 0 IOpClX= 0 NMat=1 NMatS=1 NMatT=0.
 ***** Axes restored to original set *****
 -------------------------------------------------------------------
 Center     Atomic                   Forces (Hartrees/Bohr)
 Number     Number              X              Y              Z
 -------------------------------------------------------------------
      1        6          -0.007290410    0.000799218   -0.000322018
      2        6          -0.011489229    0.002762441    0.000471849
      3        6           0.003633347   -0.006026894    0.000080659
      4        6          -0.002804514    0.000049326   -0.000391346
      5        6           0.004714180    0.001668962    0.000350174
      6        6          -0.007235423    0.004621693    0.000541714
      7        6           0.056302982    0.017772095   -0.004790408
      8        8          -0.019792678   -0.020706522    0.003430164
      9       16          -0.022282709    0.000766722    0.002635766
     10        1           0.009122824   -0.003536230   -0.002624158
     11        1          -0.000529576    0.004256883    0.001072172
     12        1          -0.004618887    0.001701893   -0.000492381
     13        1          -0.003746483   -0.002784818   -0.001472913
     14        1           0.006016578   -0.001344769    0.001510725
 -------------------------------------------------------------------
 Cartesian Forces:  Max     0.056302982 RMS     0.011345736

 GradGradGradGradGradGradGradGradGradGradGradGradGradGradGradGradGradGrad
 Berny optimization.
 FormGI is forming the generalized inverse of G from B-inverse, IUseBI=4.
 Internal  Forces:  Max     0.033091326 RMS     0.006813832
 Search for a local minimum.
 Step number   1 out of a maximum of   73
 All quantities printed in internal units (Hartrees-Bohrs-Radians)
 Mixed Optimization -- RFO/linear search
 Second derivative matrix not updated -- first step.
 ITU=  0
     Eigenvalues ---    0.00918   0.00925   0.01708   0.02067   0.02089
     Eigenvalues ---    0.02099   0.02123   0.02141   0.02156   0.02160
     Eigenvalues ---    0.02169   0.15995   0.15999   0.15999   0.16000
     Eigenvalues ---    0.16000   0.21999   0.22000   0.23474   0.24991
     Eigenvalues ---    0.25000   0.25000   0.29822   0.33615   0.34919
     Eigenvalues ---    0.35072   0.35087   0.35105   0.35194   0.41739
     Eigenvalues ---    0.41823   0.45416   0.46023   0.46153   0.46563
     Eigenvalues ---    0.93710
 RFO step:  Lambda=-1.13698473D-02 EMin= 9.18125048D-03
 Linear search not attempted -- first point.
 Iteration  1 RMS(Cart)=  0.05434205 RMS(Int)=  0.00293268
 Iteration  2 RMS(Cart)=  0.00316446 RMS(Int)=  0.00028076
 Iteration  3 RMS(Cart)=  0.00001004 RMS(Int)=  0.00028065
 Iteration  4 RMS(Cart)=  0.00000000 RMS(Int)=  0.00028065
 Variable       Old X    -DE/DX   Delta X   Delta X   Delta X     New X
                                 (Linear)    (Quad)   (Total)
    R1        2.64984  -0.00285   0.00000  -0.00692  -0.00690   2.64294
    R2        2.65049  -0.00110   0.00000  -0.00301  -0.00302   2.64747
    R3        2.81285   0.01403   0.00000   0.04037   0.04037   2.85322
    R4        2.64111   0.00070   0.00000   0.00137   0.00140   2.64251
    R5        2.05361   0.00353   0.00000   0.00970   0.00970   2.06331
    R6        2.63493   0.00437   0.00000   0.00978   0.00980   2.64473
    R7        2.05558   0.00440   0.00000   0.01215   0.01215   2.06773
    R8        2.63349   0.00309   0.00000   0.00721   0.00719   2.64069
    R9        2.05534   0.00494   0.00000   0.01364   0.01364   2.06898
   R10        2.63810   0.00213   0.00000   0.00461   0.00457   2.64267
   R11        2.05505   0.00487   0.00000   0.01344   0.01344   2.06849
   R12        2.05807   0.00216   0.00000   0.00599   0.00599   2.06406
   R13        2.31269   0.01784   0.00000   0.01881   0.01881   2.33150
   R14        3.32019  -0.01735   0.00000  -0.05604  -0.05604   3.26416
    A1        2.08174  -0.00180   0.00000  -0.00964  -0.00962   2.07213
    A2        2.14729  -0.00130   0.00000  -0.00356  -0.00356   2.14373
    A3        2.05386   0.00310   0.00000   0.01328   0.01325   2.06712
    A4        2.09623   0.00214   0.00000   0.00737   0.00724   2.10347
    A5        2.12211  -0.01027   0.00000  -0.05703  -0.05725   2.06486
    A6        2.06455   0.00815   0.00000   0.05049   0.05025   2.11480
    A7        2.09750   0.00092   0.00000   0.00484   0.00486   2.10236
    A8        2.09446  -0.00088   0.00000  -0.00480  -0.00488   2.08958
    A9        2.09118  -0.00004   0.00000   0.00012   0.00004   2.09122
   A10        2.09545  -0.00361   0.00000  -0.01295  -0.01293   2.08252
   A11        2.09448   0.00180   0.00000   0.00648   0.00646   2.10094
   A12        2.09320   0.00181   0.00000   0.00653   0.00651   2.09971
   A13        2.09377  -0.00017   0.00000   0.00084   0.00081   2.09458
   A14        2.09587  -0.00020   0.00000  -0.00212  -0.00211   2.09377
   A15        2.09353   0.00037   0.00000   0.00125   0.00127   2.09480
   A16        2.10144   0.00251   0.00000   0.00958   0.00956   2.11100
   A17        2.09899  -0.00732   0.00000  -0.04016  -0.04015   2.05884
   A18        2.08276   0.00481   0.00000   0.03059   0.03059   2.11334
   A19        2.10976  -0.01920   0.00000  -0.07368  -0.07381   2.03594
   A20        2.07037  -0.01393   0.00000  -0.05350  -0.05363   2.01674
   A21        2.10254   0.03309   0.00000   0.12639   0.12625   2.22879
    D1       -0.02216   0.00028   0.00000   0.00899   0.00908  -0.01308
    D2        3.09306   0.00164   0.00000   0.04752   0.04643   3.13949
    D3       -3.13744   0.00011   0.00000   0.00503   0.00530  -3.13215
    D4       -0.02222   0.00148   0.00000   0.04357   0.04264   0.02042
    D5        0.02274   0.00017   0.00000   0.00431   0.00411   0.02685
    D6       -3.11995   0.00031   0.00000   0.00904   0.00892  -3.11103
    D7        3.13942   0.00027   0.00000   0.00782   0.00749  -3.13627
    D8       -0.00326   0.00040   0.00000   0.01255   0.01230   0.00904
    D9        2.66475   0.00242   0.00000   0.11727   0.11721   2.78196
   D10       -0.51119   0.00194   0.00000   0.09371   0.09366  -0.41753
   D11       -0.45093   0.00233   0.00000   0.11370   0.11376  -0.33717
   D12        2.65632   0.00184   0.00000   0.09014   0.09021   2.74653
   D13        0.00744  -0.00046   0.00000  -0.01388  -0.01382  -0.00638
   D14        3.13860   0.00012   0.00000   0.00436   0.00457  -3.14001
   D15       -3.10864  -0.00150   0.00000  -0.04957  -0.05062   3.12392
   D16        0.02252  -0.00092   0.00000  -0.03133  -0.03223  -0.00971
   D17        0.00704   0.00021   0.00000   0.00556   0.00533   0.01236
   D18        3.13778   0.00043   0.00000   0.01309   0.01305  -3.13236
   D19       -3.12414  -0.00037   0.00000  -0.01261  -0.01305  -3.13720
   D20        0.00660  -0.00014   0.00000  -0.00508  -0.00533   0.00127
   D21       -0.00651   0.00024   0.00000   0.00772   0.00776   0.00124
   D22        3.12996   0.00010   0.00000   0.00337   0.00341   3.13337
   D23       -3.13726   0.00002   0.00000   0.00019   0.00004  -3.13722
   D24       -0.00079  -0.00012   0.00000  -0.00416  -0.00430  -0.00509
   D25       -0.00849  -0.00044   0.00000  -0.01271  -0.01262  -0.02111
   D26        3.13418  -0.00056   0.00000  -0.01736  -0.01753   3.11665
   D27        3.13821  -0.00029   0.00000  -0.00836  -0.00827   3.12995
   D28       -0.00230  -0.00041   0.00000  -0.01300  -0.01318  -0.01547
         Item               Value     Threshold  Converged?
 Maximum Force            0.033091     0.000450     NO 
 RMS     Force            0.006814     0.000300     NO 
 Maximum Displacement     0.217256     0.001800     NO 
 RMS     Displacement     0.054681     0.001200     NO 
 Predicted change in Energy=-6.209405D-03
 GradGradGradGradGradGradGradGradGradGradGradGradGradGradGradGradGradGrad

                          Input orientation:                          
 ---------------------------------------------------------------------
 Center     Atomic      Atomic             Coordinates (Angstroms)
 Number     Number       Type             X           Y           Z
 ---------------------------------------------------------------------
      1          6           0        0.616779   -0.369749    0.125684
      2          6           0        0.327425    0.975813    0.374221
      3          6           0       -0.988112    1.444380    0.302022
      4          6           0       -2.033854    0.574653   -0.027657
      5          6           0       -1.752779   -0.772547   -0.270039
      6          6           0       -0.437721   -1.239755   -0.180701
      7          6           0        2.015384   -0.933607    0.200809
      8          8           0        2.112600   -2.154115    0.352829
      9         16           0        3.291932    0.207464   -0.027237
     10          1           0        1.154144    1.647416    0.614308
     11          1           0       -1.199528    2.500012    0.497498
     12          1           0       -3.062232    0.944764   -0.092260
     13          1           0       -2.563651   -1.463623   -0.521128
     14          1           0       -0.201316   -2.293558   -0.343877
 ---------------------------------------------------------------------
                    Distance matrix (angstroms):
                    1          2          3          4          5
     1  C    0.000000
     2  C    1.398582   0.000000
     3  C    2.428545   1.398358   0.000000
     4  C    2.818025   2.428595   1.399532   0.000000
     5  C    2.435908   2.792684   2.413863   1.397391   0.000000
     6  C    1.400983   2.408760   2.782181   2.421392   1.398442
     7  C    1.509860   2.554440   3.832239   4.327052   3.800880
     8  O    2.339452   3.603298   4.750385   4.978356   4.151848
     9  S    2.740986   3.088662   4.467343   5.338430   5.144753
    10  H    2.143937   1.091859   2.174398   3.424364   3.884390
    11  H    3.416539   2.161010   1.094197   2.163075   3.406588
    12  H    3.912872   3.421745   2.169573   1.094859   2.166894
    13  H    3.424918   3.887264   3.408281   2.163046   1.094598
    14  H    2.142617   3.388807   3.874069   3.418307   2.173928
                    6          7          8          9         10
     6  C    0.000000
     7  C    2.501400   0.000000
     8  O    2.761312   1.233775   0.000000
     9  S    4.003537   1.727317   2.666895   0.000000
    10  H    3.391434   2.752162   3.929204   2.656159   0.000000
    11  H    3.876359   4.713112   5.714194   5.069945   2.506060
    12  H    3.415845   5.421840   6.048143   6.397128   4.332526
    13  H    2.164622   4.665799   4.807068   6.109363   4.978933
    14  H    1.092252   2.657049   2.420547   4.307917   4.276290
                   11         12         13         14
    11  H    0.000000
    12  H    2.497253   0.000000
    13  H    4.313795   2.496565   0.000000
    14  H    4.968163   4.328380   2.510147   0.000000
 Stoichiometry    C7H5OS(1-)
 Framework group  C1[X(C7H5OS)]
 Deg. of freedom    36
 Full point group                 C1      NOp   1
 Largest Abelian subgroup         C1      NOp   1
 Largest concise Abelian subgroup C1      NOp   1
                         Standard orientation:                         
 ---------------------------------------------------------------------
 Center     Atomic      Atomic             Coordinates (Angstroms)
 Number     Number       Type             X           Y           Z
 ---------------------------------------------------------------------
      1          6           0        0.061159    0.174024    0.059465
      2          6           0        0.555694   -1.122964    0.230603
      3          6           0        1.930686   -1.371642    0.176176
      4          6           0        2.831837   -0.326774   -0.058065
      5          6           0        2.345051    0.972706   -0.222657
      6          6           0        0.970310    1.218924   -0.151208
      7          6           0       -1.411130    0.503235    0.119962
      8          8           0       -1.706329    1.679431    0.347167
      9         16           0       -2.482287   -0.806413   -0.227987
     10          1           0       -0.158746   -1.931831    0.396333
     11          1           0        2.303265   -2.391664    0.310360
     12          1           0        3.907512   -0.524367   -0.109001
     13          1           0        3.041020    1.799018   -0.398674
     14          1           0        0.572536    2.230942   -0.254212
 ---------------------------------------------------------------------
 Rotational constants (GHZ):           3.1240239           0.9619103           0.7488982
 Standard basis: def2SVP (5D, 7F)
 There are   164 symmetry adapted cartesian basis functions of A   symmetry.
 There are   155 symmetry adapted basis functions of A   symmetry.
   155 basis functions,   272 primitive gaussians,   164 cartesian basis functions
    36 alpha electrons       36 beta electrons
       nuclear repulsion energy       452.0047537780 Hartrees.
 NAtoms=   14 NActive=   14 NUniq=   14 SFac= 1.00D+00 NAtFMM=   60 NAOKFM=F Big=F
 Integral buffers will be    131072 words long.
 Raffenetti 2 integral format.
 Two-electron integral symmetry is turned on.
 One-electron integrals computed using PRISM.
   1 Symmetry operations used in ECPInt.
 ECPInt:  NShTT=    2556 NPrTT=    9872 LenC2=    2509 LenP2D=    7528.
 LDataN:  DoStor=T MaxTD1= 4 Len=   56
 NBasis=   155 RedAO= T EigKep=  3.03D-04  NBF=   155
 NBsUse=   155 1.00D-06 EigRej= -1.00D+00 NBFU=   155
 Initial guess from the checkpoint file:  "pka_scale_frag5_pka_A_opt.chk"
 B after Tr=    -0.000000   -0.000000   -0.000000
         Rot=    0.999985    0.004869    0.000871    0.002251 Ang=   0.62 deg.
 ExpMin= 1.22D-01 ExpMax= 9.18D+03 ExpMxC= 1.38D+03 IAcc=3 IRadAn=         5 AccDes= 0.00D+00
 Harris functional with IExCor= 1009 and IRadAn=       5 diagonalized for initial guess.
 HarFok:  IExCor= 1009 AccDes= 0.00D+00 IRadAn=         5 IDoV= 1 UseB2=F ITyADJ=14
 ICtDFT=  3500011 ScaDFX=  1.000000  1.000000  1.000000  1.000000
 FoFCou: FMM=F IPFlag=           0 FMFlag=      100000 FMFlg1=           0
         NFxFlg=           0 DoJE=T BraDBF=F KetDBF=T FulRan=T
         wScrn=  0.000000 ICntrl=       500 IOpCl=  0 I1Cent=   200000004 NGrid=           0
         NMat0=    1 NMatS0=      1 NMatT0=    0 NMatD0=    1 NMtDS0=    0 NMtDT0=    0
 Petite list used in FoFCou.
 Requested convergence on RMS density matrix=1.00D-08 within 128 cycles.
 Requested convergence on MAX density matrix=1.00D-06.
 Requested convergence on             energy=1.00D-06.
 No special actions if energy rises.
 Integral accuracy reduced to 1.0D-05 until final iterations.
 Initial convergence to 1.0D-05 achieved.  Increase integral accuracy.  SCF Done:  E(RMN15) =  -742.262155593     A.U. after   15 cycles
            NFock= 15  Conv=0.41D-08     -V/T= 2.0065
   1 Symmetry operations used in ECPInt.
 ECPInt:  NShTT=    2556 NPrTT=    9872 LenC2=    2509 LenP2D=    7528.
 LDataN:  DoStor=T MaxTD1= 5 Len=  102
 Calling FoFJK, ICntrl=      2127 FMM=F ISym2X=0 I1Cent= 0 IOpClX= 0 NMat=1 NMatS=1 NMatT=0.
 ***** Axes restored to original set *****
 -------------------------------------------------------------------
 Center     Atomic                   Forces (Hartrees/Bohr)
 Number     Number              X              Y              Z
 -------------------------------------------------------------------
      1        6          -0.006352745    0.001118163    0.001067759
      2        6          -0.007589833    0.004669170   -0.000068761
      3        6           0.001104139   -0.001403058   -0.000353640
      4        6          -0.000305694    0.000238695    0.000021029
      5        6           0.001724854    0.000026335    0.000385430
      6        6          -0.004490934    0.000421843    0.000117720
      7        6           0.018049223    0.005859795   -0.004302624
      8        8          -0.001135359   -0.002416510    0.000399423
      9       16          -0.005534794   -0.006980352    0.002913059
     10        1           0.002275856   -0.001809315   -0.000895672
     11        1          -0.000117670    0.000134391    0.000373684
     12        1           0.000360825   -0.000041187    0.000017815
     13        1          -0.000008234    0.000036830   -0.000283735
     14        1           0.002020363    0.000145201    0.000608514
 -------------------------------------------------------------------
 Cartesian Forces:  Max     0.018049223 RMS     0.003894377

 GradGradGradGradGradGradGradGradGradGradGradGradGradGradGradGradGradGrad
 Berny optimization.
 Using GEDIIS/GDIIS optimizer.
 FormGI is forming the generalized inverse of G from B-inverse, IUseBI=4.
 Internal  Forces:  Max     0.011813334 RMS     0.002317413
 Search for a local minimum.
 Step number   2 out of a maximum of   73
 All quantities printed in internal units (Hartrees-Bohrs-Radians)
 Mixed Optimization -- RFO/linear search
 Update second derivatives using D2CorX and points    1    2
 DE= -6.63D-03 DEPred=-6.21D-03 R= 1.07D+00
 TightC=F SS=  1.41D+00  RLast= 3.04D-01 DXNew= 5.0454D-01 9.1156D-01
 Trust test= 1.07D+00 RLast= 3.04D-01 DXMaxT set to 5.05D-01
 ITU=  1  0
 Use linear search instead of GDIIS.
     Eigenvalues ---    0.00885   0.00998   0.01705   0.02067   0.02100
     Eigenvalues ---    0.02103   0.02125   0.02144   0.02156   0.02160
     Eigenvalues ---    0.02169   0.14191   0.15999   0.16000   0.16000
     Eigenvalues ---    0.16001   0.21644   0.22005   0.22019   0.23703
     Eigenvalues ---    0.24995   0.26856   0.30434   0.33837   0.34925
     Eigenvalues ---    0.35075   0.35098   0.35183   0.36135   0.41700
     Eigenvalues ---    0.42427   0.45514   0.46000   0.46361   0.46650
     Eigenvalues ---    0.93357
 RFO step:  Lambda=-2.32190296D-03 EMin= 8.84721801D-03
 Quartic linear search produced a step of  0.19493.
 Iteration  1 RMS(Cart)=  0.06211274 RMS(Int)=  0.00768535
 Iteration  2 RMS(Cart)=  0.00992483 RMS(Int)=  0.00222459
 Iteration  3 RMS(Cart)=  0.00017694 RMS(Int)=  0.00222012
 Iteration  4 RMS(Cart)=  0.00000115 RMS(Int)=  0.00222012
 Iteration  5 RMS(Cart)=  0.00000001 RMS(Int)=  0.00222012
 Variable       Old X    -DE/DX   Delta X   Delta X   Delta X     New X
                                 (Linear)    (Quad)   (Total)
    R1        2.64294   0.00240  -0.00135   0.00652   0.00519   2.64813
    R2        2.64747   0.00020  -0.00059   0.00066   0.00007   2.64755
    R3        2.85322   0.01181   0.00787   0.04055   0.04842   2.90164
    R4        2.64251  -0.00159   0.00027  -0.00405  -0.00377   2.63875
    R5        2.06331   0.00041   0.00189   0.00119   0.00308   2.06640
    R6        2.64473  -0.00038   0.00191  -0.00122   0.00069   2.64542
    R7        2.06773   0.00022   0.00237   0.00049   0.00286   2.07060
    R8        2.64069   0.00005   0.00140  -0.00015   0.00124   2.64193
    R9        2.06898  -0.00035   0.00266  -0.00146   0.00120   2.07018
   R10        2.64267  -0.00135   0.00089  -0.00358  -0.00270   2.63997
   R11        2.06849   0.00005   0.00262  -0.00011   0.00251   2.07100
   R12        2.06406   0.00021   0.00117   0.00057   0.00174   2.06580
   R13        2.33150   0.00235   0.00367   0.00267   0.00634   2.33783
   R14        3.26416  -0.00909  -0.01092  -0.03467  -0.04559   3.21857
    A1        2.07213  -0.00177  -0.00187  -0.00784  -0.00970   2.06243
    A2        2.14373   0.00367  -0.00069   0.01719   0.01648   2.16021
    A3        2.06712  -0.00191   0.00258  -0.00942  -0.00685   2.06027
    A4        2.10347   0.00091   0.00141   0.00488   0.00625   2.10972
    A5        2.06486  -0.00346  -0.01116  -0.02296  -0.03419   2.03067
    A6        2.11480   0.00255   0.00979   0.01799   0.02769   2.14249
    A7        2.10236  -0.00013   0.00095  -0.00102  -0.00007   2.10229
    A8        2.08958   0.00009  -0.00095   0.00079  -0.00018   2.08940
    A9        2.09122   0.00004   0.00001   0.00025   0.00024   2.09146
   A10        2.08252  -0.00008  -0.00252  -0.00078  -0.00331   2.07921
   A11        2.10094  -0.00005   0.00126  -0.00025   0.00101   2.10195
   A12        2.09971   0.00013   0.00127   0.00104   0.00231   2.10202
   A13        2.09458   0.00030   0.00016   0.00095   0.00109   2.09567
   A14        2.09377  -0.00017  -0.00041  -0.00058  -0.00098   2.09279
   A15        2.09480  -0.00013   0.00025  -0.00036  -0.00011   2.09469
   A16        2.11100   0.00077   0.00186   0.00374   0.00560   2.11660
   A17        2.05884  -0.00253  -0.00783  -0.01657  -0.02440   2.03444
   A18        2.11334   0.00176   0.00596   0.01282   0.01877   2.13212
   A19        2.03594  -0.00389  -0.01439  -0.01194  -0.03635   1.99960
   A20        2.01674   0.00482  -0.01045   0.02849   0.00802   2.02476
   A21        2.22879  -0.00079   0.02461  -0.00191   0.01245   2.24124
    D1       -0.01308   0.00008   0.00177   0.00223   0.00405  -0.00903
    D2        3.13949   0.00029   0.00905   0.01037   0.01895  -3.12475
    D3       -3.13215   0.00015   0.00103   0.00624   0.00740  -3.12475
    D4        0.02042   0.00037   0.00831   0.01438   0.02230   0.04272
    D5        0.02685   0.00003   0.00080   0.00209   0.00280   0.02966
    D6       -3.11103   0.00008   0.00174   0.00459   0.00624  -3.10479
    D7       -3.13627   0.00003   0.00146  -0.00139  -0.00004  -3.13631
    D8        0.00904   0.00008   0.00240   0.00110   0.00340   0.01244
    D9        2.78196  -0.00017   0.02285  -0.03736  -0.01357   2.76839
   D10       -0.41753   0.00224   0.01826   0.21033   0.22758  -0.18995
   D11       -0.33717  -0.00010   0.02218  -0.03338  -0.01019  -0.34736
   D12        2.74653   0.00232   0.01758   0.21431   0.23096   2.97749
   D13       -0.00638  -0.00010  -0.00269  -0.00395  -0.00662  -0.01300
   D14       -3.14001  -0.00011   0.00089  -0.00637  -0.00539   3.13778
   D15        3.12392  -0.00036  -0.00987  -0.01258  -0.02289   3.10103
   D16       -0.00971  -0.00037  -0.00628  -0.01501  -0.02166  -0.03138
   D17        0.01236   0.00003   0.00104   0.00140   0.00234   0.01471
   D18       -3.13236   0.00006   0.00254   0.00212   0.00464  -3.12772
   D19       -3.13720   0.00005  -0.00254   0.00383   0.00111  -3.13608
   D20        0.00127   0.00008  -0.00104   0.00454   0.00340   0.00467
   D21        0.00124   0.00007   0.00151   0.00285   0.00437   0.00562
   D22        3.13337   0.00009   0.00067   0.00419   0.00487   3.13825
   D23       -3.13722   0.00004   0.00001   0.00214   0.00208  -3.13514
   D24       -0.00509   0.00006  -0.00084   0.00348   0.00258  -0.00251
   D25       -0.02111  -0.00012  -0.00246  -0.00474  -0.00716  -0.02827
   D26        3.11665  -0.00018  -0.00342  -0.00738  -0.01089   3.10577
   D27        3.12995  -0.00014  -0.00161  -0.00609  -0.00765   3.12229
   D28       -0.01547  -0.00020  -0.00257  -0.00872  -0.01138  -0.02685
         Item               Value     Threshold  Converged?
 Maximum Force            0.011813     0.000450     NO 
 RMS     Force            0.002317     0.000300     NO 
 Maximum Displacement     0.434414     0.001800     NO 
 RMS     Displacement     0.069973     0.001200     NO 
 Predicted change in Energy=-1.465178D-03
 GradGradGradGradGradGradGradGradGradGradGradGradGradGradGradGradGradGrad

                          Input orientation:                          
 ---------------------------------------------------------------------
 Center     Atomic      Atomic             Coordinates (Angstroms)
 Number     Number       Type             X           Y           Z
 ---------------------------------------------------------------------
      1          6           0        0.620598   -0.358397    0.079199
      2          6           0        0.322600    0.988729    0.324494
      3          6           0       -0.995357    1.448817    0.290660
      4          6           0       -2.045595    0.571864   -0.005423
      5          6           0       -1.759581   -0.774688   -0.249412
      6          6           0       -0.440962   -1.232223   -0.189834
      7          6           0        2.041274   -0.939507    0.120381
      8          8           0        2.091580   -2.163359    0.293987
      9         16           0        3.309805    0.194039    0.202645
     10          1           0        1.174467    1.647353    0.514909
     11          1           0       -1.207002    2.505456    0.488914
     12          1           0       -3.078109    0.935844   -0.044631
     13          1           0       -2.572332   -1.472998   -0.479305
     14          1           0       -0.182317   -2.283384   -0.342112
 ---------------------------------------------------------------------
                    Distance matrix (angstroms):
                    1          2          3          4          5
     1  C    0.000000
     2  C    1.401328   0.000000
     3  C    2.433525   1.396365   0.000000
     4  C    2.825089   2.427132   1.399897   0.000000
     5  C    2.438552   2.788276   2.412403   1.398047   0.000000
     6  C    1.401021   2.404202   2.779604   2.421483   1.397012
     7  C    1.535482   2.591061   3.867067   4.359194   3.822357
     8  O    2.338335   3.614676   4.751527   4.968633   4.129786
     9  S    2.748137   3.093504   4.485156   5.372741   5.180874
    10  H    2.125947   1.093490   2.190397   3.434563   3.880607
    11  H    3.421935   2.160365   1.095712   2.164806   3.407317
    12  H    3.920565   3.421093   2.171041   1.095493   2.169417
    13  H    3.427691   3.884177   3.408328   2.164135   1.095926
    14  H    2.127851   3.377281   3.871790   3.426019   2.184609
                    6          7          8          9         10
     6  C    0.000000
     7  C    2.518614   0.000000
     8  O    2.741326   1.237128   0.000000
     9  S    4.031937   1.703192   2.655135   0.000000
    10  H    3.376127   2.756601   3.925740   2.601787   0.000000
    11  H    3.875275   4.749198   5.719832   5.081942   2.531484
    12  H    3.417037   5.454563   6.037004   6.435593   4.347843
    13  H    2.164371   4.682905   4.777725   6.151715   4.976300
    14  H    1.093173   2.638990   2.364242   4.316167   4.245709
                   11         12         13         14
    11  H    0.000000
    12  H    2.499879   0.000000
    13  H    4.316211   2.499455   0.000000
    14  H    4.967250   4.340223   2.527393   0.000000
 Stoichiometry    C7H5OS(1-)
 Framework group  C1[X(C7H5OS)]
 Deg. of freedom    36
 Full point group                 C1      NOp   1
 Largest Abelian subgroup         C1      NOp   1
 Largest concise Abelian subgroup C1      NOp   1
                         Standard orientation:                         
 ---------------------------------------------------------------------
 Center     Atomic      Atomic             Coordinates (Angstroms)
 Number     Number       Type             X           Y           Z
 ---------------------------------------------------------------------
      1          6           0        0.063822    0.166414   -0.011729
      2          6           0        0.559531   -1.137725    0.119469
      3          6           0        1.933905   -1.384377    0.129279
      4          6           0        2.844892   -0.330339   -0.007897
      5          6           0        2.361023    0.974929   -0.137049
      6          6           0        0.985090    1.216202   -0.121594
      7          6           0       -1.431463    0.515443   -0.009256
      8          8           0       -1.684714    1.691316    0.280007
      9         16           0       -2.505924   -0.801056   -0.124272
     10          1           0       -0.185236   -1.935565    0.186523
     11          1           0        2.300640   -2.411310    0.236511
     12          1           0        3.922816   -0.525680   -0.013171
     13          1           0        3.062922    1.810017   -0.242031
     14          1           0        0.570543    2.225616   -0.186875
 ---------------------------------------------------------------------
 Rotational constants (GHZ):           3.1645366           0.9575257           0.7409003
 Standard basis: def2SVP (5D, 7F)
 There are   164 symmetry adapted cartesian basis functions of A   symmetry.
 There are   155 symmetry adapted basis functions of A   symmetry.
   155 basis functions,   272 primitive gaussians,   164 cartesian basis functions
    36 alpha electrons       36 beta electrons
       nuclear repulsion energy       451.8211831682 Hartrees.
 NAtoms=   14 NActive=   14 NUniq=   14 SFac= 1.00D+00 NAtFMM=   60 NAOKFM=F Big=F
 Integral buffers will be    131072 words long.
 Raffenetti 2 integral format.
 Two-electron integral symmetry is turned on.
 One-electron integrals computed using PRISM.
   1 Symmetry operations used in ECPInt.
 ECPInt:  NShTT=    2556 NPrTT=    9872 LenC2=    2509 LenP2D=    7525.
 LDataN:  DoStor=T MaxTD1= 4 Len=   56
 NBasis=   155 RedAO= T EigKep=  3.04D-04  NBF=   155
 NBsUse=   155 1.00D-06 EigRej= -1.00D+00 NBFU=   155
 Initial guess from the checkpoint file:  "pka_scale_frag5_pka_A_opt.chk"
 B after Tr=    -0.000000    0.000000   -0.000000
         Rot=    1.000000   -0.000000    0.000000   -0.000000 Ang=   0.00 deg.
 ExpMin= 1.22D-01 ExpMax= 9.18D+03 ExpMxC= 1.38D+03 IAcc=3 IRadAn=         5 AccDes= 0.00D+00
 Harris functional with IExCor= 1009 and IRadAn=       5 diagonalized for initial guess.
 HarFok:  IExCor= 1009 AccDes= 0.00D+00 IRadAn=         5 IDoV= 1 UseB2=F ITyADJ=14
 ICtDFT=  3500011 ScaDFX=  1.000000  1.000000  1.000000  1.000000
 FoFCou: FMM=F IPFlag=           0 FMFlag=      100000 FMFlg1=           0
         NFxFlg=           0 DoJE=T BraDBF=F KetDBF=T FulRan=T
         wScrn=  0.000000 ICntrl=       500 IOpCl=  0 I1Cent=   200000004 NGrid=           0
         NMat0=    1 NMatS0=      1 NMatT0=    0 NMatD0=    1 NMtDS0=    0 NMtDT0=    0
 Petite list used in FoFCou.
 Requested convergence on RMS density matrix=1.00D-08 within 128 cycles.
 Requested convergence on MAX density matrix=1.00D-06.
 Requested convergence on             energy=1.00D-06.
 No special actions if energy rises.
 Integral accuracy reduced to 1.0D-05 until final iterations.
 Initial convergence to 1.0D-05 achieved.  Increase integral accuracy.  SCF Done:  E(RMN15) =  -742.260959970     A.U. after    9 cycles
            NFock=  9  Conv=0.49D-08     -V/T= 2.0065
   1 Symmetry operations used in ECPInt.
 ECPInt:  NShTT=    2556 NPrTT=    9872 LenC2=    2509 LenP2D=    7525.
 LDataN:  DoStor=T MaxTD1= 5 Len=  102
 Calling FoFJK, ICntrl=      2127 FMM=F ISym2X=0 I1Cent= 0 IOpClX= 0 NMat=1 NMatS=1 NMatT=0.
 ***** Axes restored to original set *****
 -------------------------------------------------------------------
 Center     Atomic                   Forces (Hartrees/Bohr)
 Number     Number              X              Y              Z
 -------------------------------------------------------------------
      1        6          -0.003348089    0.000535252   -0.006761091
      2        6           0.000342025    0.000267024   -0.002437633
      3        6          -0.000712651    0.000363399    0.000027640
      4        6           0.000623503    0.000269269    0.000152101
      5        6          -0.000208299   -0.000787994    0.000499371
      6        6          -0.000716527   -0.000953266    0.000095131
      7        6          -0.003326071    0.003478476    0.026249755
      8        8           0.002396456   -0.001410536   -0.011634230
      9       16           0.003757724   -0.001527400   -0.006754880
     10        1          -0.000030018    0.000206893    0.000580741
     11        1           0.000051506   -0.000724082   -0.000095994
     12        1           0.000806116   -0.000284805    0.000108257
     13        1           0.000536934    0.000498342    0.000181013
     14        1          -0.000172609    0.000069429   -0.000210181
 -------------------------------------------------------------------
 Cartesian Forces:  Max     0.026249755 RMS     0.004846449

 GradGradGradGradGradGradGradGradGradGradGradGradGradGradGradGradGradGrad
 Berny optimization.
 Using GEDIIS/GDIIS optimizer.
 FormGI is forming the generalized inverse of G from B-inverse, IUseBI=4.
 Internal  Forces:  Max     0.012824291 RMS     0.003177738
 Search for a local minimum.
 Step number   3 out of a maximum of   73
 All quantities printed in internal units (Hartrees-Bohrs-Radians)
 Mixed Optimization -- RFO/linear search
 Update second derivatives using D2CorX and points    1    3    2
 DE=  1.20D-03 DEPred=-1.47D-03 R=-8.16D-01
 Trust test=-8.16D-01 RLast= 3.43D-01 DXMaxT set to 2.52D-01
 ITU= -1  1  0
 Use linear search instead of GDIIS.
     Eigenvalues ---    0.00594   0.01700   0.02049   0.02077   0.02103
     Eigenvalues ---    0.02119   0.02144   0.02155   0.02160   0.02169
     Eigenvalues ---    0.06760   0.12850   0.15999   0.16000   0.16000
     Eigenvalues ---    0.16001   0.19990   0.22002   0.22010   0.23636
     Eigenvalues ---    0.25052   0.27156   0.29645   0.32306   0.34924
     Eigenvalues ---    0.35076   0.35097   0.35187   0.35513   0.41681
     Eigenvalues ---    0.42179   0.45481   0.45989   0.46221   0.46582
     Eigenvalues ---    0.93308
 RFO step:  Lambda=-3.88512760D-03 EMin= 5.94295758D-03
 Quartic linear search produced a step of -0.65271.
 Iteration  1 RMS(Cart)=  0.05704294 RMS(Int)=  0.01331056
 Iteration  2 RMS(Cart)=  0.01686003 RMS(Int)=  0.00154052
 Iteration  3 RMS(Cart)=  0.00058739 RMS(Int)=  0.00142940
 Iteration  4 RMS(Cart)=  0.00000154 RMS(Int)=  0.00142940
 Iteration  5 RMS(Cart)=  0.00000001 RMS(Int)=  0.00142940
 Variable       Old X    -DE/DX   Delta X   Delta X   Delta X     New X
                                 (Linear)    (Quad)   (Total)
    R1        2.64813  -0.00017  -0.00339   0.01212   0.00874   2.65686
    R2        2.64755   0.00071  -0.00005   0.00121   0.00117   2.64872
    R3        2.90164   0.00262  -0.03160   0.09842   0.06682   2.96846
    R4        2.63875  -0.00029   0.00246  -0.00846  -0.00601   2.63274
    R5        2.06640   0.00020  -0.00201   0.00509   0.00307   2.06947
    R6        2.64542  -0.00079  -0.00045  -0.00079  -0.00124   2.64418
    R7        2.07060  -0.00073  -0.00187   0.00336   0.00149   2.07209
    R8        2.64193  -0.00025  -0.00081   0.00122   0.00041   2.64233
    R9        2.07018  -0.00086  -0.00078  -0.00055  -0.00133   2.06885
   R10        2.63997  -0.00100   0.00176  -0.00720  -0.00543   2.63454
   R11        2.07100  -0.00075  -0.00164   0.00237   0.00073   2.07173
   R12        2.06580  -0.00008  -0.00114   0.00261   0.00147   2.06727
   R13        2.33783  -0.00014  -0.00414   0.01026   0.00613   2.34396
   R14        3.21857   0.00145   0.02976  -0.08564  -0.05588   3.16268
    A1        2.06243   0.00052   0.00633  -0.01806  -0.01173   2.05070
    A2        2.16021   0.00066  -0.01076   0.03623   0.02546   2.18567
    A3        2.06027  -0.00118   0.00447  -0.01832  -0.01385   2.04642
    A4        2.10972  -0.00051  -0.00408   0.01139   0.00731   2.11704
    A5        2.03067   0.00050   0.02232  -0.06153  -0.03920   1.99147
    A6        2.14249   0.00002  -0.01807   0.04972   0.03167   2.17416
    A7        2.10229  -0.00011   0.00005  -0.00119  -0.00116   2.10113
    A8        2.08940   0.00014   0.00012   0.00074   0.00086   2.09026
    A9        2.09146  -0.00003  -0.00016   0.00047   0.00032   2.09178
   A10        2.07921   0.00073   0.00216  -0.00391  -0.00176   2.07746
   A11        2.10195  -0.00039  -0.00066   0.00055  -0.00010   2.10185
   A12        2.10202  -0.00034  -0.00151   0.00336   0.00186   2.10388
   A13        2.09567  -0.00021  -0.00071   0.00184   0.00113   2.09680
   A14        2.09279   0.00007   0.00064  -0.00161  -0.00098   2.09181
   A15        2.09469   0.00014   0.00007  -0.00021  -0.00014   2.09455
   A16        2.11660  -0.00041  -0.00366   0.00979   0.00613   2.12273
   A17        2.03444   0.00039   0.01592  -0.04403  -0.02812   2.00632
   A18        2.13212   0.00001  -0.01225   0.03419   0.02192   2.15404
   A19        1.99960   0.00198   0.02372  -0.04542  -0.02822   1.97137
   A20        2.02476   0.00716  -0.00523   0.05162   0.03986   2.06461
   A21        2.24124  -0.00454  -0.00813   0.01633   0.00164   2.24288
    D1       -0.00903   0.00029  -0.00265   0.01023   0.00757  -0.00146
    D2       -3.12475  -0.00015  -0.01237   0.02721   0.01484  -3.10991
    D3       -3.12475   0.00035  -0.00483   0.01768   0.01287  -3.11188
    D4        0.04272  -0.00008  -0.01455   0.03466   0.02014   0.06285
    D5        0.02966  -0.00041  -0.00183  -0.00068  -0.00250   0.02716
    D6       -3.10479  -0.00017  -0.00407   0.00819   0.00405  -3.10074
    D7       -3.13631  -0.00044   0.00003  -0.00687  -0.00677   3.14011
    D8        0.01244  -0.00020  -0.00222   0.00199  -0.00023   0.01221
    D9        2.76839   0.01278   0.00886   0.25300   0.26154   3.02992
   D10       -0.18995  -0.01037  -0.14854   0.13534  -0.01291  -0.20286
   D11       -0.34736   0.01282   0.00665   0.26044   0.26680  -0.08056
   D12        2.97749  -0.01033  -0.15075   0.14278  -0.00765   2.96984
   D13       -0.01300  -0.00003   0.00432  -0.01107  -0.00675  -0.01975
   D14        3.13778  -0.00021   0.00352  -0.01341  -0.00990   3.12788
   D15        3.10103   0.00043   0.01494  -0.03088  -0.01592   3.08511
   D16       -0.03138   0.00026   0.01414  -0.03322  -0.01907  -0.05045
   D17        0.01471  -0.00010  -0.00153   0.00231   0.00078   0.01549
   D18       -3.12772  -0.00011  -0.00303   0.00543   0.00240  -3.12532
   D19       -3.13608   0.00007  -0.00072   0.00466   0.00393  -3.13215
   D20        0.00467   0.00006  -0.00222   0.00778   0.00556   0.01023
   D21        0.00562  -0.00001  -0.00285   0.00698   0.00412   0.00974
   D22        3.13825   0.00006  -0.00318   0.00941   0.00623  -3.13871
   D23       -3.13514   0.00000  -0.00136   0.00386   0.00250  -3.13264
   D24       -0.00251   0.00007  -0.00169   0.00629   0.00460   0.00210
   D25       -0.02827   0.00028   0.00467  -0.00813  -0.00343  -0.03170
   D26        3.10577   0.00003   0.00710  -0.01782  -0.01075   3.09502
   D27        3.12229   0.00022   0.00500  -0.01055  -0.00553   3.11676
   D28       -0.02685  -0.00004   0.00743  -0.02025  -0.01285  -0.03970
         Item               Value     Threshold  Converged?
 Maximum Force            0.012824     0.000450     NO 
 RMS     Force            0.003178     0.000300     NO 
 Maximum Displacement     0.391213     0.001800     NO 
 RMS     Displacement     0.067611     0.001200     NO 
 Predicted change in Energy=-2.860988D-03
 GradGradGradGradGradGradGradGradGradGradGradGradGradGradGradGradGradGrad

                          Input orientation:                          
 ---------------------------------------------------------------------
 Center     Atomic      Atomic             Coordinates (Angstroms)
 Number     Number       Type             X           Y           Z
 ---------------------------------------------------------------------
      1          6           0        0.619753   -0.334786    0.115205
      2          6           0        0.297732    1.016980    0.329047
      3          6           0       -1.020823    1.463833    0.277086
      4          6           0       -2.059201    0.572522   -0.014819
      5          6           0       -1.755466   -0.774543   -0.234596
      6          6           0       -0.436183   -1.217340   -0.150677
      7          6           0        2.065512   -0.944565    0.189276
      8          8           0        2.074928   -2.180672    0.086966
      9         16           0        3.367026    0.105599    0.254202
     10          1           0        1.166062    1.661838    0.500634
     11          1           0       -1.244768    2.521428    0.460554
     12          1           0       -3.093890    0.925861   -0.070806
     13          1           0       -2.558246   -1.484084   -0.466961
     14          1           0       -0.143364   -2.264525   -0.270641
 ---------------------------------------------------------------------
                    Distance matrix (angstroms):
                    1          2          3          4          5
     1  C    0.000000
     2  C    1.405951   0.000000
     3  C    2.439820   1.393184   0.000000
     4  C    2.831414   2.422998   1.399240   0.000000
     5  C    2.440781   2.782602   2.410777   1.398263   0.000000
     6  C    1.401640   2.400199   2.777314   2.419969   1.394137
     7  C    1.570839   2.644285   3.915808   4.399598   3.848174
     8  O    2.350666   3.666335   4.785628   4.968044   4.092985
     9  S    2.785816   3.202621   4.593314   5.452919   5.220488
    10  H    2.105592   1.095117   2.207180   3.443054   3.874512
    11  H    3.428361   2.158695   1.096503   2.165067   3.406974
    12  H    3.926191   3.416326   2.169804   1.094790   2.170157
    13  H    3.429210   3.878861   3.406977   2.164048   1.096311
    14  H    2.110714   3.364887   3.869184   3.432886   2.195500
                    6          7          8          9         10
     6  C    0.000000
     7  C    2.539380   0.000000
     8  O    2.700030   1.240369   0.000000
     9  S    4.047035   1.673619   2.631448   0.000000
    10  H    3.358729   2.774760   3.970144   2.706815   0.000000
    11  H    3.873732   4.800485   5.767989   5.210321   2.559805
    12  H    3.415128   5.494139   6.032588   6.520881   4.360665
    13  H    2.162022   4.701155   4.717878   6.177056   4.970265
    14  H    1.093951   2.613991   2.248496   4.267995   4.210200
                   11         12         13         14
    11  H    0.000000
    12  H    2.499485   0.000000
    13  H    4.316206   2.500338   0.000000
    14  H    4.965186   4.350184   2.545444   0.000000
 Stoichiometry    C7H5OS(1-)
 Framework group  C1[X(C7H5OS)]
 Deg. of freedom    36
 Full point group                 C1      NOp   1
 Largest Abelian subgroup         C1      NOp   1
 Largest concise Abelian subgroup C1      NOp   1
                         Standard orientation:                         
 ---------------------------------------------------------------------
 Center     Atomic      Atomic             Coordinates (Angstroms)
 Number     Number       Type             X           Y           Z
 ---------------------------------------------------------------------
      1          6           0        0.074957    0.126721    0.024189
      2          6           0        0.618563   -1.168380    0.086668
      3          6           0        1.996039   -1.376542    0.072817
      4          6           0        2.874710   -0.292275   -0.028069
      5          6           0        2.350197    1.002117   -0.095709
      6          6           0        0.971164    1.201795   -0.050811
      7          6           0       -1.457279    0.469574    0.071548
      8          8           0       -1.678624    1.688770    0.127070
      9         16           0       -2.555755   -0.782571   -0.091186
     10          1           0       -0.130335   -1.966995    0.112094
     11          1           0        2.393033   -2.396720    0.135682
     12          1           0        3.956847   -0.456151   -0.054330
     13          1           0        3.026237    1.861268   -0.177719
     14          1           0        0.505191    2.191522   -0.057114
 ---------------------------------------------------------------------
 Rotational constants (GHZ):           3.2240381           0.9359375           0.7273679
 Standard basis: def2SVP (5D, 7F)
 There are   164 symmetry adapted cartesian basis functions of A   symmetry.
 There are   155 symmetry adapted basis functions of A   symmetry.
   155 basis functions,   272 primitive gaussians,   164 cartesian basis functions
    36 alpha electrons       36 beta electrons
       nuclear repulsion energy       450.5084721033 Hartrees.
 NAtoms=   14 NActive=   14 NUniq=   14 SFac= 1.00D+00 NAtFMM=   60 NAOKFM=F Big=F
 Integral buffers will be    131072 words long.
 Raffenetti 2 integral format.
 Two-electron integral symmetry is turned on.
 One-electron integrals computed using PRISM.
   1 Symmetry operations used in ECPInt.
 ECPInt:  NShTT=    2556 NPrTT=    9872 LenC2=    2507 LenP2D=    7515.
 LDataN:  DoStor=T MaxTD1= 4 Len=   56
 NBasis=   155 RedAO= T EigKep=  3.05D-04  NBF=   155
 NBsUse=   155 1.00D-06 EigRej= -1.00D+00 NBFU=   155
 Lowest energy guess from the checkpoint file:  "pka_scale_frag5_pka_A_opt.chk"
 B after Tr=    -0.000000   -0.000000   -0.000000
         Rot=    1.000000    0.000000    0.000000    0.000000 Ang=   0.00 deg.
 B after Tr=    -0.000000   -0.000000   -0.000000
         Rot=    0.999998   -0.000846   -0.000491   -0.001836 Ang=  -0.24 deg.
 Requested convergence on RMS density matrix=1.00D-08 within 128 cycles.
 Requested convergence on MAX density matrix=1.00D-06.
 Requested convergence on             energy=1.00D-06.
 No special actions if energy rises.
 Integral accuracy reduced to 1.0D-05 until final iterations.
 Initial convergence to 1.0D-05 achieved.  Increase integral accuracy.  SCF Done:  E(RMN15) =  -742.261685942     A.U. after   15 cycles
            NFock= 15  Conv=0.68D-08     -V/T= 2.0065
   1 Symmetry operations used in ECPInt.
 ECPInt:  NShTT=    2556 NPrTT=    9872 LenC2=    2507 LenP2D=    7515.
 LDataN:  DoStor=T MaxTD1= 5 Len=  102
 Calling FoFJK, ICntrl=      2127 FMM=F ISym2X=0 I1Cent= 0 IOpClX= 0 NMat=1 NMatS=1 NMatT=0.
 ***** Axes restored to original set *****
 -------------------------------------------------------------------
 Center     Atomic                   Forces (Hartrees/Bohr)
 Number     Number              X              Y              Z
 -------------------------------------------------------------------
      1        6           0.001269854    0.000784394    0.005226686
      2        6           0.012118476   -0.007057041   -0.002898480
      3        6          -0.001462982    0.003454246    0.000019741
      4        6           0.001183658   -0.000506321    0.000100340
      5        6          -0.002561370   -0.000223996   -0.000073850
      6        6           0.005163912   -0.002895612    0.000677291
      7        6          -0.024641133   -0.010132925   -0.012437531
      8        8           0.003549808    0.002712615    0.004532042
      9       16           0.008520438    0.011140699    0.003970977
     10        1          -0.002083278    0.003421185    0.002196093
     11        1           0.000133801   -0.001066320   -0.000660573
     12        1           0.000423374   -0.000175491    0.000157067
     13        1           0.000605385    0.000577389    0.000572866
     14        1          -0.002219943   -0.000032821   -0.001382670
 -------------------------------------------------------------------
 Cartesian Forces:  Max     0.024641133 RMS     0.005856557

 GradGradGradGradGradGradGradGradGradGradGradGradGradGradGradGradGradGrad
 Berny optimization.
 Using GEDIIS/GDIIS optimizer.
 FormGI is forming the generalized inverse of G from B-inverse, IUseBI=4.
 Internal  Forces:  Max     0.013765445 RMS     0.003755201
 Search for a local minimum.
 Step number   4 out of a maximum of   73
 All quantities printed in internal units (Hartrees-Bohrs-Radians)
 Mixed Optimization -- RFO/linear search
 Update second derivatives using D2CorX and points    1    3    4    2
 DE=  4.70D-04 DEPred=-2.86D-03 R=-1.64D-01
 Trust test=-1.64D-01 RLast= 5.29D-01 DXMaxT set to 1.26D-01
 ITU= -1 -1  1  0
 Use linear search instead of GDIIS.
 Energy rises -- skip Quadratic/GDIIS search.
 Quartic linear search produced a step of -0.54077.
 Iteration  1 RMS(Cart)=  0.05888222 RMS(Int)=  0.00293355
 Iteration  2 RMS(Cart)=  0.00318758 RMS(Int)=  0.00005443
 Iteration  3 RMS(Cart)=  0.00000908 RMS(Int)=  0.00005402
 Iteration  4 RMS(Cart)=  0.00000000 RMS(Int)=  0.00005402
 Variable       Old X    -DE/DX   Delta X   Delta X   Delta X     New X
                                 (Linear)    (Quad)   (Total)
    R1        2.65686  -0.00455  -0.00753   0.00000  -0.00754   2.64933
    R2        2.64872  -0.00016  -0.00067   0.00000  -0.00068   2.64804
    R3        2.96846  -0.01320  -0.06232   0.00000  -0.06232   2.90614
    R4        2.63274   0.00116   0.00529   0.00000   0.00529   2.63802
    R5        2.06947   0.00071  -0.00333   0.00000  -0.00333   2.06614
    R6        2.64418   0.00024   0.00030   0.00000   0.00030   2.64448
    R7        2.07209  -0.00117  -0.00236   0.00000  -0.00236   2.06973
    R8        2.64233   0.00018  -0.00089   0.00000  -0.00089   2.64145
    R9        2.06885  -0.00046   0.00007   0.00000   0.00007   2.06892
   R10        2.63454   0.00107   0.00440   0.00000   0.00440   2.63894
   R11        2.07173  -0.00094  -0.00175   0.00000  -0.00175   2.06998
   R12        2.06727  -0.00041  -0.00174   0.00000  -0.00174   2.06553
   R13        2.34396  -0.00304  -0.00674   0.00000  -0.00674   2.33722
   R14        3.16268   0.01377   0.05487   0.00000   0.05487   3.21756
    A1        2.05070   0.00508   0.01159   0.00000   0.01158   2.06228
    A2        2.18567  -0.00956  -0.02268   0.00000  -0.02268   2.16300
    A3        2.04642   0.00450   0.01119   0.00000   0.01120   2.05762
    A4        2.11704  -0.00211  -0.00733   0.00000  -0.00732   2.10972
    A5        1.99147   0.00534   0.03969   0.00000   0.03970   2.03118
    A6        2.17416  -0.00322  -0.03210   0.00000  -0.03207   2.14208
    A7        2.10113  -0.00067   0.00067   0.00000   0.00067   2.10180
    A8        2.09026   0.00049  -0.00037   0.00000  -0.00037   2.08989
    A9        2.09178   0.00018  -0.00030   0.00000  -0.00031   2.09148
   A10        2.07746   0.00146   0.00274   0.00000   0.00275   2.08021
   A11        2.10185  -0.00074  -0.00049   0.00000  -0.00049   2.10136
   A12        2.10388  -0.00072  -0.00225   0.00000  -0.00226   2.10162
   A13        2.09680  -0.00054  -0.00120   0.00000  -0.00119   2.09561
   A14        2.09181   0.00021   0.00106   0.00000   0.00105   2.09287
   A15        2.09455   0.00033   0.00013   0.00000   0.00013   2.09468
   A16        2.12273  -0.00321  -0.00635   0.00000  -0.00635   2.11638
   A17        2.00632   0.00403   0.02840   0.00000   0.02841   2.03473
   A18        2.15404  -0.00082  -0.02201   0.00000  -0.02200   2.13204
   A19        1.97137   0.00979   0.03492   0.00000   0.03497   2.00634
   A20        2.06461  -0.00952  -0.02589   0.00000  -0.02584   2.03877
   A21        2.24288   0.00060  -0.00762   0.00000  -0.00757   2.23532
    D1       -0.00146   0.00002  -0.00628   0.00000  -0.00630  -0.00776
    D2       -3.10991  -0.00042  -0.01827   0.00000  -0.01806  -3.12797
    D3       -3.11188  -0.00064  -0.01096   0.00000  -0.01103  -3.12291
    D4        0.06285  -0.00108  -0.02295   0.00000  -0.02278   0.04007
    D5        0.02716  -0.00040  -0.00017   0.00000  -0.00013   0.02703
    D6       -3.10074  -0.00054  -0.00556   0.00000  -0.00549  -3.10623
    D7        3.14011  -0.00005   0.00368   0.00000   0.00368  -3.13939
    D8        0.01221  -0.00019  -0.00172   0.00000  -0.00167   0.01054
    D9        3.02992  -0.00392  -0.13409   0.00000  -0.13407   2.89586
   D10       -0.20286   0.00524  -0.11609   0.00000  -0.11606  -0.31892
   D11       -0.08056  -0.00459  -0.13877   0.00000  -0.13879  -0.21935
   D12        2.96984   0.00457  -0.12076   0.00000  -0.12079   2.84905
   D13       -0.01975   0.00028   0.00723   0.00000   0.00722  -0.01253
   D14        3.12788   0.00006   0.00827   0.00000   0.00823   3.13611
   D15        3.08511   0.00094   0.02099   0.00000   0.02118   3.10629
   D16       -0.05045   0.00072   0.02203   0.00000   0.02219  -0.02826
   D17        0.01549  -0.00025  -0.00169   0.00000  -0.00164   0.01385
   D18       -3.12532  -0.00024  -0.00381   0.00000  -0.00379  -3.12911
   D19       -3.13215  -0.00003  -0.00273   0.00000  -0.00265  -3.13480
   D20        0.01023  -0.00001  -0.00485   0.00000  -0.00480   0.00542
   D21        0.00974  -0.00007  -0.00459   0.00000  -0.00460   0.00514
   D22       -3.13871   0.00008  -0.00600   0.00000  -0.00601   3.13847
   D23       -3.13264  -0.00008  -0.00248   0.00000  -0.00245  -3.13508
   D24        0.00210   0.00007  -0.00389   0.00000  -0.00386  -0.00176
   D25       -0.03170   0.00048   0.00572   0.00000   0.00569  -0.02601
   D26        3.09502   0.00067   0.01170   0.00000   0.01175   3.10678
   D27        3.11676   0.00033   0.00713   0.00000   0.00710   3.12386
   D28       -0.03970   0.00052   0.01310   0.00000   0.01316  -0.02654
         Item               Value     Threshold  Converged?
 Maximum Force            0.013765     0.000450     NO 
 RMS     Force            0.003755     0.000300     NO 
 Maximum Displacement     0.285162     0.001800     NO 
[...]
 ! A21   A(8,7,9)              127.6574         -DE/DX =    0.0                 !
 ! D1    D(6,1,2,3)             -0.0027         -DE/DX =    0.0                 !
 ! D2    D(6,1,2,10)           179.996          -DE/DX =    0.0                 !
 ! D3    D(7,1,2,3)            179.9977         -DE/DX =    0.0                 !
 ! D4    D(7,1,2,10)            -0.0036         -DE/DX =    0.0                 !
 ! D5    D(2,1,6,5)              0.0005         -DE/DX =    0.0                 !
 ! D6    D(2,1,6,14)           179.9968         -DE/DX =    0.0                 !
 ! D7    D(7,1,6,5)            180.0001         -DE/DX =    0.0                 !
 ! D8    D(7,1,6,14)            -0.0036         -DE/DX =    0.0                 !
 ! D9    D(2,1,7,8)           -179.9829         -DE/DX =    0.0                 !
 ! D10   D(2,1,7,9)              0.0201         -DE/DX =    0.0                 !
 ! D11   D(6,1,7,8)              0.0175         -DE/DX =    0.0                 !
 ! D12   D(6,1,7,9)           -179.9795         -DE/DX =    0.0                 !
 ! D13   D(1,2,3,4)              0.0026         -DE/DX =    0.0                 !
 ! D14   D(1,2,3,11)          -179.9965         -DE/DX =    0.0                 !
 ! D15   D(10,2,3,4)          -179.9961         -DE/DX =    0.0                 !
 ! D16   D(10,2,3,11)            0.0048         -DE/DX =    0.0                 !
 ! D17   D(2,3,4,5)             -0.0002         -DE/DX =    0.0                 !
 ! D18   D(2,3,4,12)           179.9979         -DE/DX =    0.0                 !
 ! D19   D(11,3,4,5)           179.9989         -DE/DX =    0.0                 !
 ! D20   D(11,3,4,12)           -0.003          -DE/DX =    0.0                 !
 ! D21   D(3,4,5,6)             -0.0021         -DE/DX =    0.0                 !
 ! D22   D(3,4,5,13)           179.9988         -DE/DX =    0.0                 !
 ! D23   D(12,4,5,6)           179.9999         -DE/DX =    0.0                 !
 ! D24   D(12,4,5,13)            0.0007         -DE/DX =    0.0                 !
 ! D25   D(4,5,6,1)              0.0019         -DE/DX =    0.0                 !
 ! D26   D(4,5,6,14)          -179.9941         -DE/DX =    0.0                 !
 ! D27   D(13,5,6,1)          -179.999          -DE/DX =    0.0                 !
 ! D28   D(13,5,6,14)            0.005          -DE/DX =    0.0                 !
 --------------------------------------------------------------------------------
 GradGradGradGradGradGradGradGradGradGradGradGradGradGradGradGradGradGrad


 ----------------------------------------------------------------------

 Electric dipole moment (input orientation):
 (Debye = 10**-18 statcoulomb cm , SI units = C m)
                  (au)            (Debye)         (10**-30 SI)
   Tot        0.308012D+01      0.782890D+01      0.261144D+02
   x         -0.297115D+01     -0.755190D+01     -0.251904D+02
   y          0.795729D+00      0.202254D+01      0.674647D+01
   z         -0.162077D+00     -0.411958D+00     -0.137414D+01

 Dipole polarizability, Alpha (input orientation).
 (esu units = cm**3 , SI units = C**2 m**2 J**-1)
 Alpha(0;0):
               (au)            (10**-24 esu)      (10**-40 SI)
   iso        0.920912D+02      0.136465D+02      0.151838D+02
   aniso      0.814112D+02      0.120639D+02      0.134229D+02
   xx         0.131518D+03      0.194889D+02      0.216844D+02
   yx         0.238666D+01      0.353667D+00      0.393507D+00
   yy         0.101493D+03      0.150396D+02      0.167339D+02
   zx         0.931704D+01      0.138064D+01      0.153617D+01
   zy         0.101611D+02      0.150572D+01      0.167534D+01
   zz         0.432633D+02      0.641096D+01      0.713315D+01

 ----------------------------------------------------------------------

 Dipole orientation:
     6          0.03367884         -0.36969299         -1.30117159
     6          1.04930705          1.77379571         -0.12641969
     6          1.13515172          1.95487603          2.50442180
     6          0.20431920         -0.00998878          4.00831334
     6         -0.81284261         -2.15694118          2.85309005
     6         -0.89381317         -2.32752506          0.22156274
     6         -0.12323948         -0.70053839         -4.18615285
     8         -1.07566147         -2.70920414         -4.90681320
    16          1.01563870          1.70110704         -6.00482305
     1          1.75377797          3.26056882         -1.37873431
     1          1.93435599          3.64185804          3.39554912
     1          0.27197471          0.13257201          6.07035396
     1         -1.54519012         -3.70291637          4.01668741
     1         -1.67161378         -3.96882206         -0.76107859

 Electric dipole moment (dipole orientation):
 (Debye = 10**-18 statcoulomb cm , SI units = C m)
                  (au)            (Debye)         (10**-30 SI)
   Tot        0.308012D+01      0.782890D+01      0.261144D+02
   x          0.000000D+00      0.000000D+00      0.000000D+00
   y          0.000000D+00      0.000000D+00      0.000000D+00
   z          0.308012D+01      0.782890D+01      0.261144D+02

 Dipole polarizability, Alpha (dipole orientation).
 (esu units = cm**3 , SI units = C**2 m**2 J**-1)
 Alpha(0;0):
               (au)            (10**-24 esu)      (10**-40 SI)
   iso        0.920912D+02      0.136465D+02      0.151838D+02
   aniso      0.814112D+02      0.120639D+02      0.134229D+02
   xx         0.528197D+02      0.782707D+01      0.870879D+01
   yx         0.255982D+02      0.379325D+01      0.422057D+01
   yy         0.947043D+02      0.140337D+02      0.156146D+02
   zx        -0.444194D+01     -0.658228D+00     -0.732377D+00
   zy        -0.937029D+01     -0.138853D+01     -0.154495D+01
   zz         0.128750D+03      0.190787D+02      0.212280D+02

 ----------------------------------------------------------------------
 1\1\GINC-CHPC-CN074\Freq\RMN15\def2SVP\C7H5O1S1(1-)\S1155246976\10-Jun
 -2026\0\\#N Geom=AllCheck Guess=TCheck SCRF=Check GenChk RMN15/def2SVP
  Freq\\Gaussian pKa calculation job\\-1,1\C,0.6130463892,-0.3550453767
 ,0.1039636243\C,0.3213378031,1.0013035414,0.2966492725\C,-0.9955711762
 ,1.4619863345,0.2424568629\C,-2.0455241145,0.571500855,-0.0059518891\C
 ,-1.764280603,-0.7840955749,-0.1994906289\C,-0.4455144854,-1.239030489
 8,-0.1442260762\C,2.0381647748,-0.9340337629,0.149427077\O,2.117443558
 6,-2.1531869333,-0.042070584\S,3.3115591483,0.1572292331,0.4530868265\
 H,1.1741877469,1.6595008961,0.4878650658\H,-1.2080884646,2.5248810139,
 0.3949742981\H,-3.0776195766,0.9329437384,-0.0483245669\H,-2.580348167
 1,-1.4874231026,-0.3943723086\H,-0.1797223306,-2.2889843105,-0.2895152
 406\\Version=ES64L-G16RevB.01\State=1-A\HF=-742.2639026\RMSD=2.577e-09
 \RMSF=1.296e-05\ZeroPoint=0.1009281\Thermal=0.1081417\Dipole=-2.971147
 ,0.7957291,-0.1620767\DipoleDeriv=-0.1270134,0.0599353,-0.0055311,-0.0
 135052,-0.1442491,-0.0295995,-0.0174919,-0.0224128,0.0234573,-0.174855
 2,0.1023526,0.0073602,0.1281098,-0.0844422,0.0118551,0.0115471,0.00936
 69,-0.0772449,0.0105932,-0.0490275,0.0083412,-0.0431659,0.1585171,0.04
 70145,0.0092954,0.0464295,-0.1471936,-0.0359743,-0.0336177,0.005908,-0
 .0670755,-0.0415099,0.0114561,0.0004411,0.0147512,-0.1496562,0.0640235
 ,0.1147225,0.0403381,0.1231909,0.0237054,0.0414404,0.0417375,0.0406007
 ,-0.1454317,-0.1622243,-0.0648332,-0.0154264,-0.031414,0.0409881,0.022
 0535,-0.0099215,0.0188134,-0.1109641,1.4183147,0.1005914,0.1473668,0.3
 456106,1.4033552,0.2492357,0.1873061,0.2250946,0.1423652,-0.8002962,0.
 1231974,-0.0204244,-0.1554941,-1.4783624,-0.1936045,-0.0659272,-0.1661
 579,-0.421538,-1.2276621,-0.2980368,-0.1159944,-0.2287696,-0.7345606,-
 0.0537513,-0.104663,-0.0605653,-0.5636806,0.1500422,-0.1140218,-0.0111
 845,-0.0713279,0.0721666,-0.0074203,-0.004213,-0.0116294,0.0723726,0.0
 245577,0.0523836,0.0011099,0.0738967,-0.1768357,-0.0379445,0.0046085,-
 0.0400535,0.0941717,-0.183462,0.0798306,-0.0150823,0.0798557,0.0277311
 ,-0.0043925,-0.0150621,-0.004396,0.1005286,-0.1222112,-0.1156924,-0.04
 06066,-0.1227341,-0.0465406,-0.0358063,-0.0417484,-0.0351148,0.0892267
 ,0.1661675,0.042216,0.0138254,-0.0171775,-0.0199631,-0.0205366,0.00409
 15,-0.0147267,0.0935871\Polar=131.5179016,2.3866612,101.492502,9.31704
 32,10.1611304,43.2632821\Quadrupole=-10.0427371,3.1247416,6.9179954,2.
 9020161,-1.2112782,-0.3650398\PG=C01 [X(C7H5O1S1)]\NImag=0\\0.58628642
 ,0.02061871,0.70438652,0.04626281,0.09259276,0.16912547,-0.12751780,0.
 01278534,-0.00355045,0.73846406,0.06775929,-0.33276678,-0.03620108,0.0
 1481484,0.67810451,0.00542186,-0.04160063,-0.07639568,0.06066397,0.088
 35348,0.16596790,0.01364049,0.08496570,0.01424503,-0.33732600,0.037414
 84,-0.02041466,0.68545623,0.03474222,-0.00114916,0.00163349,0.10922889
 ,-0.14898788,-0.00258589,-0.01834405,0.72421721,0.00604973,0.00656315,
 0.01142183,-0.00869524,-0.00963703,-0.06981107,0.05062124,0.09356970,0
 .15986332,-0.00541226,-0.02299636,-0.00345758,-0.05268693,0.00632789,-
 0.00511790,-0.25257354,-0.14825047,-0.04240527,0.73308476,-0.02327790,
 -0.06658031,-0.01177782,-0.05008010,0.06394454,0.00389576,-0.07504671,
 -0.21635285,-0.03172458,-0.02778073,0.68017484,-0.00350274,-0.01174793
 ,-0.01067927,-0.01432230,0.00943413,0.01006976,-0.03045973,-0.03891369
 ,-0.07642446,0.05391982,0.08574989,0.15714849,-0.04941368,-0.04836403,
 -0.01374014,-0.03243208,0.03358189,0.00300054,0.05310530,-0.00866378,0
 .00277823,-0.12993802,0.00976039,-0.00456678,0.71348954,0.00344113,0.0
 6361164,0.00906504,0.03963014,-0.04314814,-0.00197715,-0.06695663,-0.0
 4318376,-0.01532334,0.08308472,-0.34422757,-0.03702937,0.01659659,0.69
 798847,-0.00528667,0.00397371,0.01026484,0.00398601,-0.00257026,-0.007
 20801,-0.00673360,-0.00959871,0.00820229,0.00739690,-0.04423074,-0.073
 72433,0.05898166,0.09260299,0.16128880,-0.23968236,-0.07438206,-0.0285
 4158,0.05473130,-0.05768884,-0.00489255,-0.07134137,-0.01691401,-0.009
 04790,0.01155788,0.09062919,0.01491310,-0.33673242,0.03868445,-0.02006
 318,0.70188558,-0.13207383,-0.21324874,-0.03592035,-0.01541898,-0.0368
 4699,-0.00894485,-0.00972124,-0.00365942,-0.00035770,0.03328112,-0.003
 44653,0.00102799,0.11187817,-0.14951138,-0.00229414,-0.04107327,0.7204
 0446,-0.03795755,-0.03025419,-0.08126091,0.00200610,-0.01309767,0.0067
 5039,-0.00787457,-0.00106359,-0.00826507,0.00555658,0.00666166,0.01191
 538,-0.00811848,-0.00948561,-0.07046221,0.04787879,0.08971250,0.165325
 48,-0.15087874,0.00701729,-0.00649111,0.00123322,0.01686170,0.00257985
 ,0.00412779,-0.00334972,-0.00076689,-0.00069193,-0.00216526,-0.0003311
 0,-0.00006239,-0.00197013,-0.00091355,-0.02994862,0.00045440,-0.003603
 07,0.42453643,0.00984277,-0.08507287,-0.00098130,0.02196652,-0.0031227
 3,0.00116152,0.00239137,-0.00415095,-0.00148348,-0.00117758,-0.0043384
 4,-0.00067376,-0.00695633,-0.00314084,-0.00216872,-0.00689657,0.019986
 97,0.00136229,0.02086213,0.83304672,-0.00603082,-0.00125628,-0.0739367
 0,0.00341032,0.00066405,0.00342284,0.00017268,-0.00204719,0.00606053,-
 0.00017131,-0.00077371,-0.00106062,-0.00172884,-0.00167812,0.00552091,
 -0.00479705,0.00208420,0.00736035,0.02890167,0.11121485,0.18623553,-0.
 00991454,0.04807090,0.00495377,-0.00470155,-0.00365270,-0.00119332,-0.
 00187387,0.00210983,0.00027626,-0.00020444,0.00210539,0.00031820,0.002
 48849,0.00184205,0.00055376,-0.00632756,0.00059896,-0.00048701,-0.0953
 3441,0.03310715,0.00226870,0.11215098,0.03671071,-0.04359479,-0.006726
 34,0.00615709,0.00079768,0.00050910,-0.00059168,-0.00126914,-0.0000700
 9,0.00012562,0.00156399,0.00025915,0.00243530,0.00115690,0.00044311,-0
 .00806664,-0.00650028,-0.00179400,0.04835895,-0.64449117,-0.09024488,-
 0.05345218,0.74216531,0.00309779,-0.00560898,0.01901494,0.00040943,-0.
 00045529,0.00135066,-0.00016496,0.00019336,-0.00117270,-0.00000425,0.0
 0045486,0.00012502,0.00065182,0.00038391,0.00003407,-0.00190526,-0.000
 94464,-0.00069736,0.00476091,-0.09174202,-0.07786610,-0.00038861,0.111
 61996,0.04541105,-0.02748458,-0.01331136,-0.00597041,-0.00989661,0.000
 86608,-0.00105057,-0.00006980,-0.00125212,-0.00018133,-0.00127668,-0.0
 0053037,-0.00021227,-0.00145438,0.00014360,-0.00004527,-0.00147847,0.0
 0381673,0.00042663,-0.15607212,-0.06860702,-0.02244430,0.00750167,-0.0
 3482085,-0.00663131,0.19452888,-0.00174636,0.00421749,-0.00129425,0.00
 479196,-0.00425774,-0.00058383,-0.00065860,0.00208606,0.00032487,0.000
 66453,0.00097100,0.00022272,0.00103218,0.00012824,0.00024440,-0.000501
 01,0.00005794,-0.00012487,-0.08310440,-0.10215266,-0.01801999,-0.03608
 351,-0.05356563,-0.01509358,0.11317758,0.15044818,-0.00408008,-0.00243
 161,0.01028422,-0.00040822,-0.00097175,0.00201332,-0.00008626,0.000266
 33,-0.00026684,-0.00001703,0.00010646,0.00002051,0.00009907,0.00015605
 ,-0.00071042,-0.00027958,0.00030029,0.00054281,-0.02481175,-0.01659356
 ,-0.04707890,-0.00683859,-0.01496935,0.01393274,0.03641065,0.03368698,
 0.02156811,0.00872783,0.00097921,0.00049801,-0.22348486,-0.13958025,-0
 .04052766,-0.01170882,-0.01542230,-0.00416601,-0.00282255,0.00275224,-
 0.00054468,0.00049492,0.00072280,0.00022558,-0.00052850,0.00196442,-0.
 00037245,0.00059959,0.00131439,0.00070295,-0.00055289,-0.00213195,-0.0
 0049881,-0.00379928,0.00065136,-0.00018676,0.23164176,-0.02342784,-0.0
 1439951,-0.00551376,-0.13792177,-0.16419833,-0.03335951,0.01101951,0.0
 1042020,0.00195412,0.00269752,0.00032065,-0.00087223,0.00099187,-0.000
 52485,0.00010977,0.00206523,-0.00506051,-0.00168763,-0.00369126,-0.001
 60790,0.00008609,0.00087119,0.00141648,0.00015850,0.00010285,0.0012837
 4,0.00035267,0.14912182,0.17221683,-0.00348375,-0.00311650,0.00443298,
 -0.04025922,-0.03352274,-0.05224818,0.00015043,-0.00064278,0.00498792,
 -0.00055305,-0.00086668,0.00709246,0.00026943,0.00008373,-0.00056038,-
 0.00035545,-0.00169701,0.00621117,-0.00011597,0.00057837,-0.00427871,-
 0.00000739,-0.00013812,0.00094884,-0.00027678,0.00040714,-0.00077717,0
 .04423487,0.03800870,0.03964825,-0.00541602,0.00147725,-0.00100699,-0.
 00039604,0.02873419,0.00422379,-0.06640509,0.05322868,0.00586820,0.008
 02324,-0.02283930,-0.00328920,-0.00276298,-0.00253762,-0.00135078,-0.0
 0119366,-0.00041452,-0.00011770,0.00167067,0.00088428,0.00029817,-0.00
 077349,0.00062486,0.00005189,-0.00027255,-0.00029237,-0.00008944,0.001
 27153,-0.00091531,0.00042709,0.06510204,0.00262668,0.00129602,-0.00071
 924,-0.00108935,-0.00611500,-0.00181069,0.05253507,-0.32409934,-0.0415
 5442,0.00823848,-0.01390312,-0.00204215,-0.00383723,-0.00037575,-0.001
 54320,-0.00019442,0.00084457,0.00023028,-0.00146795,-0.00019231,-0.000
 19288,0.00058475,-0.00040918,0.00003333,0.00053092,0.00015810,0.000053
 38,-0.00016756,0.00055652,0.00082398,-0.05766520,0.34240294,-0.0008196
 5,-0.00083209,0.00707126,-0.00064098,0.00111775,0.00444799,0.00575432,
 -0.04148521,-0.04394711,0.00178114,-0.00509494,0.00291902,-0.00156255,
 -0.00141607,0.00638967,-0.00008195,0.00020831,-0.00065810,-0.00008533,
 0.00003813,0.00010377,0.00004497,0.00003759,-0.00025163,0.00004471,-0.
 00002760,0.00015119,0.00054946,0.00075101,-0.00441947,-0.00555129,0.04
 597770,0.03280014,0.00055432,-0.00068179,0.00001256,-0.00178800,-0.004
 11567,-0.00151270,-0.01553656,0.01202541,0.00009188,-0.30958327,0.0890
 3622,-0.01232272,-0.00257051,-0.00224366,-0.00095759,0.00163035,0.0015
 3686,-0.00025551,0.00028138,-0.00016213,0.00007927,-0.00026641,0.00022
 104,0.00001126,-0.00042141,0.00015869,-0.00000882,-0.00046579,0.000571
 98,0.00002731,0.00095761,-0.00036659,0.00044779,0.32671778,-0.00068008
 ,-0.00110709,-0.00013222,-0.00279694,-0.00179005,-0.00167258,-0.018937
 10,0.00996806,-0.00080591,0.08894465,-0.08722321,0.00040221,0.02879061
 ,-0.00333679,0.00171905,0.00022854,-0.00520568,-0.00193411,-0.00023406
 ,-0.00040426,0.00004067,0.00036246,0.00032209,0.00009032,0.00007640,0.
 00023957,0.00005787,-0.00058419,0.00036262,-0.00003196,0.00071593,0.00
 078062,0.00088489,-0.09623749,0.08643596,0.00001297,-0.00013179,-0.000
 72653,-0.00129725,-0.00180248,0.00635594,-0.00496135,0.00223434,0.0033
 8677,-0.01233615,0.00041143,-0.03729839,0.00410530,-0.00132854,0.00364
 164,-0.00046904,-0.00180542,0.00644551,0.00006756,0.00004810,-0.000781
 18,0.00003425,0.00007621,0.00000284,-0.00002210,0.00006582,-0.00006019
 ,-0.00016138,0.00008152,0.00020411,0.00062456,0.00077840,-0.00402368,0
 .01390834,0.00054477,0.02662994,-0.00454422,0.00356408,-0.00058619,-0.
 00015372,0.00118355,0.00024850,0.00127383,0.00135894,-0.00032565,0.006
 81384,0.00660064,0.00139334,-0.21283398,-0.13589998,-0.03937510,-0.015
 45013,-0.02125035,-0.00540494,0.00052781,-0.00211417,-0.00028114,-0.00
 012908,0.00079548,0.00009477,-0.00078675,-0.00002629,-0.00006461,-0.00
 008009,-0.00010291,0.00007827,0.00017946,0.00026464,0.00001662,0.00068
 200,-0.00071515,0.00036954,0.22308015,0.00225810,0.00073504,-0.0008578
 8,0.00091678,-0.00025672,0.00016522,0.00272472,-0.00451690,-0.00158649
 ,-0.02450253,-0.01262591,-0.00505208,-0.13511762,-0.17369158,-0.035464
 15,0.00880696,0.00950414,0.00171658,0.00043298,0.00028805,0.00010990,-
 0.00021541,0.00001002,-0.00005702,-0.00006550,-0.00000108,0.00002184,-
 0.00002960,-0.00000174,0.00016785,-0.00106213,-0.00084762,-0.00031601,
 0.00036519,0.00105682,0.00090477,0.14616698,0.17992265,-0.00079917,-0.
 00072979,0.00715443,0.00020482,0.00019117,-0.00066638,-0.00010328,-0.0
 0172090,0.00655726,-0.00368102,-0.00199705,0.00290376,-0.03924681,-0.0
 3554161,-0.04729581,-0.00050164,-0.00123507,0.00403336,0.00013449,-0.0
 0013998,-0.00013431,-0.00007020,0.00004198,0.00022986,-0.00007067,0.00
 002571,-0.00017714,0.00009036,0.00016069,-0.00101329,-0.00019986,-0.00
 018569,0.00039993,0.00054572,0.00079874,-0.00408524,0.04322370,0.03950
 532,0.03644469,0.01105514,-0.01974289,-0.00262776,-0.00404498,-0.00250
 681,-0.00142915,-0.00076860,-0.00049751,-0.00009726,-0.00429012,0.0008
 3630,-0.00099294,-0.00137780,0.02546254,0.00358183,-0.06712204,0.06642
 153,0.00832318,0.00001131,-0.00445480,-0.00038030,-0.00206290,0.003634
 24,0.00051535,0.00098209,0.00193623,0.00036142,0.00070715,-0.00138287,
 -0.00013579,0.00001526,0.00000777,0.00010274,-0.00019149,0.00106641,0.
 00012475,0.00142088,-0.00067892,0.00047356,0.06566610,0.00320640,-0.01
 632747,-0.00316705,-0.00298442,-0.00135637,-0.00154994,-0.00079521,0.0
 0067787,0.00013119,0.00134312,0.00172293,-0.00076489,-0.00212803,-0.00
 174458,-0.00122311,0.06530245,-0.32731856,-0.04024165,0.00199534,-0.00
 464761,0.00001328,0.00375113,0.00239773,0.00096727,-0.00012694,0.00038
 679,-0.00003561,0.00040962,-0.00078419,-0.00005399,0.00006127,-0.00009
 645,0.00015655,-0.00010806,-0.00009866,-0.00007714,0.00017455,0.000424
 82,0.00082649,-0.07010122,0.34676376,0.00111526,-0.00541982,0.00422912
 ,-0.00150700,-0.00150227,0.00595052,-0.00014529,0.00016073,-0.00059268
 ,-0.00091089,-0.00081455,0.00699268,-0.00092247,0.00148809,0.00461893,
 0.00814331,-0.04013413,-0.04724080,0.00067428,-0.00062045,-0.00356742,
 0.00053520,0.00095567,-0.00106222,0.00002302,0.00016647,0.00055777,0.0
 0015652,-0.00022993,-0.00022852,0.00011158,0.00015119,-0.00098298,-0.0
 0006680,0.00003827,0.00030846,0.00061290,0.00074213,-0.00435113,-0.007
 81962,0.04501859,0.03536830\\-0.00004442,0.00000334,-0.00000714,0.0000
 3209,0.00000709,0.00000404,0.00000731,0.00000922,0.00000372,0.00001897
 ,0.00000047,-0.00000116,-0.00000053,0.00000491,0.00000112,-0.00000280,
 -0.00002098,0.00000262,-0.00002921,-0.00001905,-0.00000862,-0.00000816
 ,-0.00000772,-0.00000167,0.00002548,0.00000751,0.00000531,0.00001050,-
 0.00001087,0.00000111,-0.00000056,0.00000072,-0.00000161,-0.00000018,0
 .00000832,0.00000245,-0.00001312,0.00001616,0.00000176,0.00000462,0.00
 000089,-0.00000194\\\@


 SOME PEOPLE TRY TO PULL THE WOOL OVER YOUR EYES
 USING THE WRONG YARN.
 Job cpu time:       0 days  0 hours 20 minutes 14.5 seconds.
 Elapsed time:       0 days  0 hours  0 minutes 19.4 seconds.
 File lengths (MBytes):  RWF=     48 Int=      0 D2E=      0 Chk=      3 Scr=      1
 Normal termination of Gaussian 16 at Wed Jun 10 15:32:41 2026.
