 Entering Gaussian System, Link 0=/project/xlzhang/shared/bin/g16/g16
 Input=/lustre/project/xlzhang/jingyi/chemsmart/test_pka/gaussian/pka_scale_frag2_pka_HA_opt.com
 Output=/lustre/project/xlzhang/jingyi/chemsmart/test_pka/gaussian/pka_scale_frag2_pka_HA_opt.log
 Initial command:
 /project/xlzhang/shared/bin/g16/l1.exe "/lustre/project/xlzhang/jingyi/chemsmart/test_pka/gaussian/Gau-753123.inp" -scrdir="/lustre/project/xlzhang/jingyi/chemsmart/test_pka/gaussian/"
 Entering Link 1 = /project/xlzhang/shared/bin/g16/l1.exe PID=    753124.
  
 Copyright (c) 1988-2017, Gaussian, Inc.  All Rights Reserved.
  
 This is part of the Gaussian(R) 16 program.  It is based on
 the Gaussian(R) 09 system (copyright 2009, Gaussian, Inc.),
 the Gaussian(R) 03 system (copyright 2003, Gaussian, Inc.),
 the Gaussian(R) 98 system (copyright 1998, Gaussian, Inc.),
 the Gaussian(R) 94 system (copyright 1995, Gaussian, Inc.),
 the Gaussian 92(TM) system (copyright 1992, Gaussian, Inc.),
 the Gaussian 90(TM) system (copyright 1990, Gaussian, Inc.),
 the Gaussian 88(TM) system (copyright 1988, Gaussian, Inc.),
 the Gaussian 86(TM) system (copyright 1986, Carnegie Mellon
 University), and the Gaussian 82(TM) system (copyright 1983,
 Carnegie Mellon University). Gaussian is a federally registered
 trademark of Gaussian, Inc.
  
 This software contains proprietary and confidential information,
 including trade secrets, belonging to Gaussian, Inc.
  
 This software is provided under written license and may be
 used, copied, transmitted, or stored only in accord with that
 written license.
  
 The following legend is applicable only to US Government
 contracts under FAR:
  
                    RESTRICTED RIGHTS LEGEND
  
 Use, reproduction and disclosure by the US Government is
 subject to restrictions as set forth in subparagraphs (a)
 and (c) of the Commercial Computer Software - Restricted
 Rights clause in FAR 52.227-19.
  
 Gaussian, Inc.
 340 Quinnipiac St., Bldg. 40, Wallingford CT 06492
  
  
 ---------------------------------------------------------------
 Warning -- This program may not be used in any manner that
 competes with the business of Gaussian, Inc. or will provide
 assistance to any competitor of Gaussian, Inc.  The licensee
 of this program is prohibited from giving any competitor of
 Gaussian, Inc. access to this program.  By using this program,
 the user acknowledges that Gaussian, Inc. is engaged in the
 business of creating and licensing software in the field of
 computational chemistry and represents and warrants to the
 licensee that it is not a competitor of Gaussian, Inc. and that
 it will not use this program in any manner prohibited above.
 ---------------------------------------------------------------
  

 Cite this work as:
 Gaussian 16, Revision B.01,
 M. J. Frisch, G. W. Trucks, H. B. Schlegel, G. E. Scuseria, 
 M. A. Robb, J. R. Cheeseman, G. Scalmani, V. Barone, 
 G. A. Petersson, H. Nakatsuji, X. Li, M. Caricato, A. V. Marenich, 
 J. Bloino, B. G. Janesko, R. Gomperts, B. Mennucci, H. P. Hratchian, 
 J. V. Ortiz, A. F. Izmaylov, J. L. Sonnenberg, D. Williams-Young, 
 F. Ding, F. Lipparini, F. Egidi, J. Goings, B. Peng, A. Petrone, 
 T. Henderson, D. Ranasinghe, V. G. Zakrzewski, J. Gao, N. Rega, 
 G. Zheng, W. Liang, M. Hada, M. Ehara, K. Toyota, R. Fukuda, 
 J. Hasegawa, M. Ishida, T. Nakajima, Y. Honda, O. Kitao, H. Nakai, 
 T. Vreven, K. Throssell, J. A. Montgomery, Jr., J. E. Peralta, 
 F. Ogliaro, M. J. Bearpark, J. J. Heyd, E. N. Brothers, K. N. Kudin, 
 V. N. Staroverov, T. A. Keith, R. Kobayashi, J. Normand, 
 K. Raghavachari, A. P. Rendell, J. C. Burant, S. S. Iyengar, 
 J. Tomasi, M. Cossi, J. M. Millam, M. Klene, C. Adamo, R. Cammi, 
 J. W. Ochterski, R. L. Martin, K. Morokuma, O. Farkas, 
 J. B. Foresman, and D. J. Fox, Gaussian, Inc., Wallingford CT, 2016.
 
 ******************************************
 Gaussian 16:  ES64L-G16RevB.01 20-Dec-2017
                10-Jun-2026 
 ******************************************
 %chk=pka_scale_frag2_pka_HA_opt.chk
 %nprocshared=64
 Will use up to   64 processors via shared memory.
 %mem=180GB
 -----------------------
 # opt freq mn15 def2svp
 -----------------------
 1/18=20,19=15,26=3,38=1/1,3;
 2/9=110,12=2,17=6,18=5,40=1/2;
 3/5=43,7=101,11=2,25=1,30=1,71=1,74=-73/1,2,3;
 4//1;
 5/5=2,38=5/2;
 6/7=2,8=2,9=2,10=2,28=1/1;
 7//1,2,3,16;
 1/18=20,19=15,26=3/3(2);
 2/9=110/2;
 99//99;
 2/9=110/2;
 3/5=43,7=101,11=2,25=1,30=1,71=1,74=-73/1,2,3;
 4/5=5,16=3,69=1/1;
 5/5=2,38=5/2;
 7//1,2,3,16;
 1/18=20,19=15,26=3/3(-5);
 2/9=110/2;
 6/7=2,8=2,9=2,10=2,19=2,28=1/1;
 99/9=1/99;
 ----------------------------
 Gaussian pKa calculation job
 ----------------------------
 Symbolic Z-matrix:
 Charge =  0 Multiplicity = 1
 C                    -1.09651   0.10297  -0.25251 
 S                     0.59126   0.37652   0.23442 
 O                     0.71608   0.20233   1.66341 
 O                     1.11731   1.5273   -0.46005 
 O                     1.23301  -0.9487   -0.42695 
 H                    -1.69876   0.92461   0.14049 
 H                    -1.15043   0.0874   -1.34257 
 H                    -1.43635  -0.84495   0.16865 
 H                     1.72439  -1.42747   0.27511 
 

 GradGradGradGradGradGradGradGradGradGradGradGradGradGradGradGradGradGrad
 Berny optimization.
 Initialization pass.
                           ----------------------------
                           !    Initial Parameters    !
                           ! (Angstroms and Degrees)  !
 --------------------------                            --------------------------
 ! Name  Definition              Value          Derivative Info.                !
 --------------------------------------------------------------------------------
 ! R1    R(1,2)                  1.7778         estimate D2E/DX2                !
 ! R2    R(1,6)                  1.0919         estimate D2E/DX2                !
 ! R3    R(1,7)                  1.0915         estimate D2E/DX2                !
 ! R4    R(1,8)                  1.0915         estimate D2E/DX2                !
 ! R5    R(2,3)                  1.445          estimate D2E/DX2                !
 ! R6    R(2,4)                  1.4434         estimate D2E/DX2                !
 ! R7    R(2,5)                  1.6141         estimate D2E/DX2                !
 ! R8    R(5,9)                  0.9816         estimate D2E/DX2                !
 ! A1    A(2,1,6)              108.0148         estimate D2E/DX2                !
 ! A2    A(2,1,7)              108.8214         estimate D2E/DX2                !
 ! A3    A(2,1,8)              108.8763         estimate D2E/DX2                !
 ! A4    A(6,1,7)              110.0559         estimate D2E/DX2                !
 ! A5    A(6,1,8)              110.0537         estimate D2E/DX2                !
 ! A6    A(7,1,8)              110.9509         estimate D2E/DX2                !
 ! A7    A(1,2,3)              109.5316         estimate D2E/DX2                !
 ! A8    A(1,2,4)              109.689          estimate D2E/DX2                !
 ! A9    A(1,2,5)               97.9839         estimate D2E/DX2                !
 ! A10   A(3,2,4)              122.7146         estimate D2E/DX2                !
 ! A11   A(3,2,5)              105.7761         estimate D2E/DX2                !
 ! A12   A(4,2,5)              108.2119         estimate D2E/DX2                !
 ! A13   A(2,5,9)              107.8432         estimate D2E/DX2                !
 ! D1    D(6,1,2,3)             69.0148         estimate D2E/DX2                !
 ! D2    D(6,1,2,4)            -68.3769         estimate D2E/DX2                !
 ! D3    D(6,1,2,5)            178.9561         estimate D2E/DX2                !
 ! D4    D(7,1,2,3)           -171.5242         estimate D2E/DX2                !
 ! D5    D(7,1,2,4)             51.0841         estimate D2E/DX2                !
 ! D6    D(7,1,2,5)            -61.5829         estimate D2E/DX2                !
 ! D7    D(8,1,2,3)            -50.4747         estimate D2E/DX2                !
 ! D8    D(8,1,2,4)            172.1336         estimate D2E/DX2                !
 ! D9    D(8,1,2,5)             59.4666         estimate D2E/DX2                !
 ! D10   D(1,2,5,9)           -125.9579         estimate D2E/DX2                !
 ! D11   D(3,2,5,9)            -12.9761         estimate D2E/DX2                !
 ! D12   D(4,2,5,9)            120.1949         estimate D2E/DX2                !
 --------------------------------------------------------------------------------
 Trust Radius=3.00D-01 FncErr=1.00D-07 GrdErr=1.00D-06 EigMax=2.50D+02 EigMin=1.00D-04
 Number of steps in this run=     43 maximum allowed number of steps=    100.
 GradGradGradGradGradGradGradGradGradGradGradGradGradGradGradGradGradGrad

                          Input orientation:                          
 ---------------------------------------------------------------------
 Center     Atomic      Atomic             Coordinates (Angstroms)
 Number     Number       Type             X           Y           Z
 ---------------------------------------------------------------------
      1          6           0       -1.096515    0.102967   -0.252508
      2         16           0        0.591255    0.376524    0.234416
      3          8           0        0.716079    0.202326    1.663413
      4          8           0        1.117314    1.527295   -0.460048
      5          8           0        1.233007   -0.948699   -0.426949
      6          1           0       -1.698761    0.924610    0.140488
      7          1           0       -1.150426    0.087396   -1.342572
      8          1           0       -1.436345   -0.844954    0.168648
      9          1           0        1.724393   -1.427465    0.275112
 ---------------------------------------------------------------------
                    Distance matrix (angstroms):
                    1          2          3          4          5
     1  C    0.000000
     2  S    1.777778   0.000000
     3  O    2.639341   1.444977   0.000000
     4  O    2.640610   1.443362   2.534881   0.000000
     5  O    2.561855   1.614144   2.441656   2.478916   0.000000
     6  H    1.091900   2.356564   2.944902   2.941794   3.525129
     7  H    1.091507   2.367264   3.540197   2.827509   2.755469
     8  H    1.091518   2.368015   2.822064   3.541751   2.736958
     9  H    3.252403   2.130735   2.366495   3.104773   0.981614
                    6          7          8          9
     6  H    0.000000
     7  H    1.789152   0.000000
     8  H    1.789137   1.798558   0.000000
     9  H    4.155522   3.629916   3.215730   0.000000
 Stoichiometry    CH4O3S
 Framework group  C1[X(CH4O3S)]
 Deg. of freedom    21
 Full point group                 C1      NOp   1
 Largest Abelian subgroup         C1      NOp   1
 Largest concise Abelian subgroup C1      NOp   1
                         Standard orientation:                         
 ---------------------------------------------------------------------
 Center     Atomic      Atomic             Coordinates (Angstroms)
 Number     Number       Type             X           Y           Z
 ---------------------------------------------------------------------
      1          6           0       -1.628584   -0.261949    0.017803
      2         16           0        0.102240    0.139292    0.079039
      3          8           0        0.644165   -0.253405    1.359689
      4          8           0        0.318702    1.447246   -0.491657
      5          8           0        0.625710   -0.964415   -0.976078
      6          1           0       -2.153200    0.399169    0.710583
      7          1           0       -1.991311   -0.102280   -0.999214
      8          1           0       -1.760839   -1.302276    0.320522
      9          1           0        1.332393   -1.487002   -0.538963
 ---------------------------------------------------------------------
 Rotational constants (GHZ):           4.7852988           4.5651993           4.3884004
 Standard basis: def2SVP (5D, 7F)
 There are    99 symmetry adapted cartesian basis functions of A   symmetry.
 There are    94 symmetry adapted basis functions of A   symmetry.
    94 basis functions,   165 primitive gaussians,    99 cartesian basis functions
    25 alpha electrons       25 beta electrons
       nuclear repulsion energy       280.1524934870 Hartrees.
 NAtoms=    9 NActive=    9 NUniq=    9 SFac= 1.00D+00 NAtFMM=   60 NAOKFM=F Big=F
 Integral buffers will be    131072 words long.
 Raffenetti 2 integral format.
 Two-electron integral symmetry is turned on.
 One-electron integrals computed using PRISM.
   1 Symmetry operations used in ECPInt.
 ECPInt:  NShTT=     990 NPrTT=    3828 LenC2=     986 LenP2D=    3190.
 LDataN:  DoStor=T MaxTD1= 4 Len=   56
 NBasis=    94 RedAO= T EigKep=  4.89D-03  NBF=    94
 NBsUse=    94 1.00D-06 EigRej= -1.00D+00 NBFU=    94
 ExpMin= 1.22D-01 ExpMax= 9.18D+03 ExpMxC= 1.38D+03 IAcc=3 IRadAn=         5 AccDes= 0.00D+00
 Harris functional with IExCor= 1009 and IRadAn=       5 diagonalized for initial guess.
 HarFok:  IExCor= 1009 AccDes= 0.00D+00 IRadAn=         5 IDoV= 1 UseB2=F ITyADJ=14
 ICtDFT=  3500011 ScaDFX=  1.000000  1.000000  1.000000  1.000000
 FoFCou: FMM=F IPFlag=           0 FMFlag=      100000 FMFlg1=           0
         NFxFlg=           0 DoJE=T BraDBF=F KetDBF=T FulRan=T
         wScrn=  0.000000 ICntrl=       500 IOpCl=  0 I1Cent=   200000004 NGrid=           0
         NMat0=    1 NMatS0=      1 NMatT0=    0 NMatD0=    1 NMtDS0=    0 NMtDT0=    0
 Petite list used in FoFCou.
 Keep R1 ints in memory in canonical form, NReq=69070382.
 Requested convergence on RMS density matrix=1.00D-08 within 128 cycles.
 Requested convergence on MAX density matrix=1.00D-06.
 Requested convergence on             energy=1.00D-06.
 No special actions if energy rises.
 Integral accuracy reduced to 1.0D-05 until final iterations.
 Initial convergence to 1.0D-05 achieved.  Increase integral accuracy.
 SCF Done:  E(RMN15) =  -663.543038948     A.U. after   15 cycles
            NFock= 15  Conv=0.37D-08     -V/T= 2.0050

 **********************************************************************

            Population analysis using the SCF Density.

 **********************************************************************

 Orbital symmetries:
       Occupied  (A) (A) (A) (A) (A) (A) (A) (A) (A) (A) (A) (A)
                 (A) (A) (A) (A) (A) (A) (A) (A) (A) (A) (A) (A)
                 (A)
       Virtual   (A) (A) (A) (A) (A) (A) (A) (A) (A) (A) (A) (A)
                 (A) (A) (A) (A) (A) (A) (A) (A) (A) (A) (A) (A)
                 (A) (A) (A) (A) (A) (A) (A) (A) (A) (A) (A) (A)
                 (A) (A) (A) (A) (A) (A) (A) (A) (A) (A) (A) (A)
                 (A) (A) (A) (A) (A) (A) (A) (A) (A) (A) (A) (A)
                 (A) (A) (A) (A) (A) (A) (A) (A) (A)
 The electronic state is 1-A.
 Alpha  occ. eigenvalues --  -88.04255 -18.87150 -18.81482 -18.81308 -10.09999
 Alpha  occ. eigenvalues --   -7.94314  -6.14034  -6.13654  -6.13568  -1.19016
 Alpha  occ. eigenvalues --   -1.07293  -1.05064  -0.82764  -0.68862  -0.58994
 Alpha  occ. eigenvalues --   -0.55788  -0.53641  -0.50135  -0.49187  -0.47577
 Alpha  occ. eigenvalues --   -0.42679  -0.39403  -0.37142  -0.36684  -0.35170
 Alpha virt. eigenvalues --    0.07804   0.09001   0.11694   0.12756   0.13392
 Alpha virt. eigenvalues --    0.14697   0.16451   0.19936   0.42734   0.43104
 Alpha virt. eigenvalues --    0.45053   0.45878   0.57971   0.63336   0.65122
 Alpha virt. eigenvalues --    0.65746   0.66583   0.67623   0.69099   0.71178
 Alpha virt. eigenvalues --    0.72326   0.77956   0.87180   0.88840   0.94797
 Alpha virt. eigenvalues --    0.98358   1.02708   1.05105   1.05568   1.07083
 Alpha virt. eigenvalues --    1.09966   1.16375   1.16992   1.22276   1.25131
 Alpha virt. eigenvalues --    1.29052   1.40726   1.47706   1.50061   1.51015
 Alpha virt. eigenvalues --    1.60340   1.71378   1.72863   1.76429   1.84852
 Alpha virt. eigenvalues --    1.92268   1.92663   2.16509   2.16569   2.34695
 Alpha virt. eigenvalues --    2.35029   2.58629   2.61808   2.62302   2.62712
 Alpha virt. eigenvalues --    2.64847   2.65463   2.71783   2.74667   2.81093
 Alpha virt. eigenvalues --    2.83212   2.84902   2.87258   2.95515   2.99213
 Alpha virt. eigenvalues --    3.02749   3.31600   3.39788   3.59145
          Condensed to atoms (all electrons):
               1          2          3          4          5          6
     1  C    4.760043   0.352008  -0.052188  -0.056601  -0.051428   0.374749
     2  S    0.352008  13.750801   0.450937   0.466312   0.197800  -0.012505
     3  O   -0.052188   0.450937   8.120117  -0.038099  -0.049358   0.001177
     4  O   -0.056601   0.466312  -0.038099   8.078079  -0.042642   0.001776
     5  O   -0.051428   0.197800  -0.049358  -0.042642   7.978120   0.003737
     6  H    0.374749  -0.012505   0.001177   0.001776   0.003737   0.563385
     7  H    0.361701  -0.004330   0.003380   0.002089   0.000775  -0.009466
     8  H    0.354546  -0.002527   0.002193   0.003525   0.002996  -0.008521
     9  H    0.003569   0.000894   0.008729   0.001774   0.308660  -0.000306
               7          8          9
     1  C    0.361701   0.354546   0.003569
     2  S   -0.004330  -0.002527   0.000894
     3  O    0.003380   0.002193   0.008729
     4  O    0.002089   0.003525   0.001774
     5  O    0.000775   0.002996   0.308660
     6  H   -0.009466  -0.008521  -0.000306
     7  H    0.576652  -0.012773  -0.000457
     8  H   -0.012773   0.590471   0.000210
     9  H   -0.000457   0.000210   0.457661
 Mulliken charges:
               1
     1  C   -0.046398
     2  S    0.800611
     3  O   -0.446889
     4  O   -0.416212
     5  O   -0.348660
     6  H    0.085974
     7  H    0.082429
     8  H    0.069880
     9  H    0.219266
 Sum of Mulliken charges =  -0.00000
 Mulliken charges with hydrogens summed into heavy atoms:
               1
     1  C    0.191885
     2  S    0.800611
     3  O   -0.446889
     4  O   -0.416212
     5  O   -0.129395
 Electronic spatial extent (au):  <R**2>=            410.5957
 Charge=             -0.0000 electrons
 Dipole moment (field-independent basis, Debye):
    X=             -2.0273    Y=             -2.6294    Z=             -0.4315  Tot=              3.3481
 Quadrupole moment (field-independent basis, Debye-Ang):
   XX=            -29.7530   YY=            -36.6686   ZZ=            -40.6998
   XY=             -2.8162   XZ=             -1.6202   YZ=              1.6726
 Traceless Quadrupole moment (field-independent basis, Debye-Ang):
   XX=              5.9542   YY=             -0.9615   ZZ=             -4.9926
   XY=             -2.8162   XZ=             -1.6202   YZ=              1.6726
 Octapole moment (field-independent basis, Debye-Ang**2):
  XXX=              4.6214  YYY=            -11.9501  ZZZ=             -4.3483  XYY=              4.0343
  XXY=             -4.7575  XXZ=             -2.1242  XZZ=             -3.5858  YZZ=              2.5803
  YYZ=              2.8006  XYZ=              1.5629
 Hexadecapole moment (field-independent basis, Debye-Ang**3):
 XXXX=           -179.6069 YYYY=           -147.8595 ZZZZ=           -148.0187 XXXY=            -10.5197
 XXXZ=             -3.9946 YYYX=            -11.2365 YYYZ=              4.4563 ZZZX=             -1.4173
 ZZZY=              0.4261 XXYY=            -48.0187 XXZZ=            -54.2209 YYZZ=            -50.1942
 XXYZ=              3.2841 YYXZ=             -2.8553 ZZXY=             -0.7957
 N-N= 2.801524934870D+02 E-N=-2.129583214674D+03  KE= 6.602293854930D+02
   1 Symmetry operations used in ECPInt.
 ECPInt:  NShTT=     990 NPrTT=    3828 LenC2=     986 LenP2D=    3190.
 LDataN:  DoStor=T MaxTD1= 5 Len=  102
 Calling FoFJK, ICntrl=      2127 FMM=F ISym2X=0 I1Cent= 0 IOpClX= 0 NMat=1 NMatS=1 NMatT=0.
 ***** Axes restored to original set *****
 -------------------------------------------------------------------
 Center     Atomic                   Forces (Hartrees/Bohr)
 Number     Number              X              Y              Z
 -------------------------------------------------------------------
      1        6           0.003415848    0.002841715    0.001140408
      2       16          -0.004294197   -0.002882655   -0.008942064
      3        8           0.001023613    0.003671791    0.004099795
      4        8          -0.003952711   -0.003851003    0.005420106
      5        8           0.006769950   -0.005179290    0.003194085
      6        1          -0.000590594    0.003732663    0.001594511
      7        1           0.001284143    0.000150851   -0.003302031
      8        1           0.000833227   -0.002699327    0.001930958
      9        1          -0.004489278    0.004215254   -0.005135769
 -------------------------------------------------------------------
 Cartesian Forces:  Max     0.008942064 RMS     0.003883441

 GradGradGradGradGradGradGradGradGradGradGradGradGradGradGradGradGradGrad
 Berny optimization.
 FormGI is forming the generalized inverse of G from B-inverse, IUseBI=4.
 Internal  Forces:  Max     0.007976721 RMS     0.002946820
 Search for a local minimum.
 Step number   1 out of a maximum of   43
 All quantities printed in internal units (Hartrees-Bohrs-Radians)
 Mixed Optimization -- RFO/linear search
 Second derivative matrix not updated -- first step.
 ITU=  0
     Eigenvalues ---    0.00664   0.02432   0.06095   0.06224   0.08220
     Eigenvalues ---    0.10811   0.16000   0.16000   0.16000   0.16000
     Eigenvalues ---    0.16471   0.19909   0.25000   0.27948   0.34594
     Eigenvalues ---    0.34638   0.34639   0.48577   0.51073   0.98218
     Eigenvalues ---    0.98966
 RFO step:  Lambda=-1.20932883D-03 EMin= 6.64253167D-03
 Linear search not attempted -- first point.
 Iteration  1 RMS(Cart)=  0.02099624 RMS(Int)=  0.00032967
 Iteration  2 RMS(Cart)=  0.00035734 RMS(Int)=  0.00017327
 Iteration  3 RMS(Cart)=  0.00000005 RMS(Int)=  0.00017327
 Variable       Old X    -DE/DX   Delta X   Delta X   Delta X     New X
                                 (Linear)    (Quad)   (Total)
    R1        3.35951  -0.00569   0.00000  -0.02025  -0.02025   3.33926
    R2        2.06339   0.00371   0.00000   0.01068   0.01068   2.07407
    R3        2.06265   0.00323   0.00000   0.00930   0.00930   2.07195
    R4        2.06267   0.00283   0.00000   0.00814   0.00814   2.07081
    R5        2.73061   0.00370   0.00000   0.00376   0.00376   2.73437
    R6        2.72756  -0.00712   0.00000  -0.00718  -0.00718   2.72037
    R7        3.05029   0.00249   0.00000   0.00512   0.00512   3.05541
    R8        1.85498  -0.00798   0.00000  -0.01558  -0.01558   1.83940
    A1        1.88521  -0.00181   0.00000  -0.01119  -0.01126   1.87396
    A2        1.89929  -0.00144   0.00000  -0.00922  -0.00929   1.89000
    A3        1.90025  -0.00215   0.00000  -0.01309  -0.01316   1.88709
    A4        1.92084   0.00147   0.00000   0.00854   0.00847   1.92931
    A5        1.92080   0.00197   0.00000   0.01291   0.01284   1.93363
    A6        1.93646   0.00177   0.00000   0.01091   0.01084   1.94730
    A7        1.91169   0.00114   0.00000   0.00253   0.00195   1.91363
    A8        1.91443  -0.00269   0.00000  -0.01948  -0.01979   1.89464
    A9        1.71014   0.00411   0.00000   0.02811   0.02798   1.73812
   A10        2.14177  -0.00213   0.00000  -0.02656  -0.02696   2.11482
   A11        1.84614   0.00100   0.00000   0.02129   0.02106   1.86720
   A12        1.88865   0.00018   0.00000   0.00897   0.00919   1.89784
   A13        1.88222  -0.00136   0.00000  -0.00842  -0.00842   1.87380
    D1        1.20454  -0.00234   0.00000  -0.01287  -0.01281   1.19173
    D2       -1.19340   0.00206   0.00000   0.03980   0.03963  -1.15377
    D3        3.12337   0.00084   0.00000   0.02322   0.02334  -3.13647
    D4       -2.99366  -0.00243   0.00000  -0.01429  -0.01424  -3.00790
    D5        0.89159   0.00197   0.00000   0.03838   0.03820   0.92979
    D6       -1.07482   0.00075   0.00000   0.02180   0.02192  -1.05291
    D7       -0.88095  -0.00244   0.00000  -0.01449  -0.01443  -0.89538
    D8        3.00430   0.00196   0.00000   0.03819   0.03801   3.04231
    D9        1.03789   0.00074   0.00000   0.02160   0.02172   1.05961
   D10       -2.19838  -0.00117   0.00000   0.00007  -0.00007  -2.19845
   D11       -0.22648   0.00184   0.00000   0.01887   0.01914  -0.20733
   D12        2.09780  -0.00001   0.00000   0.00685   0.00672   2.10452
         Item               Value     Threshold  Converged?
 Maximum Force            0.007977     0.000450     NO 
 RMS     Force            0.002947     0.000300     NO 
 Maximum Displacement     0.060502     0.001800     NO 
 RMS     Displacement     0.021031     0.001200     NO 
 Predicted change in Energy=-6.089710D-04
 GradGradGradGradGradGradGradGradGradGradGradGradGradGradGradGradGradGrad

                          Input orientation:                          
 ---------------------------------------------------------------------
 Center     Atomic      Atomic             Coordinates (Angstroms)
 Number     Number       Type             X           Y           Z
 ---------------------------------------------------------------------
      1          6           0       -1.098070    0.105024   -0.253030
      2         16           0        0.583343    0.354764    0.229649
      3          8           0        0.704252    0.209716    1.664243
      4          8           0        1.085297    1.522557   -0.446097
      5          8           0        1.252382   -0.958159   -0.435811
      6          1           0       -1.680190    0.949098    0.138502
      7          1           0       -1.141910    0.082620   -1.348352
      8          1           0       -1.441221   -0.839786    0.183338
      9          1           0        1.736117   -1.425835    0.267558
 ---------------------------------------------------------------------
                    Distance matrix (angstroms):
                    1          2          3          4          5
     1  C    0.000000
     2  S    1.767060   0.000000
     3  O    2.633488   1.446968   0.000000
     4  O    2.610320   1.439560   2.514415   0.000000
     5  O    2.586193   1.616854   2.464672   2.486358   0.000000
     6  H    1.097552   2.342034   2.925770   2.884187   3.545059
     7  H    1.096428   2.353858   3.535561   2.801417   2.765608
     8  H    1.095826   2.351160   2.810264   3.515700   2.766379
     9  H    3.262998   2.121522   2.385477   3.102561   0.973369
                    6          7          8          9
     6  H    0.000000
     7  H    1.803126   0.000000
     8  H    1.805331   1.812869   0.000000
     9  H    4.162705   3.628999   3.232030   0.000000
 Stoichiometry    CH4O3S
 Framework group  C1[X(CH4O3S)]
 Deg. of freedom    21
 Full point group                 C1      NOp   1
 Largest Abelian subgroup         C1      NOp   1
 Largest concise Abelian subgroup C1      NOp   1
                         Standard orientation:                         
 ---------------------------------------------------------------------
 Center     Atomic      Atomic             Coordinates (Angstroms)
 Number     Number       Type             X           Y           Z
 ---------------------------------------------------------------------
      1          6           0       -1.601449   -0.371833    0.043377
      2         16           0        0.088840    0.143286    0.052033
      3          8           0        0.622387    0.038581    1.392958
      4          8           0        0.199089    1.365587   -0.700401
      5          8           0        0.741012   -1.058477   -0.810902
      6          1           0       -2.174960    0.376610    0.605105
      7          1           0       -1.942401   -0.415854   -0.997762
      8          1           0       -1.661422   -1.352457    0.528776
      9          1           0        1.466124   -1.435407   -0.282145
 ---------------------------------------------------------------------
 Rotational constants (GHZ):           4.7938084           4.5450613           4.4217665
 Standard basis: def2SVP (5D, 7F)
 There are    99 symmetry adapted cartesian basis functions of A   symmetry.
 There are    94 symmetry adapted basis functions of A   symmetry.
    94 basis functions,   165 primitive gaussians,    99 cartesian basis functions
    25 alpha electrons       25 beta electrons
       nuclear repulsion energy       280.3908237732 Hartrees.
 NAtoms=    9 NActive=    9 NUniq=    9 SFac= 1.00D+00 NAtFMM=   60 NAOKFM=F Big=F
 Integral buffers will be    131072 words long.
 Raffenetti 2 integral format.
 Two-electron integral symmetry is turned on.
 One-electron integrals computed using PRISM.
   1 Symmetry operations used in ECPInt.
 ECPInt:  NShTT=     990 NPrTT=    3828 LenC2=     987 LenP2D=    3189.
 LDataN:  DoStor=T MaxTD1= 4 Len=   56
 NBasis=    94 RedAO= T EigKep=  4.90D-03  NBF=    94
 NBsUse=    94 1.00D-06 EigRej= -1.00D+00 NBFU=    94
 Initial guess from the checkpoint file:  "pka_scale_frag2_pka_HA_opt.chk"
 B after Tr=     0.000000    0.000000   -0.000000
         Rot=    0.995811    0.081294    0.009200   -0.040839 Ang=  10.49 deg.
 ExpMin= 1.22D-01 ExpMax= 9.18D+03 ExpMxC= 1.38D+03 IAcc=3 IRadAn=         5 AccDes= 0.00D+00
 Harris functional with IExCor= 1009 and IRadAn=       5 diagonalized for initial guess.
 HarFok:  IExCor= 1009 AccDes= 0.00D+00 IRadAn=         5 IDoV= 1 UseB2=F ITyADJ=14
 ICtDFT=  3500011 ScaDFX=  1.000000  1.000000  1.000000  1.000000
 FoFCou: FMM=F IPFlag=           0 FMFlag=      100000 FMFlg1=           0
         NFxFlg=           0 DoJE=T BraDBF=F KetDBF=T FulRan=T
         wScrn=  0.000000 ICntrl=       500 IOpCl=  0 I1Cent=   200000004 NGrid=           0
         NMat0=    1 NMatS0=      1 NMatT0=    0 NMatD0=    1 NMtDS0=    0 NMtDT0=    0
 Petite list used in FoFCou.
 Keep R1 ints in memory in canonical form, NReq=69070382.
 Requested convergence on RMS density matrix=1.00D-08 within 128 cycles.
 Requested convergence on MAX density matrix=1.00D-06.
 Requested convergence on             energy=1.00D-06.
 No special actions if energy rises.
 Integral accuracy reduced to 1.0D-05 until final iterations.
 Initial convergence to 1.0D-05 achieved.  Increase integral accuracy.
 SCF Done:  E(RMN15) =  -663.543535189     A.U. after   12 cycles
            NFock= 12  Conv=0.37D-08     -V/T= 2.0050
   1 Symmetry operations used in ECPInt.
 ECPInt:  NShTT=     990 NPrTT=    3828 LenC2=     987 LenP2D=    3189.
 LDataN:  DoStor=T MaxTD1= 5 Len=  102
 Calling FoFJK, ICntrl=      2127 FMM=F ISym2X=0 I1Cent= 0 IOpClX= 0 NMat=1 NMatS=1 NMatT=0.
 ***** Axes restored to original set *****
 -------------------------------------------------------------------
 Center     Atomic                   Forces (Hartrees/Bohr)
 Number     Number              X              Y              Z
 -------------------------------------------------------------------
      1        6           0.000755186   -0.001755121   -0.000255256
      2       16          -0.003163977    0.004023795   -0.000962094
      3        8           0.001309969   -0.002017889    0.000547152
      4        8           0.000693381   -0.000933451   -0.000528902
      5        8          -0.000071505    0.001122711    0.000791156
      6        1           0.001285140    0.000069321    0.000066251
      7        1          -0.000050486   -0.000109092    0.000221302
      8        1          -0.000664002    0.000089401   -0.000222497
      9        1          -0.000093706   -0.000489676    0.000342888
 -------------------------------------------------------------------
 Cartesian Forces:  Max     0.004023795 RMS     0.001262604

 GradGradGradGradGradGradGradGradGradGradGradGradGradGradGradGradGradGrad
 Berny optimization.
 Using GEDIIS/GDIIS optimizer.
 FormGI is forming the generalized inverse of G from B-inverse, IUseBI=4.
 Internal  Forces:  Max     0.001967587 RMS     0.000859053
 Search for a local minimum.
 Step number   2 out of a maximum of   43
 All quantities printed in internal units (Hartrees-Bohrs-Radians)
 Mixed Optimization -- En-DIIS/RFO-DIIS
 Update second derivatives using D2CorX and points    1    2
 DE= -4.96D-04 DEPred=-6.09D-04 R= 8.15D-01
 TightC=F SS=  1.41D+00  RLast= 1.06D-01 DXNew= 5.0454D-01 3.1769D-01
 Trust test= 8.15D-01 RLast= 1.06D-01 DXMaxT set to 3.18D-01
 ITU=  1  0
 Use linear search instead of GDIIS.
     Eigenvalues ---    0.00654   0.02408   0.06190   0.06328   0.10006
     Eigenvalues ---    0.11590   0.14730   0.16000   0.16000   0.16228
     Eigenvalues ---    0.17406   0.19920   0.24925   0.26988   0.34537
     Eigenvalues ---    0.34634   0.34905   0.48872   0.51067   0.97088
     Eigenvalues ---    0.98708
 RFO step:  Lambda=-1.26688342D-04 EMin= 6.54255406D-03
 Quartic linear search produced a step of -0.15254.
 Iteration  1 RMS(Cart)=  0.00811828 RMS(Int)=  0.00006106
 Iteration  2 RMS(Cart)=  0.00005599 RMS(Int)=  0.00002468
 Iteration  3 RMS(Cart)=  0.00000000 RMS(Int)=  0.00002468
 Variable       Old X    -DE/DX   Delta X   Delta X   Delta X     New X
                                 (Linear)    (Quad)   (Total)
    R1        3.33926  -0.00097   0.00309  -0.00806  -0.00497   3.33429
    R2        2.07407  -0.00060  -0.00163   0.00122  -0.00041   2.07366
    R3        2.07195  -0.00022  -0.00142   0.00182   0.00040   2.07235
    R4        2.07081   0.00004  -0.00124   0.00216   0.00091   2.07172
    R5        2.73437   0.00086  -0.00057   0.00169   0.00111   2.73549
    R6        2.72037  -0.00027   0.00110  -0.00204  -0.00094   2.71943
    R7        3.05541  -0.00105  -0.00078  -0.00054  -0.00132   3.05409
    R8        1.83940   0.00044   0.00238  -0.00321  -0.00083   1.83857
    A1        1.87396  -0.00197   0.00172  -0.01442  -0.01269   1.86127
    A2        1.89000   0.00019   0.00142  -0.00126   0.00015   1.89015
    A3        1.88709   0.00138   0.00201   0.00498   0.00700   1.89410
    A4        1.92931   0.00051  -0.00129   0.00261   0.00130   1.93060
    A5        1.93363   0.00026  -0.00196   0.00440   0.00248   1.93611
    A6        1.94730  -0.00041  -0.00165   0.00289   0.00124   1.94853
    A7        1.91363   0.00118  -0.00030   0.00765   0.00739   1.92103
    A8        1.89464   0.00092   0.00302   0.00244   0.00546   1.90010
    A9        1.73812  -0.00030  -0.00427   0.00245  -0.00178   1.73634
   A10        2.11482   0.00029   0.00411  -0.00038   0.00368   2.11850
   A11        1.86720  -0.00172  -0.00321  -0.00849  -0.01166   1.85554
   A12        1.89784  -0.00057  -0.00140  -0.00348  -0.00491   1.89293
   A13        1.87380   0.00017   0.00128  -0.00123   0.00006   1.87385
    D1        1.19173   0.00146   0.00195   0.02074   0.02270   1.21442
    D2       -1.15377  -0.00066  -0.00604   0.01296   0.00691  -1.14686
    D3       -3.13647  -0.00020  -0.00356   0.01492   0.01133  -3.12514
    D4       -3.00790   0.00107   0.00217   0.01514   0.01733  -2.99057
    D5        0.92979  -0.00105  -0.00583   0.00736   0.00154   0.93133
    D6       -1.05291  -0.00059  -0.00334   0.00932   0.00596  -1.04695
    D7       -0.89538   0.00149   0.00220   0.02079   0.02302  -0.87236
    D8        3.04231  -0.00063  -0.00580   0.01302   0.00723   3.04954
    D9        1.05961  -0.00017  -0.00331   0.01497   0.01165   1.07126
   D10       -2.19845   0.00027   0.00001   0.00923   0.00925  -2.18919
   D11       -0.20733   0.00088  -0.00292   0.01587   0.01289  -0.19444
   D12        2.10452  -0.00043  -0.00102   0.00660   0.00562   2.11014
         Item               Value     Threshold  Converged?
 Maximum Force            0.001968     0.000450     NO 
 RMS     Force            0.000859     0.000300     NO 
 Maximum Displacement     0.019435     0.001800     NO 
 RMS     Displacement     0.008124     0.001200     NO 
 Predicted change in Energy=-8.012894D-05
 GradGradGradGradGradGradGradGradGradGradGradGradGradGradGradGradGradGrad

                          Input orientation:                          
 ---------------------------------------------------------------------
 Center     Atomic      Atomic             Coordinates (Angstroms)
 Number     Number       Type             X           Y           Z
 ---------------------------------------------------------------------
      1          6           0       -1.098262    0.101310   -0.253843
      2         16           0        0.578719    0.358621    0.230663
      3          8           0        0.711819    0.199432    1.663271
      4          8           0        1.084295    1.524926   -0.443889
      5          8           0        1.252429   -0.950378   -0.436118
      6          1           0       -1.671477    0.953208    0.133242
      7          1           0       -1.139777    0.073787   -1.349351
      8          1           0       -1.448008   -0.839182    0.187797
      9          1           0        1.730261   -1.421723    0.268228
 ---------------------------------------------------------------------
                    Distance matrix (angstroms):
                    1          2          3          4          5
     1  C    0.000000
     2  S    1.764432   0.000000
     3  O    2.638436   1.447557   0.000000
     4  O    2.612730   1.439060   2.517100   0.000000
     5  O    2.581669   1.616156   2.453927   2.481020   0.000000
     6  H    1.097333   2.329465   2.930745   2.873016   3.535114
     7  H    1.096640   2.351767   3.538373   2.805738   2.757817
     8  H    1.096309   2.354611   2.814355   3.521448   2.773805
     9  H    3.254647   2.120633   2.368863   3.099536   0.972930
                    6          7          8          9
     6  H    0.000000
     7  H    1.803931   0.000000
     8  H    1.807091   1.814206   0.000000
     9  H    4.150944   3.618042   3.232216   0.000000
 Stoichiometry    CH4O3S
 Framework group  C1[X(CH4O3S)]
 Deg. of freedom    21
 Full point group                 C1      NOp   1
 Largest Abelian subgroup         C1      NOp   1
 Largest concise Abelian subgroup C1      NOp   1
                         Standard orientation:                         
 ---------------------------------------------------------------------
 Center     Atomic      Atomic             Coordinates (Angstroms)
 Number     Number       Type             X           Y           Z
 ---------------------------------------------------------------------
      1          6           0       -1.603354   -0.365186    0.042468
      2         16           0        0.086410    0.142383    0.059625
      3          8           0        0.646502   -0.040365    1.381866
      4          8           0        0.202750    1.396361   -0.636722
      5          8           0        0.722649   -1.018586   -0.867365
      6          1           0       -2.158478    0.370244    0.638388
      7          1           0       -1.952971   -0.362978   -0.996946
      8          1           0       -1.671651   -1.363692    0.489920
      9          1           0        1.445461   -1.429863   -0.362402
 ---------------------------------------------------------------------
 Rotational constants (GHZ):           4.8090195           4.5532663           4.4194112
 Standard basis: def2SVP (5D, 7F)
 There are    99 symmetry adapted cartesian basis functions of A   symmetry.
 There are    94 symmetry adapted basis functions of A   symmetry.
    94 basis functions,   165 primitive gaussians,    99 cartesian basis functions
    25 alpha electrons       25 beta electrons
       nuclear repulsion energy       280.5499271172 Hartrees.
 NAtoms=    9 NActive=    9 NUniq=    9 SFac= 1.00D+00 NAtFMM=   60 NAOKFM=F Big=F
 Integral buffers will be    131072 words long.
 Raffenetti 2 integral format.
 Two-electron integral symmetry is turned on.
 One-electron integrals computed using PRISM.
   1 Symmetry operations used in ECPInt.
 ECPInt:  NShTT=     990 NPrTT=    3828 LenC2=     987 LenP2D=    3190.
 LDataN:  DoStor=T MaxTD1= 4 Len=   56
 NBasis=    94 RedAO= T EigKep=  4.86D-03  NBF=    94
 NBsUse=    94 1.00D-06 EigRej= -1.00D+00 NBFU=    94
 Initial guess from the checkpoint file:  "pka_scale_frag2_pka_HA_opt.chk"
 B after Tr=    -0.000000   -0.000000    0.000000
         Rot=    0.999670   -0.024655   -0.006190    0.003719 Ang=  -2.94 deg.
 Keep R1 ints in memory in canonical form, NReq=69070382.
 Requested convergence on RMS density matrix=1.00D-08 within 128 cycles.
 Requested convergence on MAX density matrix=1.00D-06.
 Requested convergence on             energy=1.00D-06.
 No special actions if energy rises.
 SCF Done:  E(RMN15) =  -663.543611207     A.U. after   10 cycles
            NFock= 10  Conv=0.51D-08     -V/T= 2.0050
   1 Symmetry operations used in ECPInt.
 ECPInt:  NShTT=     990 NPrTT=    3828 LenC2=     987 LenP2D=    3190.
 LDataN:  DoStor=T MaxTD1= 5 Len=  102
 Calling FoFJK, ICntrl=      2127 FMM=F ISym2X=0 I1Cent= 0 IOpClX= 0 NMat=1 NMatS=1 NMatT=0.
 ***** Axes restored to original set *****
 -------------------------------------------------------------------
 Center     Atomic                   Forces (Hartrees/Bohr)
 Number     Number              X              Y              Z
 -------------------------------------------------------------------
      1        6          -0.000119409   -0.000338198    0.000213347
      2       16           0.001378819    0.000061167   -0.000150836
      3        8          -0.000422230   -0.000183862    0.000324541
      4        8          -0.000660899    0.000227892   -0.000248305
      5        8          -0.000138989    0.000372057   -0.000748999
      6        1           0.000087185   -0.000160247   -0.000243361
      7        1          -0.000001856    0.000019866    0.000428408
      8        1          -0.000130128    0.000477735   -0.000196491
      9        1           0.000007507   -0.000476409    0.000621697
 -------------------------------------------------------------------
 Cartesian Forces:  Max     0.001378819 RMS     0.000424354

 GradGradGradGradGradGradGradGradGradGradGradGradGradGradGradGradGradGrad
 Berny optimization.
 Using GEDIIS/GDIIS optimizer.
 FormGI is forming the generalized inverse of G from B-inverse, IUseBI=4.
 Internal  Forces:  Max     0.000815639 RMS     0.000327735
 Search for a local minimum.
 Step number   3 out of a maximum of   43
 All quantities printed in internal units (Hartrees-Bohrs-Radians)
 Mixed Optimization -- En-DIIS/RFO-DIIS
 Swapping is turned off.
 Update second derivatives using D2CorX and points    1    2    3
 DE= -7.60D-05 DEPred=-8.01D-05 R= 9.49D-01
 TightC=F SS=  1.41D+00  RLast= 5.04D-02 DXNew= 5.3429D-01 1.5126D-01
 Trust test= 9.49D-01 RLast= 5.04D-02 DXMaxT set to 3.18D-01
 ITU=  1  1  0
     Eigenvalues ---    0.00584   0.02197   0.06056   0.06350   0.10075
     Eigenvalues ---    0.11482   0.14533   0.16000   0.16024   0.16377
     Eigenvalues ---    0.19780   0.22277   0.25049   0.27440   0.34634
     Eigenvalues ---    0.34769   0.35270   0.49130   0.51718   0.96564
     Eigenvalues ---    0.98803
 En-DIIS/RFO-DIIS/Sim-DIIS IScMMF=       -3 using points:     3    2
 RFO step:  Lambda=-2.49265087D-05.
 DidBck=F Rises=F RFO-DIIS coefs:    1.55922   -0.55922
 Iteration  1 RMS(Cart)=  0.00578914 RMS(Int)=  0.00002882
 Iteration  2 RMS(Cart)=  0.00002234 RMS(Int)=  0.00001693
 Iteration  3 RMS(Cart)=  0.00000000 RMS(Int)=  0.00001693
 Variable       Old X    -DE/DX   Delta X   Delta X   Delta X     New X
                                 (Linear)    (Quad)   (Total)
    R1        3.33429   0.00010  -0.00278   0.00186  -0.00092   3.33338
    R2        2.07366  -0.00026  -0.00023  -0.00037  -0.00060   2.07306
    R3        2.07235  -0.00043   0.00022  -0.00117  -0.00094   2.07141
    R4        2.07172  -0.00045   0.00051  -0.00144  -0.00092   2.07080
    R5        2.73549   0.00030   0.00062  -0.00006   0.00056   2.73605
    R6        2.71943   0.00007  -0.00053   0.00030  -0.00023   2.71920
    R7        3.05409   0.00008  -0.00074   0.00074   0.00001   3.05410
    R8        1.83857   0.00069  -0.00046   0.00132   0.00086   1.83943
    A1        1.86127   0.00005  -0.00710   0.00464  -0.00246   1.85881
    A2        1.89015  -0.00007   0.00008  -0.00074  -0.00067   1.88948
    A3        1.89410   0.00042   0.00392  -0.00000   0.00392   1.89801
    A4        1.93060  -0.00010   0.00073  -0.00172  -0.00102   1.92959
    A5        1.93611  -0.00017   0.00139  -0.00139   0.00001   1.93612
    A6        1.94853  -0.00011   0.00069  -0.00050   0.00018   1.94872
    A7        1.92103  -0.00053   0.00413  -0.00608  -0.00198   1.91905
    A8        1.90010  -0.00067   0.00305  -0.00619  -0.00316   1.89695
    A9        1.73634  -0.00007  -0.00100   0.00078  -0.00021   1.73614
   A10        2.11850   0.00056   0.00206   0.00066   0.00265   2.12115
   A11        1.85554   0.00023  -0.00652   0.00653   0.00001   1.85555
   A12        1.89293   0.00042  -0.00275   0.00513   0.00238   1.89531
   A13        1.87385  -0.00014   0.00003  -0.00099  -0.00096   1.87289
    D1        1.21442   0.00001   0.01269  -0.00122   0.01148   1.22591
    D2       -1.14686   0.00027   0.00386   0.00843   0.01227  -1.13460
    D3       -3.12514   0.00006   0.00633   0.00444   0.01076  -3.11438
    D4       -2.99057  -0.00012   0.00969  -0.00111   0.00860  -2.98196
    D5        0.93133   0.00015   0.00086   0.00854   0.00939   0.94072
    D6       -1.04695  -0.00007   0.00333   0.00455   0.00788  -1.03906
    D7       -0.87236  -0.00004   0.01287  -0.00215   0.01075  -0.86161
    D8        3.04954   0.00022   0.00404   0.00750   0.01153   3.06107
    D9        1.07126   0.00001   0.00651   0.00351   0.01003   1.08129
   D10       -2.18919   0.00019   0.00517   0.00506   0.01023  -2.17896
   D11       -0.19444  -0.00035   0.00721   0.00081   0.00800  -0.18644
   D12        2.11014   0.00082   0.00314   0.00987   0.01303   2.12317
         Item               Value     Threshold  Converged?
 Maximum Force            0.000816     0.000450     NO 
 RMS     Force            0.000328     0.000300     NO 
 Maximum Displacement     0.012935     0.001800     NO 
 RMS     Displacement     0.005792     0.001200     NO 
 Predicted change in Energy=-1.248143D-05
 GradGradGradGradGradGradGradGradGradGradGradGradGradGradGradGradGradGrad

                          Input orientation:                          
 ---------------------------------------------------------------------
 Center     Atomic      Atomic             Coordinates (Angstroms)
 Number     Number       Type             X           Y           Z
 ---------------------------------------------------------------------
      1          6           0       -1.096502    0.099989   -0.253030
      2         16           0        0.579818    0.359118    0.231030
      3          8           0        0.711399    0.195289    1.663555
      4          8           0        1.078232    1.529514   -0.441503
      5          8           0        1.255219   -0.947210   -0.439278
      6          1           0       -1.666705    0.956373    0.127656
      7          1           0       -1.136615    0.066942   -1.347937
      8          1           0       -1.451237   -0.835973    0.193019
      9          1           0        1.726392   -1.424041    0.266489
 ---------------------------------------------------------------------
                    Distance matrix (angstroms):
                    1          2          3          4          5
     1  C    0.000000
     2  S    1.763947   0.000000
     3  O    2.636453   1.447854   0.000000
     4  O    2.609316   1.438938   2.519125   0.000000
     5  O    2.581067   1.616159   2.454170   2.483040   0.000000
     6  H    1.097017   2.326857   2.931487   2.861313   3.533084
     7  H    1.096141   2.350457   3.535635   2.804691   2.752278
     8  H    1.095820   2.356877   2.811223   3.520846   2.781560
     9  H    3.249815   2.120270   2.367326   3.105616   0.973385
                    6          7          8          9
     6  H    0.000000
     7  H    1.802625   0.000000
     8  H    1.806434   1.813502   0.000000
     9  H    4.147138   3.609185   3.232421   0.000000
 Stoichiometry    CH4O3S
 Framework group  C1[X(CH4O3S)]
 Deg. of freedom    21
 Full point group                 C1      NOp   1
 Largest Abelian subgroup         C1      NOp   1
 Largest concise Abelian subgroup C1      NOp   1
                         Standard orientation:                         
 ---------------------------------------------------------------------
 Center     Atomic      Atomic             Coordinates (Angstroms)
 Number     Number       Type             X           Y           Z
 ---------------------------------------------------------------------
      1          6           0       -1.598281   -0.379287    0.042705
      2         16           0        0.086486    0.142987    0.059976
      3          8           0        0.648524   -0.044980    1.380984
      4          8           0        0.185615    1.403067   -0.627713
      5          8           0        0.730963   -1.006648   -0.875417
      6          1           0       -2.158177    0.354823    0.635195
      7          1           0       -1.946586   -0.381286   -0.996623
      8          1           0       -1.662539   -1.376424    0.492607
      9          1           0        1.452384   -1.420699   -0.369856
 ---------------------------------------------------------------------
 Rotational constants (GHZ):           4.8064284           4.5566161           4.4209018
 Standard basis: def2SVP (5D, 7F)
 There are    99 symmetry adapted cartesian basis functions of A   symmetry.
 There are    94 symmetry adapted basis functions of A   symmetry.
    94 basis functions,   165 primitive gaussians,    99 cartesian basis functions
    25 alpha electrons       25 beta electrons
       nuclear repulsion energy       280.5652182147 Hartrees.
 NAtoms=    9 NActive=    9 NUniq=    9 SFac= 1.00D+00 NAtFMM=   60 NAOKFM=F Big=F
 Integral buffers will be    131072 words long.
 Raffenetti 2 integral format.
 Two-electron integral symmetry is turned on.
 One-electron integrals computed using PRISM.
   1 Symmetry operations used in ECPInt.
 ECPInt:  NShTT=     990 NPrTT=    3828 LenC2=     987 LenP2D=    3190.
 LDataN:  DoStor=T MaxTD1= 4 Len=   56
 NBasis=    94 RedAO= T EigKep=  4.86D-03  NBF=    94
 NBsUse=    94 1.00D-06 EigRej= -1.00D+00 NBFU=    94
 Initial guess from the checkpoint file:  "pka_scale_frag2_pka_HA_opt.chk"
 B after Tr=     0.000000    0.000000    0.000000
         Rot=    0.999985   -0.003099   -0.000764   -0.004484 Ang=  -0.63 deg.
 Keep R1 ints in memory in canonical form, NReq=69070382.
 Requested convergence on RMS density matrix=1.00D-08 within 128 cycles.
 Requested convergence on MAX density matrix=1.00D-06.
 Requested convergence on             energy=1.00D-06.
 No special actions if energy rises.
 SCF Done:  E(RMN15) =  -663.543627759     A.U. after    9 cycles
            NFock=  9  Conv=0.47D-08     -V/T= 2.0050
   1 Symmetry operations used in ECPInt.
 ECPInt:  NShTT=     990 NPrTT=    3828 LenC2=     987 LenP2D=    3190.
 LDataN:  DoStor=T MaxTD1= 5 Len=  102
 Calling FoFJK, ICntrl=      2127 FMM=F ISym2X=0 I1Cent= 0 IOpClX= 0 NMat=1 NMatS=1 NMatT=0.
 ***** Axes restored to original set *****
 -------------------------------------------------------------------
 Center     Atomic                   Forces (Hartrees/Bohr)
 Number     Number              X              Y              Z
 -------------------------------------------------------------------
      1        6          -0.000207938    0.000033223    0.000154829
      2       16           0.000119200   -0.000453015    0.000253909
      3        8           0.000079101    0.000074870   -0.000059964
      4        8          -0.000001771    0.000084164   -0.000143202
      5        8           0.000430364    0.000432279   -0.000331993
      6        1          -0.000173333   -0.000049204   -0.000159041
      7        1          -0.000063917    0.000009922    0.000071064
      8        1          -0.000033783    0.000163790   -0.000035110
      9        1          -0.000147922   -0.000296028    0.000249508
 -------------------------------------------------------------------
 Cartesian Forces:  Max     0.000453015 RMS     0.000205978

 GradGradGradGradGradGradGradGradGradGradGradGradGradGradGradGradGradGrad
 Berny optimization.
 Using GEDIIS/GDIIS optimizer.
 FormGI is forming the generalized inverse of G from B-inverse, IUseBI=4.
 Internal  Forces:  Max     0.000498521 RMS     0.000168154
 Search for a local minimum.
 Step number   4 out of a maximum of   43
 All quantities printed in internal units (Hartrees-Bohrs-Radians)
 Mixed Optimization -- En-DIIS/RFO-DIIS
 Swapping is turned off.
 Update second derivatives using D2CorX and points    1    2    3    4
 DE= -1.66D-05 DEPred=-1.25D-05 R= 1.33D+00
 TightC=F SS=  1.41D+00  RLast= 3.69D-02 DXNew= 5.3429D-01 1.1082D-01
 Trust test= 1.33D+00 RLast= 3.69D-02 DXMaxT set to 3.18D-01
 ITU=  1  1  1  0
     Eigenvalues ---    0.00369   0.01605   0.06134   0.06334   0.10125
     Eigenvalues ---    0.11759   0.15709   0.15890   0.16000   0.17834
     Eigenvalues ---    0.19755   0.23346   0.25676   0.30715   0.34627
     Eigenvalues ---    0.34738   0.36396   0.49103   0.51090   0.97601
     Eigenvalues ---    0.98735
 En-DIIS/RFO-DIIS/Sim-DIIS IScMMF=       -3 using points:     4    3    2
 RFO step:  Lambda=-1.86270775D-05.
 DidBck=F Rises=F RFO-DIIS coefs:    2.33660   -1.21294   -0.12366
 Iteration  1 RMS(Cart)=  0.00785299 RMS(Int)=  0.00005983
 Iteration  2 RMS(Cart)=  0.00005754 RMS(Int)=  0.00000548
 Iteration  3 RMS(Cart)=  0.00000001 RMS(Int)=  0.00000548
 Variable       Old X    -DE/DX   Delta X   Delta X   Delta X     New X
                                 (Linear)    (Quad)   (Total)
    R1        3.33338   0.00042  -0.00184   0.00224   0.00040   3.33378
    R2        2.07306  -0.00000  -0.00085   0.00058  -0.00027   2.07279
    R3        2.07141  -0.00007  -0.00121   0.00057  -0.00064   2.07076
    R4        2.07080  -0.00014  -0.00112   0.00025  -0.00088   2.06992
    R5        2.73605  -0.00006   0.00089  -0.00038   0.00051   2.73656
    R6        2.71920   0.00013  -0.00042   0.00020  -0.00023   2.71897
    R7        3.05410   0.00004  -0.00016   0.00016   0.00000   3.05410
    R8        1.83943   0.00026   0.00105  -0.00021   0.00084   1.84027
    A1        1.85881   0.00032  -0.00485   0.00391  -0.00094   1.85787
    A2        1.88948   0.00003  -0.00088   0.00044  -0.00045   1.88903
    A3        1.89801   0.00005   0.00610  -0.00221   0.00389   1.90190
    A4        1.92959  -0.00018  -0.00120  -0.00083  -0.00204   1.92754
    A5        1.93612  -0.00015   0.00032  -0.00067  -0.00034   1.93578
    A6        1.94872  -0.00005   0.00040  -0.00043  -0.00004   1.94868
    A7        1.91905  -0.00003  -0.00173   0.00179   0.00005   1.91910
    A8        1.89695  -0.00011  -0.00354   0.00121  -0.00233   1.89461
    A9        1.73614   0.00050  -0.00049   0.00377   0.00328   1.73942
   A10        2.12115   0.00003   0.00400  -0.00273   0.00126   2.12241
   A11        1.85555  -0.00007  -0.00143   0.00039  -0.00104   1.85451
   A12        1.89531  -0.00022   0.00257  -0.00328  -0.00071   1.89459
   A13        1.87289  -0.00000  -0.00127   0.00051  -0.00077   1.87213
    D1        1.22591  -0.00003   0.01815  -0.00232   0.01583   1.24173
    D2       -1.13460   0.00005   0.01725  -0.00117   0.01607  -1.11853
    D3       -3.11438   0.00011   0.01579   0.00040   0.01618  -3.09820
    D4       -2.98196  -0.00005   0.01364  -0.00096   0.01269  -2.96928
    D5        0.94072   0.00003   0.01274   0.00020   0.01293   0.95365
    D6       -1.03906   0.00009   0.01128   0.00177   0.01304  -1.02602
    D7       -0.86161  -0.00006   0.01721  -0.00253   0.01469  -0.84693
    D8        3.06107   0.00002   0.01631  -0.00138   0.01493   3.07600
    D9        1.08129   0.00008   0.01485   0.00019   0.01504   1.09633
   D10       -2.17896   0.00015   0.01482   0.00359   0.01841  -2.16056
   D11       -0.18644   0.00029   0.01229   0.00715   0.01944  -0.16700
   D12        2.12317   0.00013   0.01811   0.00167   0.01978   2.14295
         Item               Value     Threshold  Converged?
 Maximum Force            0.000499     0.000450     NO 
 RMS     Force            0.000168     0.000300     YES
 Maximum Displacement     0.017842     0.001800     NO 
 RMS     Displacement     0.007860     0.001200     NO 
 Predicted change in Energy=-9.327110D-06
 GradGradGradGradGradGradGradGradGradGradGradGradGradGradGradGradGradGrad

                          Input orientation:                          
 ---------------------------------------------------------------------
 Center     Atomic      Atomic             Coordinates (Angstroms)
 Number     Number       Type             X           Y           Z
 ---------------------------------------------------------------------
      1          6           0       -1.095962    0.098807   -0.252127
      2         16           0        0.580446    0.359162    0.231739
      3          8           0        0.713647    0.189306    1.663684
      4          8           0        1.072864    1.533967   -0.437257
      5          8           0        1.262691   -0.941072   -0.443473
      6          1           0       -1.663759    0.960828    0.118895
      7          1           0       -1.134492    0.057500   -1.346470
      8          1           0       -1.456859   -0.831148    0.200357
      9          1           0        1.721423   -1.427350    0.264652
 ---------------------------------------------------------------------
                    Distance matrix (angstroms):
                    1          2          3          4          5
     1  C    0.000000
     2  S    1.764159   0.000000
     3  O    2.636894   1.448124   0.000000
     4  O    2.607252   1.438818   2.520139   0.000000
     5  O    2.584803   1.616161   2.453429   2.482315   0.000000
     6  H    1.096873   2.326197   2.938312   2.850771   3.535193
     7  H    1.095800   2.350055   3.534688   2.806964   2.749371
     8  H    1.095356   2.359753   2.809581   3.521337   2.796882
     9  H    3.245593   2.120032   2.363574   3.111704   0.973828
                    6          7          8          9
     6  H    0.000000
     7  H    1.800950   0.000000
     8  H    1.805719   1.812813   0.000000
     9  H    4.145370   3.599548   3.234357   0.000000
 Stoichiometry    CH4O3S
 Framework group  C1[X(CH4O3S)]
 Deg. of freedom    21
 Full point group                 C1      NOp   1
 Largest Abelian subgroup         C1      NOp   1
 Largest concise Abelian subgroup C1      NOp   1
                         Standard orientation:                         
 ---------------------------------------------------------------------
 Center     Atomic      Atomic             Coordinates (Angstroms)
 Number     Number       Type             X           Y           Z
 ---------------------------------------------------------------------
      1          6           0       -1.595299   -0.393269    0.038807
      2         16           0        0.085318    0.142711    0.061359
      3          8           0        0.649469   -0.054912    1.380351
      4          8           0        0.170485    1.410905   -0.612902
      5          8           0        0.743606   -0.988804   -0.886431
      6          1           0       -2.162802    0.339251    0.625736
      7          1           0       -1.939339   -0.399240   -1.001567
      8          1           0       -1.657563   -1.389084    0.490781
      9          1           0        1.457931   -1.412189   -0.377680
 ---------------------------------------------------------------------
 Rotational constants (GHZ):           4.8099704           4.5523681           4.4193056
 Standard basis: def2SVP (5D, 7F)
 There are    99 symmetry adapted cartesian basis functions of A   symmetry.
 There are    94 symmetry adapted basis functions of A   symmetry.
    94 basis functions,   165 primitive gaussians,    99 cartesian basis functions
    25 alpha electrons       25 beta electrons
       nuclear repulsion energy       280.5466244564 Hartrees.
 NAtoms=    9 NActive=    9 NUniq=    9 SFac= 1.00D+00 NAtFMM=   60 NAOKFM=F Big=F
 Integral buffers will be    131072 words long.
 Raffenetti 2 integral format.
 Two-electron integral symmetry is turned on.
 One-electron integrals computed using PRISM.
   1 Symmetry operations used in ECPInt.
 ECPInt:  NShTT=     990 NPrTT=    3828 LenC2=     987 LenP2D=    3190.
 LDataN:  DoStor=T MaxTD1= 4 Len=   56
 NBasis=    94 RedAO= T EigKep=  4.86D-03  NBF=    94
 NBsUse=    94 1.00D-06 EigRej= -1.00D+00 NBFU=    94
 Initial guess from the checkpoint file:  "pka_scale_frag2_pka_HA_opt.chk"
 B after Tr=    -0.000000   -0.000000   -0.000000
         Rot=    0.999977   -0.005022    0.000218   -0.004555 Ang=  -0.78 deg.
 Keep R1 ints in memory in canonical form, NReq=69070382.
 Requested convergence on RMS density matrix=1.00D-08 within 128 cycles.
 Requested convergence on MAX density matrix=1.00D-06.
 Requested convergence on             energy=1.00D-06.
 No special actions if energy rises.
 SCF Done:  E(RMN15) =  -663.543640398     A.U. after    9 cycles
            NFock=  9  Conv=0.77D-08     -V/T= 2.0050
   1 Symmetry operations used in ECPInt.
 ECPInt:  NShTT=     990 NPrTT=    3828 LenC2=     987 LenP2D=    3190.
 LDataN:  DoStor=T MaxTD1= 5 Len=  102
 Calling FoFJK, ICntrl=      2127 FMM=F ISym2X=0 I1Cent= 0 IOpClX= 0 NMat=1 NMatS=1 NMatT=0.
 ***** Axes restored to original set *****
 -------------------------------------------------------------------
 Center     Atomic                   Forces (Hartrees/Bohr)
 Number     Number              X              Y              Z
 -------------------------------------------------------------------
      1        6          -0.000142476    0.000285605    0.000068907
      2       16           0.000083683   -0.000670253    0.000645009
      3        8           0.000012563    0.000232380   -0.000366190
      4        8           0.000153841    0.000104922   -0.000163485
      5        8           0.000425057    0.000293565   -0.000008721
      6        1          -0.000221956    0.000006903   -0.000006853
      7        1          -0.000029923   -0.000013813   -0.000190716
      8        1           0.000067176   -0.000172618    0.000117124
      9        1          -0.000347965   -0.000066692   -0.000095076
 -------------------------------------------------------------------
 Cartesian Forces:  Max     0.000670253 RMS     0.000255669

 GradGradGradGradGradGradGradGradGradGradGradGradGradGradGradGradGradGrad
 Berny optimization.
 Using GEDIIS/GDIIS optimizer.
 FormGI is forming the generalized inverse of G from B-inverse, IUseBI=4.
 Internal  Forces:  Max     0.000387716 RMS     0.000161479
 Search for a local minimum.
 Step number   5 out of a maximum of   43
 All quantities printed in internal units (Hartrees-Bohrs-Radians)
 Mixed Optimization -- En-DIIS/RFO-DIIS
 Swapping is turned off.
 Update second derivatives using D2CorX and points    1    2    3    4    5
 DE= -1.26D-05 DEPred=-9.33D-06 R= 1.36D+00
 TightC=F SS=  1.41D+00  RLast= 5.55D-02 DXNew= 5.3429D-01 1.6662D-01
 Trust test= 1.36D+00 RLast= 5.55D-02 DXMaxT set to 3.18D-01
 ITU=  1  1  1  1  0
     Eigenvalues ---    0.00259   0.01286   0.06213   0.06535   0.10197
     Eigenvalues ---    0.11659   0.15781   0.15985   0.16059   0.18807
     Eigenvalues ---    0.20664   0.23934   0.25990   0.30439   0.34636
     Eigenvalues ---    0.34774   0.38667   0.49216   0.53384   0.98701
     Eigenvalues ---    1.00907
 En-DIIS/RFO-DIIS/Sim-DIIS IScMMF=       -3 using points:     5    4    3    2
 RFO step:  Lambda=-1.30420659D-05.
 DidBck=F Rises=F RFO-DIIS coefs:    0.87304    1.38172   -1.20750   -0.04727
 Iteration  1 RMS(Cart)=  0.00558512 RMS(Int)=  0.00003395
 Iteration  2 RMS(Cart)=  0.00003202 RMS(Int)=  0.00000590
 Iteration  3 RMS(Cart)=  0.00000000 RMS(Int)=  0.00000590
 Variable       Old X    -DE/DX   Delta X   Delta X   Delta X     New X
                                 (Linear)    (Quad)   (Total)
    R1        3.33378   0.00030  -0.00144   0.00147   0.00003   3.33381
    R2        2.07279   0.00012  -0.00073   0.00061  -0.00012   2.07267
    R3        2.07076   0.00019  -0.00108   0.00076  -0.00032   2.07044
    R4        2.06992   0.00017  -0.00101   0.00056  -0.00045   2.06947
    R5        2.73656  -0.00039   0.00069  -0.00035   0.00034   2.73690
    R6        2.71897   0.00021  -0.00030   0.00012  -0.00019   2.71879
    R7        3.05410  -0.00011  -0.00006  -0.00001  -0.00006   3.05404
    R8        1.84027  -0.00020   0.00093  -0.00053   0.00040   1.84067
    A1        1.85787   0.00032  -0.00356   0.00273  -0.00084   1.85703
    A2        1.88903   0.00003  -0.00078   0.00039  -0.00040   1.88862
    A3        1.90190  -0.00027   0.00475  -0.00225   0.00250   1.90440
    A4        1.92754  -0.00010  -0.00096  -0.00027  -0.00124   1.92631
    A5        1.93578  -0.00004   0.00017  -0.00026  -0.00008   1.93570
    A6        1.94868   0.00005   0.00029  -0.00021   0.00007   1.94875
    A7        1.91910  -0.00003  -0.00214   0.00196  -0.00018   1.91892
    A8        1.89461   0.00013  -0.00341   0.00161  -0.00180   1.89281
    A9        1.73942   0.00009  -0.00076   0.00271   0.00195   1.74137
   A10        2.12241  -0.00008   0.00334  -0.00231   0.00102   2.12342
   A11        1.85451   0.00012  -0.00041  -0.00001  -0.00041   1.85410
   A12        1.89459  -0.00020   0.00284  -0.00314  -0.00030   1.89430
   A13        1.87213   0.00001  -0.00110   0.00044  -0.00066   1.87147
    D1        1.24173  -0.00010   0.01347  -0.00267   0.01080   1.25253
    D2       -1.11853  -0.00007   0.01368  -0.00256   0.01111  -1.10742
    D3       -3.09820   0.00006   0.01199  -0.00081   0.01117  -3.08702
    D4       -2.96928  -0.00002   0.01000  -0.00132   0.00869  -2.96059
    D5        0.95365   0.00000   0.01021  -0.00121   0.00900   0.96265
    D6       -1.02602   0.00014   0.00852   0.00054   0.00906  -1.01696
    D7       -0.84693  -0.00010   0.01271  -0.00269   0.01003  -0.83690
    D8        3.07600  -0.00007   0.01292  -0.00258   0.01034   3.08634
    D9        1.09633   0.00007   0.01123  -0.00083   0.01040   1.10674
   D10       -2.16056   0.00021   0.01094   0.00340   0.01434  -2.14621
   D11       -0.16700   0.00024   0.00818   0.00660   0.01478  -0.15222
   D12        2.14295   0.00009   0.01410   0.00147   0.01557   2.15852
         Item               Value     Threshold  Converged?
 Maximum Force            0.000388     0.000450     YES
 RMS     Force            0.000161     0.000300     YES
 Maximum Displacement     0.012608     0.001800     NO 
 RMS     Displacement     0.005590     0.001200     NO 
 Predicted change in Energy=-3.114172D-06
 GradGradGradGradGradGradGradGradGradGradGradGradGradGradGradGradGradGrad

                          Input orientation:                          
 ---------------------------------------------------------------------
 Center     Atomic      Atomic             Coordinates (Angstroms)
 Number     Number       Type             X           Y           Z
 ---------------------------------------------------------------------
      1          6           0       -1.095259    0.097878   -0.251457
      2         16           0        0.581027    0.359413    0.232252
      3          8           0        0.715036    0.185515    1.663818
      4          8           0        1.068798    1.537385   -0.434365
      5          8           0        1.267802   -0.936543   -0.446502
      6          1           0       -1.661412    0.963708    0.112959
      7          1           0       -1.132579    0.050828   -1.345439
      8          1           0       -1.460059   -0.828057    0.205542
      9          1           0        1.716647   -1.430128    0.263192
 ---------------------------------------------------------------------
                    Distance matrix (angstroms):
                    1          2          3          4          5
     1  C    0.000000
     2  S    1.764175   0.000000
     3  O    2.636878   1.448303   0.000000
     4  O    2.605528   1.438720   2.520927   0.000000
     5  O    2.586915   1.616128   2.453164   2.481949   0.000000
     6  H    1.096809   2.325497   2.942491   2.843011   3.536134
     7  H    1.095629   2.349634   3.533759   2.808197   2.746784
     8  H    1.095118   2.361532   2.808013   3.521351   2.806806
     9  H    3.241370   2.119681   2.361203   3.116476   0.974039
                    6          7          8          9
     6  H    0.000000
     7  H    1.799982   0.000000
     8  H    1.805418   1.812519   0.000000
     9  H    4.142982   3.591519   3.233771   0.000000
 Stoichiometry    CH4O3S
 Framework group  C1[X(CH4O3S)]
 Deg. of freedom    21
 Full point group                 C1      NOp   1
 Largest Abelian subgroup         C1      NOp   1
 Largest concise Abelian subgroup C1      NOp   1
                         Standard orientation:                         
 ---------------------------------------------------------------------
 Center     Atomic      Atomic             Coordinates (Angstroms)
 Number     Number       Type             X           Y           Z
 ---------------------------------------------------------------------
      1          6           0       -1.592850   -0.402846    0.036590
      2         16           0        0.084695    0.142589    0.062191
      3          8           0        0.650318   -0.060871    1.379863
      4          8           0        0.159715    1.415827   -0.603505
      5          8           0        0.751788   -0.976949   -0.893576
      6          1           0       -2.165351    0.328969    0.619409
      7          1           0       -1.934008   -0.412141   -1.004528
      8          1           0       -1.653467   -1.397566    0.490617
      9          1           0        1.460226   -1.407680   -0.382362
 ---------------------------------------------------------------------
 Rotational constants (GHZ):           4.8118395           4.5502360           4.4190028
 Standard basis: def2SVP (5D, 7F)
 There are    99 symmetry adapted cartesian basis functions of A   symmetry.
 There are    94 symmetry adapted basis functions of A   symmetry.
    94 basis functions,   165 primitive gaussians,    99 cartesian basis functions
    25 alpha electrons       25 beta electrons
       nuclear repulsion energy       280.5423775754 Hartrees.
 NAtoms=    9 NActive=    9 NUniq=    9 SFac= 1.00D+00 NAtFMM=   60 NAOKFM=F Big=F
 Integral buffers will be    131072 words long.
 Raffenetti 2 integral format.
 Two-electron integral symmetry is turned on.
 One-electron integrals computed using PRISM.
   1 Symmetry operations used in ECPInt.
 ECPInt:  NShTT=     990 NPrTT=    3828 LenC2=     987 LenP2D=    3190.
 LDataN:  DoStor=T MaxTD1= 4 Len=   56
 NBasis=    94 RedAO= T EigKep=  4.86D-03  NBF=    94
 NBsUse=    94 1.00D-06 EigRej= -1.00D+00 NBFU=    94
 Initial guess from the checkpoint file:  "pka_scale_frag2_pka_HA_opt.chk"
 B after Tr=    -0.000000    0.000000   -0.000000
         Rot=    0.999990   -0.003161    0.000037   -0.003119 Ang=  -0.51 deg.
 Keep R1 ints in memory in canonical form, NReq=69070382.
 Requested convergence on RMS density matrix=1.00D-08 within 128 cycles.
 Requested convergence on MAX density matrix=1.00D-06.
 Requested convergence on             energy=1.00D-06.
 No special actions if energy rises.
 SCF Done:  E(RMN15) =  -663.543643516     A.U. after    9 cycles
            NFock=  9  Conv=0.47D-08     -V/T= 2.0050
   1 Symmetry operations used in ECPInt.
 ECPInt:  NShTT=     990 NPrTT=    3828 LenC2=     987 LenP2D=    3190.
 LDataN:  DoStor=T MaxTD1= 5 Len=  102
 Calling FoFJK, ICntrl=      2127 FMM=F ISym2X=0 I1Cent= 0 IOpClX= 0 NMat=1 NMatS=1 NMatT=0.
 ***** Axes restored to original set *****
 -------------------------------------------------------------------
 Center     Atomic                   Forces (Hartrees/Bohr)
 Number     Number              X              Y              Z
 -------------------------------------------------------------------
      1        6          -0.000159577    0.000443004   -0.000000431
      2       16          -0.000080793   -0.000786097    0.000898215
      3        8           0.000031620    0.000321811   -0.000587077
      4        8           0.000339143    0.000110449   -0.000175201
      5        8           0.000444647    0.000241022    0.000196719
      6        1          -0.000269659    0.000016200    0.000078137
      7        1          -0.000022984   -0.000030162   -0.000323775
      8        1           0.000130341   -0.000350616    0.000193946
      9        1          -0.000412737    0.000034389   -0.000280533
 -------------------------------------------------------------------
 Cartesian Forces:  Max     0.000898215 RMS     0.000342525

 GradGradGradGradGradGradGradGradGradGradGradGradGradGradGradGradGradGrad
 Berny optimization.
 Using GEDIIS/GDIIS optimizer.
 FormGI is forming the generalized inverse of G from B-inverse, IUseBI=4.
 Internal  Forces:  Max     0.000615472 RMS     0.000239064
 Search for a local minimum.
 Step number   6 out of a maximum of   43
 All quantities printed in internal units (Hartrees-Bohrs-Radians)
 Mixed Optimization -- En-DIIS/RFO-DIIS
 Swapping is turned off.
 Update second derivatives using D2CorX and points    1    2    3    4    5
                                                      6
 DE= -3.12D-06 DEPred=-3.11D-06 R= 1.00D+00
 TightC=F SS=  1.41D+00  RLast= 4.01D-02 DXNew= 5.3429D-01 1.2015D-01
 Trust test= 1.00D+00 RLast= 4.01D-02 DXMaxT set to 3.18D-01
 ITU=  1  1  1  1  1  0
     Eigenvalues ---    0.00260   0.01219   0.06169   0.06510   0.10213
     Eigenvalues ---    0.11667   0.15612   0.16008   0.16172   0.17660
     Eigenvalues ---    0.20129   0.24719   0.25833   0.30152   0.34638
     Eigenvalues ---    0.34813   0.38491   0.49328   0.54287   0.98275
     Eigenvalues ---    0.99650
 En-DIIS/RFO-DIIS/Sim-DIIS IScMMF=       -3 using points:     6    5    4    3    2
 RFO step:  Lambda=-9.75456561D-06.
 DIIS inversion failure, remove point   5.
 DIIS inversion failure, remove point   4.
 DIIS inversion failure, remove point   3.
 RFO-DIIS uses    2 points instead of    5
 DidBck=F Rises=F RFO-DIIS coefs:    1.50953   -0.50953    0.00000    0.00000    0.00000
 Iteration  1 RMS(Cart)=  0.00360564 RMS(Int)=  0.00003007
 Iteration  2 RMS(Cart)=  0.00002702 RMS(Int)=  0.00000037
 Iteration  3 RMS(Cart)=  0.00000000 RMS(Int)=  0.00000037
 Variable       Old X    -DE/DX   Delta X   Delta X   Delta X     New X
                                 (Linear)    (Quad)   (Total)
    R1        3.33381   0.00031   0.00002   0.00112   0.00113   3.33494
    R2        2.07267   0.00018  -0.00006   0.00021   0.00015   2.07281
    R3        2.07044   0.00033  -0.00016   0.00050   0.00033   2.07077
    R4        2.06947   0.00033  -0.00023   0.00053   0.00030   2.06977
    R5        2.73690  -0.00062   0.00017  -0.00051  -0.00034   2.73656
    R6        2.71879   0.00029  -0.00009   0.00032   0.00022   2.71901
    R7        3.05404  -0.00017  -0.00003  -0.00032  -0.00035   3.05369
    R8        1.84067  -0.00041   0.00020  -0.00033  -0.00012   1.84054
    A1        1.85703   0.00037  -0.00043   0.00236   0.00193   1.85896
    A2        1.88862   0.00005  -0.00021   0.00026   0.00005   1.88868
    A3        1.90440  -0.00046   0.00127  -0.00220  -0.00093   1.90346
    A4        1.92631  -0.00006  -0.00063   0.00022  -0.00041   1.92590
    A5        1.93570   0.00001  -0.00004  -0.00027  -0.00031   1.93539
    A6        1.94875   0.00010   0.00004  -0.00027  -0.00024   1.94852
    A7        1.91892   0.00001  -0.00009  -0.00037  -0.00047   1.91845
    A8        1.89281   0.00035  -0.00092   0.00082  -0.00010   1.89272
    A9        1.74137  -0.00005   0.00100  -0.00055   0.00045   1.74182
   A10        2.12342  -0.00019   0.00052  -0.00005   0.00047   2.12389
   A11        1.85410   0.00016  -0.00021   0.00114   0.00093   1.85503
   A12        1.89430  -0.00027  -0.00015  -0.00112  -0.00127   1.89303
   A13        1.87147   0.00007  -0.00033   0.00029  -0.00004   1.87143
    D1        1.25253  -0.00013   0.00550  -0.00417   0.00134   1.25387
    D2       -1.10742  -0.00018   0.00566  -0.00448   0.00118  -1.10624
    D3       -3.08702   0.00003   0.00569  -0.00327   0.00242  -3.08460
    D4       -2.96059   0.00002   0.00443  -0.00251   0.00192  -2.95867
    D5        0.96265  -0.00003   0.00459  -0.00282   0.00176   0.96441
    D6       -1.01696   0.00018   0.00462  -0.00161   0.00301  -1.01395
    D7       -0.83690  -0.00011   0.00511  -0.00400   0.00111  -0.83579
    D8        3.08634  -0.00015   0.00527  -0.00432   0.00095   3.08729
    D9        1.10674   0.00005   0.00530  -0.00311   0.00219   1.10893
   D10       -2.14621   0.00024   0.00731   0.00739   0.01469  -2.13152
   D11       -0.15222   0.00028   0.00753   0.00713   0.01466  -0.13756
   D12        2.15852  -0.00003   0.00793   0.00709   0.01503   2.17354
         Item               Value     Threshold  Converged?
 Maximum Force            0.000615     0.000450     NO 
 RMS     Force            0.000239     0.000300     YES
 Maximum Displacement     0.014173     0.001800     NO 
 RMS     Displacement     0.003611     0.001200     NO 
 Predicted change in Energy=-4.879141D-06
 GradGradGradGradGradGradGradGradGradGradGradGradGradGradGradGradGradGrad

                          Input orientation:                          
 ---------------------------------------------------------------------
 Center     Atomic      Atomic             Coordinates (Angstroms)
 Number     Number       Type             X           Y           Z
 ---------------------------------------------------------------------
      1          6           0       -1.094488    0.097688   -0.251098
      2         16           0        0.582225    0.360655    0.232544
      3          8           0        0.716009    0.186153    1.663877
      4          8           0        1.068755    1.539352   -0.433951
      5          8           0        1.270896   -0.933116   -0.448015
      6          1           0       -1.662938    0.962746    0.111804
      7          1           0       -1.131765    0.049077   -1.345190
      8          1           0       -1.457841   -0.828458    0.207005
      9          1           0        1.709147   -1.434098    0.263024
 ---------------------------------------------------------------------
                    Distance matrix (angstroms):
                    1          2          3          4          5
     1  C    0.000000
     2  S    1.764774   0.000000
     3  O    2.636827   1.448123   0.000000
     4  O    2.606042   1.438838   2.521201   0.000000
     5  O    2.587736   1.615943   2.453722   2.480757   0.000000
     6  H    1.096886   2.327627   2.944726   2.844727   3.537665
     7  H    1.095806   2.350338   3.533772   2.809549   2.746344
     8  H    1.095276   2.361463   2.806694   3.521510   2.808204
     9  H    3.235902   2.119439   2.360916   3.120461   0.973973
                    6          7          8          9
     6  H    0.000000
     7  H    1.799936   0.000000
     8  H    1.805419   1.812651   0.000000
     9  H    4.139889   3.585657   3.224864   0.000000
 Stoichiometry    CH4O3S
 Framework group  C1[X(CH4O3S)]
 Deg. of freedom    21
 Full point group                 C1      NOp   1
 Largest Abelian subgroup         C1      NOp   1
 Largest concise Abelian subgroup C1      NOp   1
                         Standard orientation:                         
 ---------------------------------------------------------------------
 Center     Atomic      Atomic             Coordinates (Angstroms)
[...]
 Vibration     4          0.703              1.644              1.332
 Vibration     5          0.784              1.422              0.885
 Vibration     6          0.842              1.281              0.694
 Vibration     7          0.877              1.200              0.604
                       Q            Log10(Q)             Ln(Q)
 Total Bot       0.434601D-15        -15.361909        -35.372102
 Total V=0       0.198645D+14         13.298078         30.619956
 Vib (Bot)       0.133249D-27        -27.875338        -64.185337
 Vib (Bot)    1  0.104158D+01          0.017693          0.040740
 Vib (Bot)    2  0.853030D+00         -0.069036         -0.158960
 Vib (Bot)    3  0.621993D+00         -0.206215         -0.474827
 Vib (Bot)    4  0.596994D+00         -0.224030         -0.515848
 Vib (Bot)    5  0.415497D+00         -0.381432         -0.878280
 Vib (Bot)    6  0.342406D+00         -0.465459         -1.071759
 Vib (Bot)    7  0.308323D+00         -0.510994         -1.176607
 Vib (V=0)       0.609045D+01          0.784649          1.806722
 Vib (V=0)    1  0.165537D+01          0.218896          0.504028
 Vib (V=0)    2  0.148877D+01          0.172827          0.397948
 Vib (V=0)    3  0.129804D+01          0.113290          0.260859
 Vib (V=0)    4  0.127872D+01          0.106775          0.245858
 Vib (V=0)    5  0.115011D+01          0.060738          0.139854
 Vib (V=0)    6  0.110600D+01          0.043757          0.100754
 Vib (V=0)    7  0.108742D+01          0.036398          0.083809
 Electronic      0.100000D+01          0.000000          0.000000
 Translational   0.369641D+08          7.567780         17.425458
 Rotational      0.882366D+05          4.945649         11.387777
 ***** Axes restored to original set *****
 -------------------------------------------------------------------
 Center     Atomic                   Forces (Hartrees/Bohr)
 Number     Number              X              Y              Z
 -------------------------------------------------------------------
      1        6           0.000014645   -0.000017136    0.000011661
      2       16           0.000008287   -0.000050997   -0.000003678
      3        8          -0.000001162   -0.000004316   -0.000002648
      4        8           0.000005263    0.000041748   -0.000016733
      5        8          -0.000002238    0.000008675   -0.000000382
      6        1          -0.000010790    0.000006596   -0.000005226
      7        1          -0.000004744    0.000016259   -0.000001294
      8        1          -0.000013886    0.000004873    0.000001111
      9        1           0.000004626   -0.000005701    0.000017189
 -------------------------------------------------------------------
 Cartesian Forces:  Max     0.000050997 RMS     0.000015549
 FormGI is forming the generalized inverse of G from B-inverse, IUseBI=4.

 GradGradGradGradGradGradGradGradGradGradGradGradGradGradGradGradGradGrad
 Berny optimization.
 Internal  Forces:  Max     0.000044034 RMS     0.000013242
 Search for a local minimum.
 Step number   1 out of a maximum of    2
 All quantities printed in internal units (Hartrees-Bohrs-Radians)
 Second derivative matrix not updated -- analytic derivatives used.
 ITU=  0
     Eigenvalues ---    0.00153   0.00252   0.03820   0.03938   0.08819
     Eigenvalues ---    0.09536   0.10565   0.11777   0.13157   0.15784
     Eigenvalues ---    0.18834   0.21574   0.23317   0.29465   0.35091
     Eigenvalues ---    0.36051   0.36379   0.36409   0.52917   0.70282
     Eigenvalues ---    0.73821
 Angle between quadratic step and forces=  68.62 degrees.
 Linear search not attempted -- first point.
 Iteration  1 RMS(Cart)=  0.00030876 RMS(Int)=  0.00000007
 Iteration  2 RMS(Cart)=  0.00000006 RMS(Int)=  0.00000001
 Variable       Old X    -DE/DX   Delta X   Delta X   Delta X     New X
                                 (Linear)    (Quad)   (Total)
    R1        3.33663   0.00001   0.00000   0.00001   0.00001   3.33664
    R2        2.07310   0.00001   0.00000   0.00003   0.00003   2.07313
    R3        2.07123   0.00000   0.00000   0.00001   0.00001   2.07124
    R4        2.07075   0.00000   0.00000  -0.00000  -0.00000   2.07074
    R5        2.73574  -0.00000   0.00000   0.00001   0.00001   2.73574
    R6        2.71811   0.00004   0.00000   0.00007   0.00007   2.71817
    R7        3.05234  -0.00001   0.00000  -0.00005  -0.00005   3.05229
    R8        1.83946   0.00002   0.00000   0.00004   0.00004   1.83950
    A1        1.86173   0.00001   0.00000  -0.00007  -0.00007   1.86165
    A2        1.88982  -0.00000   0.00000   0.00001   0.00001   1.88983
    A3        1.89976   0.00002   0.00000   0.00025   0.00025   1.90001
    A4        1.92840  -0.00001   0.00000  -0.00022  -0.00022   1.92818
    A5        1.93332  -0.00001   0.00000  -0.00007  -0.00007   1.93324
    A6        1.94802  -0.00000   0.00000   0.00011   0.00011   1.94812
    A7        1.91330  -0.00001   0.00000  -0.00001  -0.00001   1.91329
    A8        1.89475  -0.00002   0.00000  -0.00013  -0.00013   1.89462
    A9        1.74870   0.00003   0.00000   0.00018   0.00018   1.74888
   A10        2.12755   0.00001   0.00000  -0.00001  -0.00001   2.12754
   A11        1.85647  -0.00002   0.00000  -0.00010  -0.00010   1.85637
   A12        1.88481   0.00001   0.00000   0.00011   0.00011   1.88492
   A13        1.87508  -0.00001   0.00000  -0.00016  -0.00016   1.87492
    D1        1.23187   0.00000   0.00000  -0.00027  -0.00027   1.23160
    D2       -1.13060   0.00001   0.00000  -0.00014  -0.00014  -1.13074
    D3       -3.10357  -0.00000   0.00000  -0.00030  -0.00030  -3.10387
    D4       -2.97564  -0.00001   0.00000  -0.00056  -0.00056  -2.97620
    D5        0.94508   0.00000   0.00000  -0.00043  -0.00043   0.94465
    D6       -1.02789  -0.00001   0.00000  -0.00059  -0.00059  -1.02848
    D7       -0.85489  -0.00000   0.00000  -0.00028  -0.00028  -0.85517
    D8        3.06582   0.00001   0.00000  -0.00015  -0.00015   3.06568
    D9        1.09285  -0.00000   0.00000  -0.00030  -0.00030   1.09255
   D10       -2.01778  -0.00000   0.00000  -0.00039  -0.00039  -2.01816
   D11       -0.02622  -0.00000   0.00000  -0.00036  -0.00036  -0.02658
   D12        2.28479  -0.00000   0.00000  -0.00036  -0.00036   2.28444
         Item               Value     Threshold  Converged?
 Maximum Force            0.000044     0.000450     YES
 RMS     Force            0.000013     0.000300     YES
 Maximum Displacement     0.000849     0.001800     YES
 RMS     Displacement     0.000309     0.001200     YES
 Predicted change in Energy=-1.893541D-08
 Optimization completed.
    -- Stationary point found.
                           ----------------------------
                           !   Optimized Parameters   !
                           ! (Angstroms and Degrees)  !
 --------------------------                            --------------------------
 ! Name  Definition              Value          Derivative Info.                !
 --------------------------------------------------------------------------------
 ! R1    R(1,2)                  1.7657         -DE/DX =    0.0                 !
 ! R2    R(1,6)                  1.097          -DE/DX =    0.0                 !
 ! R3    R(1,7)                  1.096          -DE/DX =    0.0                 !
 ! R4    R(1,8)                  1.0958         -DE/DX =    0.0                 !
 ! R5    R(2,3)                  1.4477         -DE/DX =    0.0                 !
 ! R6    R(2,4)                  1.4384         -DE/DX =    0.0                 !
 ! R7    R(2,5)                  1.6152         -DE/DX =    0.0                 !
 ! R8    R(5,9)                  0.9734         -DE/DX =    0.0                 !
 ! A1    A(2,1,6)              106.669          -DE/DX =    0.0                 !
 ! A2    A(2,1,7)              108.2784         -DE/DX =    0.0                 !
 ! A3    A(2,1,8)              108.8479         -DE/DX =    0.0                 !
 ! A4    A(6,1,7)              110.4894         -DE/DX =    0.0                 !
 ! A5    A(6,1,8)              110.771          -DE/DX =    0.0                 !
 ! A6    A(7,1,8)              111.6131         -DE/DX =    0.0                 !
 ! A7    A(1,2,3)              109.6239         -DE/DX =    0.0                 !
 ! A8    A(1,2,4)              108.5613         -DE/DX =    0.0                 !
 ! A9    A(1,2,5)              100.193          -DE/DX =    0.0                 !
 ! A10   A(3,2,4)              121.8997         -DE/DX =    0.0                 !
 ! A11   A(3,2,5)              106.3676         -DE/DX =    0.0                 !
 ! A12   A(4,2,5)              107.9916         -DE/DX =    0.0                 !
 ! A13   A(2,5,9)              107.4342         -DE/DX =    0.0                 !
 ! D1    D(6,1,2,3)             70.5809         -DE/DX =    0.0                 !
 ! D2    D(6,1,2,4)            -64.7785         -DE/DX =    0.0                 !
 ! D3    D(6,1,2,5)           -177.8217         -DE/DX =    0.0                 !
 ! D4    D(7,1,2,3)           -170.4914         -DE/DX =    0.0                 !
 ! D5    D(7,1,2,4)             54.1492         -DE/DX =    0.0                 !
 ! D6    D(7,1,2,5)            -58.894          -DE/DX =    0.0                 !
 ! D7    D(8,1,2,3)            -48.9818         -DE/DX =    0.0                 !
 ! D8    D(8,1,2,4)            175.6588         -DE/DX =    0.0                 !
 ! D9    D(8,1,2,5)             62.6156         -DE/DX =    0.0                 !
 ! D10   D(1,2,5,9)           -115.6101         -DE/DX =    0.0                 !
 ! D11   D(3,2,5,9)             -1.5025         -DE/DX =    0.0                 !
 ! D12   D(4,2,5,9)            130.9091         -DE/DX =    0.0                 !
 --------------------------------------------------------------------------------
 GradGradGradGradGradGradGradGradGradGradGradGradGradGradGradGradGradGrad


 ----------------------------------------------------------------------

 Electric dipole moment (input orientation):
 (Debye = 10**-18 statcoulomb cm , SI units = C m)
                  (au)            (Debye)         (10**-30 SI)
   Tot        0.142601D+01      0.362457D+01      0.120902D+02
   x         -0.918660D+00     -0.233500D+01     -0.778873D+01
   y         -0.106605D+01     -0.270964D+01     -0.903838D+01
   z         -0.230454D+00     -0.585757D+00     -0.195387D+01

 Dipole polarizability, Alpha (input orientation).
 (esu units = cm**3 , SI units = C**2 m**2 J**-1)
 Alpha(0;0):
               (au)            (10**-24 esu)      (10**-40 SI)
   iso        0.343127D+02      0.508462D+01      0.565741D+01
   aniso      0.445218D+01      0.659745D+00      0.734066D+00
   xx         0.345200D+02      0.511534D+01      0.569158D+01
   yx        -0.627502D+00     -0.929862D-01     -0.103461D+00
   yy         0.344271D+02      0.510157D+01      0.567626D+01
   zx         0.127736D+01      0.189285D+00      0.210608D+00
   zy        -0.212183D+01     -0.314423D+00     -0.349842D+00
   zz         0.339911D+02      0.503696D+01      0.560437D+01

 ----------------------------------------------------------------------

 Dipole orientation:
     6         -1.09103345         -1.29956982          1.26708596
    16          0.14554343          0.41993723         -1.31114604
     8         -1.30623975          2.71097347         -1.66853216
     8          0.62696118         -1.30862608         -3.35281677
     8          2.83417042          1.27793604         -0.14843554
     1         -2.92356213         -2.05195618          0.65594709
     1          0.21733821         -2.84435539          1.70503952
     1         -1.32340434         -0.01744346          2.87647912
     1          2.82022644          3.11310419         -0.02362118

 Electric dipole moment (dipole orientation):
 (Debye = 10**-18 statcoulomb cm , SI units = C m)
                  (au)            (Debye)         (10**-30 SI)
   Tot        0.142601D+01      0.362457D+01      0.120902D+02
   x          0.000000D+00      0.000000D+00      0.000000D+00
   y          0.000000D+00      0.000000D+00      0.000000D+00
   z          0.142601D+01      0.362457D+01      0.120902D+02

 Dipole polarizability, Alpha (dipole orientation).
 (esu units = cm**3 , SI units = C**2 m**2 J**-1)
 Alpha(0;0):
               (au)            (10**-24 esu)      (10**-40 SI)
   iso        0.343127D+02      0.508462D+01      0.565741D+01
   aniso      0.445218D+01      0.659745D+00      0.734066D+00
   xx         0.324277D+02      0.480529D+01      0.534661D+01
   yx         0.772837D+00      0.114523D+00      0.127424D+00
   yy         0.369073D+02      0.546910D+01      0.608520D+01
   zx        -0.716555D+00     -0.106182D+00     -0.118144D+00
   zy         0.319735D+00      0.473799D-01      0.527172D-01
   zz         0.336031D+02      0.497947D+01      0.554041D+01

 ----------------------------------------------------------------------
 1\1\GINC-CHPC-CN078\Freq\RMN15\def2SVP\C1H4O3S1\S1155246976\10-Jun-202
 6\0\\#N Geom=AllCheck Guess=TCheck SCRF=Check GenChk RMN15/def2SVP Fre
 q\\Gaussian pKa calculation job\\0,1\C,-1.088152038,0.0949457545,-0.25
 05319596\S,0.5886090636,0.3714511215,0.2286386812\O,0.7193132558,0.202
 2733816,1.6604549118\O,1.0691212439,1.548145591,-0.4446968061\O,1.2949
 207144,-0.9139804432,-0.4479347655\H,-1.668153671,0.9453521157,0.12880
 44988\H,-1.1313742773,0.0588087344,-1.345131851\H,-1.4345407049,-0.842
 7964541,0.198259866\H,1.6502564136,-1.4641998014,0.2721374244\\Version
 =ES64L-G16RevB.01\State=1-A\HF=-663.5436846\RMSD=3.749e-09\RMSF=1.555e
 -05\ZeroPoint=0.0623087\Thermal=0.068085\Dipole=-0.9186602,-1.0660534,
 -0.2304544\DipoleDeriv=-0.2983013,-0.0180389,-0.0473392,-0.0513286,-0.
 1417552,-0.0110355,-0.0741738,-0.0035691,-0.1594645,2.2182809,-0.06140
 62,0.0406349,-0.080825,2.3141659,-0.0541308,-0.0007145,0.0161947,2.122
 959,-0.7215405,0.0084299,-0.1262413,0.0321412,-0.6552089,0.1239946,-0.
 140028,-0.0433439,-1.1491277,-0.7967625,-0.2010105,0.0449756,-0.222313
 8,-0.9512315,0.1453537,0.092894,0.2320556,-0.6878502,-0.8719415,0.3298
 035,0.0999872,0.4130056,-1.1276302,-0.1911535,0.1167029,-0.1741393,-0.
 5448584,0.0461699,0.0195414,-0.0004228,0.0158983,0.0452183,-0.033878,-
 0.0011421,-0.0302834,0.0910841,0.0372357,-0.0097296,-0.0074034,-0.0193
 388,0.104279,-0.0009,-0.0094757,-0.0027717,0.0177676,0.0300066,-0.0228
 666,-0.012259,-0.0309315,0.0238672,0.0355799,-0.0132067,0.0399031,0.07
 25885,0.3568527,-0.0447229,0.008068,-0.0563073,0.3882954,-0.0138304,0.
 0291439,-0.0340459,0.2369015\Polar=34.5200092,-0.6275017,34.4271011,1.
 277356,-2.1218298,33.9910814\Quadrupole=3.3977595,0.3626545,-3.760414,
 -2.4277115,1.5940082,-0.1643724\PG=C01 [X(C1H4O3S1)]\NImag=0\\0.423788
 42,-0.02025392,0.60819479,-0.05149436,-0.01308305,0.59886715,-0.170315
 69,-0.02288837,-0.03238284,0.57741727,-0.01862008,-0.06902708,-0.00288
 287,0.10425568,0.86010846,-0.02803227,-0.00490066,-0.07843253,-0.02564
 937,-0.25281230,1.04005611,0.00465294,0.00031119,-0.03000541,-0.102084
 79,0.00697225,-0.06193806,0.06468211,-0.00278624,0.00910906,-0.0030341
 5,0.00720712,-0.10163131,0.06310515,-0.00451966,0.07397250,0.00355196,
 0.00227461,-0.01431499,-0.05529809,0.06844716,-0.63532639,0.05873689,-
 0.06194619,0.68761649,-0.00420934,-0.02909508,0.01486466,-0.16868319,-
 0.17643184,0.09687464,0.02168424,0.00124525,-0.00347757,0.14017640,-0.
 00267274,-0.00707322,0.01104014,-0.17267352,-0.48060403,0.23292303,-0.
 00412463,0.00625016,-0.00082932,0.18902560,0.51280027,-0.00548502,-0.0
 0009813,0.00857528,0.09350835,0.22944214,-0.22270533,0.01469422,0.0353
 5114,-0.00888545,-0.10533968,-0.25449295,0.20772083,-0.01344371,0.0272
 8924,0.01194581,-0.11059502,0.07032009,0.03414491,0.01463068,0.0029615
 5,0.00556766,0.01545451,0.00056987,0.00106526,0.16626726,0.00424589,-0
 .00620789,-0.00623642,0.06617787,-0.17790530,-0.06196192,0.00639480,0.
 00403946,-0.00922439,0.01553634,-0.02820301,-0.00719435,-0.20980437,0.
 37720339,-0.00483506,0.00122020,0.00919524,0.01603625,-0.03191799,-0.1
 1874623,0.02022896,-0.03577930,-0.02203174,-0.00038484,0.01760796,0.01
 364266,0.09109225,-0.13489251,0.42066993,-0.12589337,0.12201750,0.0552
 0615,-0.01237379,0.02450884,0.01232555,0.00194334,-0.00251216,-0.00118
 480,0.00208776,-0.00299909,-0.00123016,-0.00625697,0.00252543,-0.00187
 452,0.13262518,0.12220957,-0.22471177,-0.08063707,-0.00262125,0.002747
 33,0.00193983,0.00013819,-0.00015151,0.00067549,0.00004197,-0.00049097
 ,-0.00018879,-0.00156631,0.00221758,-0.00033921,-0.13038531,0.23307384
 ,0.05514550,-0.08051030,-0.07978978,-0.00414265,0.00713222,0.00222122,
 0.00074931,-0.00089743,-0.00087807,0.00057965,0.00033653,-0.00063414,-
 0.00293961,0.00065985,0.00080309,-0.05765624,0.08584928,0.07907503,-0.
 04215075,-0.00102534,-0.00917270,0.00186072,-0.00043529,-0.03164897,-0
 .00763098,-0.00060764,-0.00474283,0.00079202,0.00079324,0.00386803,0.0
 0083043,-0.00005951,0.00318217,0.00199671,-0.00132654,0.01641311,0.043
 22694,-0.00104483,-0.04524930,-0.00953641,0.00109333,-0.00117628,-0.00
 406495,-0.00069267,0.00153233,-0.00037175,-0.00010052,-0.00061609,0.00
 097262,0.00004831,-0.00091732,-0.00000176,-0.00371761,0.00079085,-0.02
 170409,0.00091822,0.04190048,-0.01044851,-0.00971166,-0.34549287,0.001
 55677,0.00039293,-0.00904301,-0.00136208,-0.00036808,0.00114319,0.0005
 6766,0.00018003,0.00179215,0.00031080,-0.00004700,0.00136427,-0.001782
 78,0.00198778,-0.00516246,0.01238832,0.01058028,0.36157527,-0.07100600
 ,-0.07941336,0.03869378,-0.00627956,-0.02707183,0.01483371,0.00190576,
 0.00366422,-0.00062139,-0.00787152,-0.00362765,-0.00145185,0.00210107,
 0.00273110,-0.00129509,0.00704359,0.01399109,-0.00816080,0.00053470,0.
 00351342,-0.00135958,0.07428621,-0.08068385,-0.26589752,0.10596993,0.0
 0110009,-0.00501621,0.00239664,0.00073944,0.00105101,-0.00087508,-0.00
 049186,0.00184652,-0.00024988,0.00040668,0.00056420,-0.00046703,-0.009
 08503,-0.01337616,0.00908919,0.00208470,0.00378438,-0.00308597,0.08603
 492,0.27688094,0.03952332,0.10679727,-0.09635184,-0.00171849,-0.007775
 28,0.00238263,0.00039238,0.00069123,-0.00073564,-0.00305598,-0.0010950
 9,0.00157292,0.00033264,-0.00055653,-0.00074533,-0.00479027,-0.0095240
 5,0.00407977,0.01000512,0.02412718,-0.00606243,-0.04077166,-0.11280162
 ,0.09571270,-0.00142251,0.00305814,0.00234490,-0.00894596,0.01650218,-
 0.01091013,0.00021671,-0.00465245,-0.00253184,0.00056912,-0.00429108,0
 .00037086,-0.06898825,0.11225244,-0.12215012,-0.00117245,-0.00048142,0
 .00001173,0.00054020,-0.00001765,0.00012939,-0.00071426,-0.00010509,0.
 00008294,0.07991739,-0.00039380,0.00086292,-0.00160010,0.01834904,-0.0
 2749558,0.02337517,-0.00521892,0.00582828,0.00184946,0.00027014,-0.003
 90963,-0.00354181,0.10977493,-0.17079111,0.18456964,-0.00035257,-0.000
 09920,0.00004473,-0.00034183,-0.00004906,0.00007168,0.00017809,0.00016
 283,0.00013690,-0.12226507,0.19549055,0.00207444,-0.00198829,-0.002255
 66,0.00809006,-0.01002602,0.01959353,-0.00149620,0.00287763,-0.0065874
 1,-0.00062855,-0.00567034,-0.00107891,-0.14151972,0.21945327,-0.304151
 90,0.00098707,0.00023674,0.00028534,-0.00029224,-0.00000114,-0.0001141
 2,0.00013289,0.00002382,0.00014721,0.13265227,-0.20490567,0.29416191\\
 -0.00001464,0.00001714,-0.00001166,-0.00000829,0.00005100,0.00000368,0
 .00000116,0.00000432,0.00000265,-0.00000526,-0.00004175,0.00001673,0.0
 0000224,-0.00000867,0.00000038,0.00001079,-0.00000660,0.00000523,0.000
 00474,-0.00001626,0.00000129,0.00001389,-0.00000487,-0.00000111,-0.000
 00463,0.00000570,-0.00001719\\\@


 NEVER TEACH A PIG TO SING.
 IT WASTES YOUR TIME AND ANNOYS THE PIG.
     -- SEEN ON A GREETING CARD
 Job cpu time:       0 days  0 hours  6 minutes  0.8 seconds.
 Elapsed time:       0 days  0 hours  0 minutes  6.0 seconds.
 File lengths (MBytes):  RWF=     15 Int=      0 D2E=      0 Chk=      2 Scr=      1
 Normal termination of Gaussian 16 at Wed Jun 10 15:26:38 2026.
