
                                 *****************
                                 * O   R   C   A *
                                 *****************

                                            #,                                       
                                            ###                                      
                                            ####                                     
                                            #####                                    
                                            ######                                   
                                           ########,                                 
                                     ,,################,,,,,                         
                               ,,#################################,,                 
                          ,,##########################################,,             
                       ,#########################################, ''#####,          
                    ,#############################################,,   '####,        
                  ,##################################################,,,,####,       
                ,###########''''           ''''###############################       
              ,#####''   ,,,,##########,,,,          '''####'''          '####       
            ,##' ,,,,###########################,,,                        '##       
           ' ,,###''''                  '''############,,,                           
         ,,##''                                '''############,,,,        ,,,,,,###''
      ,#''                                            '''#######################'''  
     '                                                          ''''####''''         
             ,#######,   #######,   ,#######,      ##                                
            ,#'     '#,  ##    ##  ,#'     '#,    #''#        ,####,    ,#,          
            ##       ##  ##   ,#'  ##            #'  '#       #'       ,# #          
            ##       ##  #######   ##           ,######,      #####,      #          
            '#,     ,#'  ##    ##  '#,     ,#' ,#      #,     #,   #      #          
             '#######'   ##     ##  '#######'  #'      '#     '####' #    #          



                #########################################################
                #                        -***-                          #
                #          Department of theory and spectroscopy        #
                #                                                       #
                #                      Frank Neese                      #
                #                                                       #
                #     Directorship, Architecture, Infrastructure        #
                #                    SHARK, DRIVERS                     #
                #        Core code/Algorithms in most modules           #
                #                                                       #
                #        Max Planck Institute fuer Kohlenforschung      #
                #                Kaiser Wilhelm Platz 1                 #
                #                 D-45470 Muelheim/Ruhr                 #
                #                      Germany                          #
                #                                                       #
                #                  All rights reserved                  #
                #                        -***-                          #
                #########################################################


                         Program Version 6.1.0  -  RELEASE   -
                                (GIT: $679e74b$)
                          ($2025-06-10 18:02:51 +0200$)


 With contributions from (in alphabetic order):
[Max-Planck-Institut fuer Kohlenforschung]                               
  Daniel Aravena         : Magnetic Suceptibility                        
  Michael Atanasov       : Ab Initio Ligand Field Theory (pilot matlab implementation)
  Alexander A. Auer      : GIAO ZORA, VPT2 properties, NMR spectrum      
  Ute Becker             : All parallelization in ORCA, NUMFREQ, NUMCALC 
  Giovanni Bistoni       : ED, misc. LED, open-shell LED, HFLD           
  Dmytro Bykov           : pre 5.0 version of the SCF Hessian            
  Marcos Casanova-Páez   : Triplet and SCS-CIS(D). UHF-(DLPNO)-IP/EA/STEOM-CCSD. UHF-CVS-IP/STEOM-CCSD   
  Vijay G. Chilkuri      : MRCI spin determinant printing, contributions to CSF-ICE 
  Pauline Colinet        : FMM embedding                                 
  Dipayan Datta          : RHF DLPNO-CCSD density                        
  Achintya Kumar Dutta   : EOM-CC, STEOM-CC                              
  Nicolas Foglia         : Exact transition moments, OPA infrastructure, MCD improvements    
  Dmitry Ganyushin       : Spin-Orbit,Spin-Spin,Magnetic field MRCI      
  Miquel Garcia-Rates    : C-PCM and meta-GGA Hessian, CCSD/C-PCM, Gaussian charge scheme 
  Tiago L. C. Gouveia    : GS-ROHF, GS-ROCIS                             
  Yang Guo               : DLPNO-NEVPT2, F12-NEVPT2, CIM, IAO-localization        
  Andreas Hansen         : Spin unrestricted coupled pair/coupled cluster methods 
  Ingolf Harden          : AUTO-CI MPn and infrastructure                
  Benjamin Helmich-Paris : MC-RPA, TRAH-(SCF,CASSCF), AVAS, COSX integrals, SCF dyn. polar., MC-PDFT, srDFT 
  Lee Huntington         : MR-EOM, pCC                                   
  Robert Izsak           : Overlap fitted RIJCOSX, COSX-SCS-MP3, EOM     
  Riya Kayal             : Wick's Theorem for AUTO-CI, AUTO-CI UHF-CCSDT 
  Emily Kempfer          : AUTO-CI RHF CISDT and CCSDT, approximate NEVPT4
  Christian Kollmar      : KDIIS, OOCD, Brueckner-CCSD(T), CCSD density, CASPT2, CASPT2-K, improved NEVPT2 
  Axel Koslowski         : Symmetry handling                             
  Simone Kossmann        : meta-GGA functionals, TD-DFT gradient, OOMP2, (MP2 Hessian; deprecated post 5.0) 
  Lucas Lang             : DCDCAS, Hyperfine gauge corrections, ICE-SOC+SSC
  Marvin Lechner         : AUTO-CI (C++ implementation), FIC-MRCC        
  Spencer Leger          : CASSCF response                               
  Dagmar Lenk            : GEPOL surface, SMD, ORCA-2-JSON               
  Dimitrios Liakos       : Extrapolation schemes; Compound Job, Property file
  Dimitrios Manganas     : Further ROCIS development; embedding schemes. LFT, Crystal Embedding 
  Dimitrios Pantazis     : SARC Basis sets                               
  Anastasios Papadopoulos: AUTO-CI, single reference methods and gradients 
  Taras Petrenko         : pre 6.0 DFT Hessian and TD-DFT gradient,  ECA, NRVS 
  Petra Pikulova         : Analytic Raman intensities                    
  Peter Pinski           : DLPNO-MP2, DLPNO-MP2 Gradient                 
  Shashank Vittal Rao    : ES-AILFT, MagRelax                            
  Christoph Reimann      : Effective Core Potentials                     
  Marius Retegan         : Local ZFS, SOC                                
  Christoph Riplinger    : Optimizer, TS searches, QM/MM, DLPNO-CCSD(T), (RO)-DLPNO pert. Triples 
  Michael Roemelt        : Original ROCIS implementation, recursive CI coupling coefficients
  Masaaki Saitow         : Open-shell DLPNO-CCSD energy and density      
  Barbara Sandhoefer     : DKH picture change effects                    
  Yorick L. A. Schmerwitz: GMF and freeze-and-release deltaSCF, NEB S-IDPP initial path                    
  Kantharuban Sivalingam : CASSCF convergence/infrastructure, NEVPT2, NEVPT3, NEVPT4(SD), FIC-MRCI and CEPA variants
  Bernardo de Souza      : ESD, SOC TD-DFT                               
  Georgi L. Stoychev     : AutoAux, RI-MP2 NMR, DLPNO-MP2 response, X2C  
  Van Anh Tran           : RI-MP2 g-tensors                              
  Willem Van den Heuvel  : Paramagnetic NMR                              
  Zikuan Wang            : NOTCH, Electric field optimization            
  Frank Wennmohs         : Technical directorship and infrastructure     
  Hang Xu                : AUTO-CI-Response properties                   
                                                                         
[FACCTs GmbH]                                                            
  Markus Bursch, Nicolas Foglia, Miquel Garcia-Rates, Ingolf Harden, Hagen Neugebauer, Anastasios Papadopoulos, 
  Christoph Riplinger, Bernardo de Souza, Georgi L. Stoychev                                                    
                                                                 
  APM, various basis sets, CI-OPT, improved COSX, DLPNO-Multilevel,           
  DOCKER, DRACO, updates on ESD, Fragmentator, GOAT, IRC, LR-CPCM, L-BFGS, MBIS, meta-GGA TD-DFT gradient, ML-optimized integration grids, 
  MM, NACMEs, nearIR, NEB, NEB-TS, NL-DFT gradient (VV10), 2- and 3-layer-ONIOM, interface openCOSMO-RS, QMMM,   
  Crystal-QMMM, RESP, rigid body optimization, SF, symmetry and pop. for TD-DFT, various functionals, SOLVATOR                                   
                                                                         
[Other institutions]                                                     
  V. Asgeirsson          : NEB                                           
  Christoph Bannwarth    : sTDA-DFT, sTD-DFT, PBEh-3c, B97-3c, D3        
  Giovanni Bistoni       : ETS/NOCV, ADLD/ADEX, COVALED                  
  Martin Brehm           : Molecular dynamics                            
  Ronald Cardenas        : ETS/NOCV                                      
  Martina Colucci        : COVALED                                       
  Sebastian Ehlert       : rSCAN, r2SCAN, r2SCAN-3c, D4, dhf basis sets  
  Marvin Friede          : D4 for Fr, Ra, Ac-Lr                          
  Lars Goerigk           : TD-DFT with DH, B97 family of functionals     
  Stefan Grimme          : VdW corrections, initial TS optimization, DFT functionals, gCP, sTDA/sTD-DF 
  Waldemar Hujo          : DFT-NL                                        
  H. Jonsson             : NEB                                           
  Holger Kruse           : gCP                                           
  Marcel Mueller         : wB97X-3c, vDZP basis set                      
  Hagen Neugebauer       : wr2SCAN, Native XTB                           
  Gianluca Regni         : ADLD/ADEX                                     
  Tobias Risthaus        : pre 6.0 range-separated hybrid DFT and stability analysis
  Lukas Wittmann         : regularized MP2, r2SCAN double-hybrids, wr2SCAN        
                                                                         
We gratefully acknowledge several colleagues who have allowed us to      
interface, adapt or use parts of their codes:                            
  Ed Valeev, F. Pavosevic, A. Kumar             : LibInt (2-el integral package), F12 methods 
  Garnet Chan, S. Sharma, J. Yang, R. Olivares  : DMRG                   
  Ulf Ekstrom                                   : XCFun DFT Library      
  Mihaly Kallay                                 : mrcc  (arbitrary order and MRCC methods)
  Frank Weinhold                                : gennbo (NPA and NBO analysis)           
  Simon Mueller                                 : openCOSMO-RS                            
  Christopher J. Cramer and Donald G. Truhlar   : smd solvation model                     
  S Lehtola, MJT Oliveira, MAL Marques          : LibXC Library                           
  Liviu Ungur et al                             : ANISO software                          


 Your calculation uses the libint2 library for the computation of 2-el integrals
 For citations please refer to: http://libint.valeyev.net

 Your ORCA version has been built with support for libXC version: 7.0.0
 For citations please refer to: https://libxc.gitlab.io

 This ORCA versions uses:
   CBLAS   interface :  Fast vector & matrix operations
   LAPACKE interface :  Fast linear algebra routines
   SCALAPACK package :  Parallel linear algebra routines
   Shared memory     :  Shared parallel matrices
   BLAS/LAPACK       :  OpenBLAS 0.3.29  USE64BITINT DYNAMIC_ARCH NO_AFFINITY Cooperlake SINGLE_THREADED
        Core in use  :  Cooperlake
   Copyright (c) 2011-2014, The OpenBLAS Project


  ***********************************
  * Starting time: Wed Jun 10 15:49:31 2026
  * Host name:     chpc-cn081.rc.cuhk.edu.hk
  * Process ID:    206111
  * Working dir.:  /lustre/project/xlzhang/jingyi/chemsmart/test_pka/orca
  ***********************************

NOTE: MaxCore=2109 MB was set to SCF,MP2,MDCI,CIPSI,MRCI,RASCI and CIS
      => If you want to overwrite this, your respective input block should be placed after the MaxCore statement
XCFun DFT library Copyright 2009-2010 Ulf Ekstrom and contributors.
See http://admol.org/xcfun for more information.
This is free software; see the source code for copying conditions.
There is ABSOLUTELY NO WARRANTY; not even for MERCHANTABILITY or FITNESS FOR A PARTICULAR PURPOSE.
For details see the documentation.
Scientific users of this library should cite U. Ekstrom, L. Visscher, R. Bast, A. J. Thorvaldsen and K. Ruud;
J.Chem.Theor.Comp. 2010, DOI: 10.1021/ct100117s
XCFun Version 0.99 

Warning: RI is on but no J-basis has been assigned. Assigning Def2/J (nothing to worry about!)
================================================================================

----- Orbital basis set information -----
Your calculation utilizes the basis: def2-SVP
   F. Weigend and R. Ahlrichs, Phys. Chem. Chem. Phys. 7, 3297 (2005).

----- AuxJ basis set information -----
Your calculation utilizes the auxiliary basis: def2/J
   H-Rn: F. Weigend, Phys. Chem. Chem. Phys. 8, 1057 (2006).
   Fr-Lr: K. Eichkorn, F. Weigend, O. Treutler, R. Ahlrichs; Theor. Chem. Acc. 97, 119 (1997).

================================================================================
                                        WARNINGS
                       Please study these warnings very carefully!
================================================================================

WARNING: Functional chosen is sensitive to the integration grid.
         DEFGRID3 seems to be a minimum grid for robust results!

WARNING: Geometry Optimization
  ===> : Switching off AutoStart
         For restart on a previous wavefunction, please use MOREAD

================================================================================
                                       INPUT FILE
================================================================================
NAME = /lustre/project/xlzhang/jingyi/chemsmart/test_pka/orca/pka_scale_frag4_pka_A_opt.inp
|  1> ! Opt Freq M062X def2-SVP defgrid2
|  2> # Number of processors
|  3> %pal nprocs 64 end
|  4> # Memory per core
|  5> %maxcore 2109
|  6> * xyz -1 1
|  7> C        0.0451175887    1.7416575938    0.2926757073
|  8> C       -1.1045235255    0.9572211804    0.1768883502
|  9> C       -0.9873733666   -0.4215840295   -0.0569798886
| 10> C        0.2805173674   -1.0161844901   -0.1751216645
| 11> C        1.4245506796   -0.2138369444   -0.0562395084
| 12> C        1.3113116935    1.1631854160    0.1772768677
| 13> O       -2.2823767602    1.6395419685    0.3085232534
| 14> N       -2.1781277584   -1.2673025095   -0.1824942771
| 15> O       -3.2844378329   -0.7153150165   -0.0739063033
| 16> O       -2.0128001256   -2.4763238167   -0.3883798990
| 17> N        2.7571818808   -0.8218331004   -0.1775503683
| 18> O        2.8130567461   -2.0414085474   -0.3838088495
| 19> O        3.7412114660   -0.0784814608   -0.0662547948
| 20> H       -0.0471638012    2.8114804089    0.4741594510
| 21> H        0.3763818988   -2.0861945799   -0.3566839433
| 22> H        2.1916820504    1.7973945887    0.2715882767
| 23> *
| 24> 
| 25>                          ****END OF INPUT****
================================================================================

                       *****************************
                       * Geometry Optimization Run *
                       *****************************

Geometry optimization settings:
Update method            Update   .... BFGS
Choice of coordinates    CoordSys .... (2022) Redundant Internals
Initial Hessian          InHess   .... Almloef's Model
Max. no of cycles        MaxIter  .... 50

Convergence Tolerances:
Energy Change            TolE     ....  5.0000e-06 Eh
Max. Gradient            TolMAXG  ....  3.0000e-04 Eh/bohr
RMS Gradient             TolRMSG  ....  1.0000e-04 Eh/bohr
Max. Displacement        TolMAXD  ....  4.0000e-03 bohr
RMS Displacement         TolRMSD  ....  2.0000e-03 bohr
Strict Convergence                .... False

------------------------------------------------------------------------------
                        ORCA OPTIMIZATION COORDINATE SETUP
------------------------------------------------------------------------------

The optimization will be done in redundant internal coordinates (2022)
Making redundant internal coordinates   ...  (2022 redundants) done
Evaluating the initial hessian          ...  (Almloef) done
Evaluating the coordinates              ...  done
Calculating the B-matrix                .... done
Calculating the G-matrix                .... done
The number of degrees of freedom        ....   72

    -----------------------------------------------------------------
                    Redundant Internal Coordinates


    -----------------------------------------------------------------
         Definition                    Initial Value    Approx d2E/dq
    -----------------------------------------------------------------
      1. B(C   1,C   0)                  1.3966         0.609886   
      2. B(C   2,C   1)                  1.4034         0.594792   
      3. B(C   3,C   2)                  1.4054         0.590504   
      4. B(C   4,C   3)                  1.4024         0.596988   
      5. B(C   5,C   4)                  1.4013         0.599468   
      6. B(C   5,C   0)                  1.3969         0.609266   
      7. B(O   6,C   1)                  1.3676         0.607677   
      8. B(N   7,C   2)                  1.4659         0.423416   
      9. B(O   8,N   7)                  1.2411         0.866014   
     10. B(O   9,N   7)                  1.2375         0.877577   
     11. B(N  10,C   4)                  1.4698         0.417423   
     12. B(O  11,N  10)                  1.2382         0.875529   
     13. B(O  12,N  10)                  1.2383         0.875213   
     14. B(H  13,C   0)                  1.0890         0.361394   
     15. B(H  14,C   3)                  1.0895         0.360722   
     16. B(H  15,C   5)                  1.0891         0.361275   
     17. A(C   1,C   0,H  13)          119.7254         0.352142   
     18. A(C   5,C   0,H  13)          119.8283         0.352081   
     19. A(C   1,C   0,C   5)          120.4462         0.431428   
     20. A(C   0,C   1,O   6)          114.8832         0.428409   
     21. A(C   0,C   1,C   2)          119.7980         0.429569   
     22. A(C   2,C   1,O   6)          125.3188         0.426490   
     23. A(C   3,C   2,N   7)          118.7865         0.399481   
     24. A(C   1,C   2,N   7)          120.8823         0.399990   
     25. A(C   1,C   2,C   3)          120.3312         0.427089   
     26. A(C   2,C   3,C   4)          119.1293         0.427371   
     27. A(C   2,C   3,H  14)          120.5907         0.350115   
     28. A(C   4,C   3,H  14)          120.2800         0.350762   
     29. A(C   5,C   4,N  10)          119.5729         0.399538   
     30. A(C   3,C   4,N  10)          119.7345         0.399247   
     31. A(C   3,C   4,C   5)          120.6926         0.428527   
     32. A(C   0,C   5,C   4)          119.6026         0.430095   
     33. A(C   0,C   5,H  15)          118.9745         0.352062   
     34. A(C   4,C   5,H  15)          121.4229         0.351098   
     35. A(O   8,N   7,O   9)          124.6209         0.478410   
     36. A(C   2,N   7,O   9)          117.9930         0.422988   
     37. A(C   2,N   7,O   8)          117.3861         0.421987   
     38. A(O  11,N  10,O  12)          124.7798         0.479136   
     39. A(C   4,N  10,O  12)          117.6962         0.421709   
     40. A(C   4,N  10,O  11)          117.5240         0.421736   
     41. D(C   2,C   1,C   0,H  13)   -179.9997         0.025689   
     42. D(O   6,C   1,C   0,C   5)    180.0000         0.025689   
     43. D(C   2,C   1,C   0,C   5)      0.0002         0.025689   
     44. D(O   6,C   1,C   0,H  13)      0.0001         0.025689   
     45. D(C   3,C   2,C   1,C   0)     -0.0003         0.024366   
     46. D(N   7,C   2,C   1,O   6)     -0.0002         0.024366   
     47. D(C   3,C   2,C   1,O   6)    179.9999         0.024366   
     48. D(N   7,C   2,C   1,C   0)    179.9996         0.024366   
     49. D(H  14,C   3,C   2,N   7)      0.0002         0.023998   
     50. D(H  14,C   3,C   2,C   1)   -180.0000         0.023998   
     51. D(C   4,C   3,C   2,N   7)   -179.9996         0.023998   
     52. D(C   4,C   3,C   2,C   1)      0.0002         0.023998   
     53. D(N  10,C   4,C   3,C   2)    179.9997         0.024556   
     54. D(C   5,C   4,C   3,H  14)   -179.9998         0.024556   
     55. D(C   5,C   4,C   3,C   2)     -0.0000         0.024556   
     56. D(N  10,C   4,C   3,H  14)     -0.0001         0.024556   
     57. D(H  15,C   5,C   4,N  10)      0.0001         0.024771   
     58. D(C   0,C   5,C   4,N  10)   -179.9998         0.024771   
     59. D(C   0,C   5,C   4,C   3)     -0.0001         0.024771   
     60. D(H  15,C   5,C   0,H  13)     -0.0000         0.025634   
     61. D(H  15,C   5,C   0,C   1)   -179.9999         0.025634   
     62. D(H  15,C   5,C   4,C   3)    179.9999         0.024771   
     63. D(C   4,C   5,C   0,H  13)    179.9999         0.025634   
     64. D(C   4,C   5,C   0,C   1)      0.0000         0.025634   
     65. D(O   9,N   7,C   2,C   3)      0.0037         0.014126   
     66. D(O   9,N   7,C   2,C   1)   -179.9962         0.014126   
     67. D(O   8,N   7,C   2,C   3)   -179.9958         0.014126   
     68. D(O   8,N   7,C   2,C   1)      0.0044         0.014126   
     69. D(O  12,N  10,C   4,C   3)   -179.9960         0.013735   
     70. D(O  11,N  10,C   4,C   5)   -179.9963         0.013735   
     71. D(O  11,N  10,C   4,C   3)      0.0040         0.013735   
     72. D(O  12,N  10,C   4,C   5)      0.0038         0.013735   
    -----------------------------------------------------------------

Number of atoms                         .... 16
Number of degrees of freedom            .... 72


         *************************************************************
         *                GEOMETRY OPTIMIZATION CYCLE   1            *
         *************************************************************
---------------------------------
CARTESIAN COORDINATES (ANGSTROEM)
---------------------------------
  C      0.045118    1.741658    0.292676
  C     -1.104524    0.957221    0.176888
  C     -0.987373   -0.421584   -0.056980
  C      0.280517   -1.016184   -0.175122
  C      1.424551   -0.213837   -0.056240
  C      1.311312    1.163185    0.177277
  O     -2.282377    1.639542    0.308523
  N     -2.178128   -1.267303   -0.182494
  O     -3.284438   -0.715315   -0.073906
  O     -2.012800   -2.476324   -0.388380
  N      2.757182   -0.821833   -0.177550
  O      2.813057   -2.041409   -0.383809
  O      3.741211   -0.078481   -0.066255
  H     -0.047164    2.811480    0.474159
  H      0.376382   -2.086195   -0.356684
  H      2.191682    1.797395    0.271588

----------------------------
CARTESIAN COORDINATES (A.U.)
----------------------------
  NO LB      ZA    FRAG     MASS         X           Y           Z
   0 C     6.0000    0    12.011    0.085260    3.291256    0.553077
   1 C     6.0000    0    12.011   -2.087247    1.808886    0.334271
   2 C     6.0000    0    12.011   -1.865865   -0.796678   -0.107676
   3 C     6.0000    0    12.011    0.530101   -1.920310   -0.330932
   4 C     6.0000    0    12.011    2.692011   -0.404093   -0.106277
   5 C     6.0000    0    12.011    2.478020    2.198102    0.335005
   6 O     8.0000    0    15.999   -4.313067    3.098285    0.583024
   7 N     7.0000    0    14.007   -4.116065   -2.394855   -0.344864
   8 O     8.0000    0    15.999   -6.206688   -1.351749   -0.139663
   9 O     8.0000    0    15.999   -3.803641   -4.679574   -0.733932
  10 N     7.0000    0    14.007    5.210319   -1.553039   -0.335522
  11 O     8.0000    0    15.999    5.315907   -3.857703   -0.725294
  12 O     8.0000    0    15.999    7.069865   -0.148308   -0.125203
  13 H     1.0000    0     1.008   -0.089127    5.312928    0.896032
  14 H     1.0000    0     1.008    0.711259   -3.942336   -0.674035
  15 H     1.0000    0     1.008    4.141679    3.396584    0.513227

--------------------------------
INTERNAL COORDINATES (ANGSTROEM)
--------------------------------
 C      0   0   0     0.000000000000     0.00000000     0.00000000
 C      1   0   0     1.396575057128     0.00000000     0.00000000
 C      2   1   0     1.403396707883   119.79797276     0.00000000
 C      3   2   1     1.405366180154   120.33124655     0.00000000
 C      4   3   2     1.402393229645   119.12932684     0.00000000
 C      1   2   3     1.396851625514   120.44624156     0.00000000
 O      2   1   3     1.367562666976   114.88318746   179.99979406
 N      3   2   1     1.465909148182   120.88227998   179.99955640
 O      8   3   2     1.241129937365   117.38610336     0.00000000
 O      8   3   2     1.237519550042   117.99300420   180.00380691
 N      5   4   3     1.469789634217   119.73449482   179.99972599
 O     11   5   4     1.238155415352   117.52400105     0.00000000
 O     11   5   4     1.238253846885   117.69617447   180.00399080
 H      1   2   3     1.089023902335   119.72542359   180.00026282
 H      4   3   2     1.089530385872   120.59068144   180.00003041
 H      6   1   2     1.089113346678   118.97454010   180.00007857

---------------------------
INTERNAL COORDINATES (A.U.)
---------------------------
 C      0   0   0     0.000000000000     0.00000000     0.00000000
 C      1   0   0     2.639144383437     0.00000000     0.00000000
 C      2   1   0     2.652035435146   119.79797276     0.00000000
 C      3   2   1     2.655757198367   120.33124655     0.00000000
 C      4   3   2     2.650139136094   119.12932684     0.00000000
 C      1   2   3     2.639667021943   120.44624156     0.00000000
 O      2   1   3     2.584318911560   114.88318746   179.99979406
 N      3   2   1     2.770166827275   120.88227998   179.99955640
 O      8   3   2     2.345395678230   117.38610336     0.00000000
 O      8   3   2     2.338573034953   117.99300420   180.00380691
 N      5   4   3     2.777499883147   119.73449482   179.99972599
 O     11   5   4     2.339774646246   117.52400105     0.00000000
 O     11   5   4     2.339960654887   117.69617447   180.00399080
 H      1   2   3     2.057956928708   119.72542359   180.00026282
 H      4   3   2     2.058914043883   120.59068144   180.00003041
 H      6   1   2     2.058125954020   118.97454010   180.00007857

---------------------
BASIS SET INFORMATION
---------------------
There are 4 groups of distinct atoms

 Group   1 Type C   : 7s4p1d contracted to 3s2p1d pattern {511/31/1}
 Group   2 Type O   : 7s4p1d contracted to 3s2p1d pattern {511/31/1}
 Group   3 Type N   : 7s4p1d contracted to 3s2p1d pattern {511/31/1}
 Group   4 Type H   : 4s1p contracted to 2s1p pattern {31/1}

Atom   0C    basis set group =>   1
Atom   1C    basis set group =>   1
Atom   2C    basis set group =>   1
Atom   3C    basis set group =>   1
Atom   4C    basis set group =>   1
Atom   5C    basis set group =>   1
Atom   6O    basis set group =>   2
Atom   7N    basis set group =>   3
Atom   8O    basis set group =>   2
Atom   9O    basis set group =>   2
Atom  10N    basis set group =>   3
Atom  11O    basis set group =>   2
Atom  12O    basis set group =>   2
Atom  13H    basis set group =>   4
Atom  14H    basis set group =>   4
Atom  15H    basis set group =>   4
---------------------------------
AUXILIARY/J BASIS SET INFORMATION
---------------------------------
There are 4 groups of distinct atoms

 Group   1 Type C   : 12s5p4d2f1g contracted to 6s4p3d1f1g pattern {711111/2111/211/2/1}
 Group   2 Type O   : 12s5p4d2f1g contracted to 6s4p3d1f1g pattern {711111/2111/211/2/1}
 Group   3 Type N   : 12s5p4d2f1g contracted to 6s4p3d1f1g pattern {711111/2111/211/2/1}
 Group   4 Type H   : 5s2p1d contracted to 3s1p1d pattern {311/2/1}

Atom   0C    basis set group =>   1
Atom   1C    basis set group =>   1
Atom   2C    basis set group =>   1
Atom   3C    basis set group =>   1
Atom   4C    basis set group =>   1
Atom   5C    basis set group =>   1
Atom   6O    basis set group =>   2
Atom   7N    basis set group =>   3
Atom   8O    basis set group =>   2
Atom   9O    basis set group =>   2
Atom  10N    basis set group =>   3
Atom  11O    basis set group =>   2
Atom  12O    basis set group =>   2
Atom  13H    basis set group =>   4
Atom  14H    basis set group =>   4
Atom  15H    basis set group =>   4


           ************************************************************
           *        Program running with 64 parallel MPI-processes    *
           *              working on a common directory               *
           ************************************************************
------------------------------------------------------------------------------
                             ORCA STARTUP CALCULATIONS
                           -- RI-GTO INTEGRALS CHOSEN --
------------------------------------------------------------------------------
------------------------------------------------------------------------------
                   ___                                                        
                  /   \      - P O W E R E D   B Y -                         
                 /     \                                                     
                 |  |  |   _    _      __       _____    __    __             
                 |  |  |  | |  | |    /  \     |  _  \  |  |  /  |          
                  \  \/   | |  | |   /    \    | | | |  |  | /  /          
                 / \  \   | |__| |  /  /\  \   | |_| |  |  |/  /          
                |  |  |   |  __  | /  /__\  \  |    /   |      \           
                |  |  |   | |  | | |   __   |  |    \   |  |\   \          
                \     /   | |  | | |  |  |  |  | |\  \  |  | \   \       
                 \___/    |_|  |_| |__|  |__|  |_| \__\ |__|  \__/        
                                                                              
                      - O R C A' S   B I G   F R I E N D -                    
                                      &                                       
                       - I N T E G R A L  F E E D E R -                       
                                                                              
 v1 FN, 2020, v2 2021, v3 2022-2024                                           
------------------------------------------------------------------------------


----------------------
SHARK INTEGRAL PACKAGE
----------------------

Number of atoms                             ...     16
Number of basis functions                   ...    197
Number of shells                            ...     87
Maximum angular momentum                    ...      2
Integral batch strategy                     ... SHARK/LIBINT Hybrid
RI-J (if used) integral strategy            ... SPLIT-RIJ (Revised 2003 algorithm where possible)
Printlevel                                  ...      1
Contraction scheme used                     ... SEGMENTED contraction
Prescreening option                         ... SCHWARTZ
   Thresh                                   ... 2.500e-11
   Tcut                                     ... 2.500e-12
   Tpresel                                  ... 2.500e-12 
Coulomb Range Separation                    ... NOT USED
Exchange Range Separation                   ... NOT USED
Multipole approximations                    ... NOT USED
Finite Nucleus Model                        ... NOT USED
CABS basis                                  ... NOT available
Auxiliary Coulomb fitting basis             ... AVAILABLE
   # of basis functions in Aux-J            ...    670
   # of shells in Aux-J                     ...    210
   Maximum angular momentum in Aux-J        ...      4
Auxiliary J/K fitting basis                 ... NOT available
Auxiliary Correlation fitting basis         ... NOT available
Auxiliary 'external' fitting basis          ... NOT available

Checking pre-screening integrals            ... done (  0.1 sec) Dimension = 87
   => SHARK Basis and OBASIS are compatible. Storing Pre-screening
Shell pair information
Shell pair cut-off parameter TPreSel        ...   2.5e-12
Total number of shell pairs                 ...      3828
Shell pairs after pre-screening             ...      3251
Total number of primitive shell pairs       ...     14884
Primitive shell pairs kept                  ...      8683
          la=0 lb=0:    865 shell pairs
          la=1 lb=0:   1143 shell pairs
          la=1 lb=1:    396 shell pairs
          la=2 lb=0:    459 shell pairs
          la=2 lb=1:    318 shell pairs
          la=2 lb=2:     70 shell pairs

Checking whether 4 symmetric matrices of dimension 197 fit in memory
:Max Core in MB      =   2109.00
 MB in use           =      7.62
 MB left             =   2101.38
 MB needed           =      0.60
 Data fit in memory  = YES
Calculating RI/J V-Matrix + Cholesky decomp.... done (  0.3 sec)
Calculating Nuclear repulsion               ... done (  0.0 sec) ENN=    756.839915070904 Eh

Diagonalization of the overlap matrix:
Smallest eigenvalue                        ... 2.086e-04
Time for diagonalization                   ...    0.005 sec
Threshold for overlap eigenvalues          ... 1.000e-07
Number of eigenvalues below threshold      ... 0
Time for construction of square roots      ...    0.106 sec
Total time needed                          ...    0.331 sec

-------------------
DFT GRID GENERATION
-------------------

General Integration Accuracy     IntAcc      ... 4.388
Radial Grid Type                 RadialGrid  ... OptM3 with GC (2021)
Angular Grid (max. ang.)         AngularGrid ... 4 (Lebedev-302)
Angular grid pruning method      GridPruning ... 4 (adaptive)
Weight generation scheme         WeightScheme... mBecke (2022)
Basis function cutoff            BFCut       ... 1.0000e-11
Integration weight cutoff        WCut        ... 1.0000e-14
Partially contracted basis set               ... off
Rotationally invariant grid construction     ... off
Angular grids for H and He will be reduced by one unit

Total number of grid points                  ...    88169
Total number of batches                      ...     1386
Average number of points per batch           ...       63
Average number of grid points per atom       ...     5511

--------------------
COSX GRID GENERATION
--------------------

GRIDX 1
-------
General Integration Accuracy     IntAcc      ... 3.816
Radial Grid Type                 RadialGrid  ... OptM3 with GC (2021)
Angular Grid (max. ang.)         AngularGrid ... 1 (Lebedev-50)
Angular grid pruning method      GridPruning ... 4 (adaptive)
Weight generation scheme         WeightScheme... mBecke (2022)
Basis function cutoff            BFCut       ... 1.0000e-11
Integration weight cutoff        WCut        ... 1.0000e-14
Partially contracted basis set               ... on
Rotationally invariant grid construction     ... off
Angular grids for H and He will be reduced by one unit

Total number of grid points                  ...    11165
Total number of batches                      ...       95
Average number of points per batch           ...      117
Average number of grid points per atom       ...      698
UseSFitting                                  ... on

GRIDX 2
-------
General Integration Accuracy     IntAcc      ... 4.020
Radial Grid Type                 RadialGrid  ... OptM3 with GC (2021)
Angular Grid (max. ang.)         AngularGrid ... 2 (Lebedev-110)
Angular grid pruning method      GridPruning ... 4 (adaptive)
Weight generation scheme         WeightScheme... mBecke (2022)
Basis function cutoff            BFCut       ... 1.0000e-11
Integration weight cutoff        WCut        ... 1.0000e-14
Partially contracted basis set               ... on
Rotationally invariant grid construction     ... off
Angular grids for H and He will be reduced by one unit

Total number of grid points                  ...    25814
Total number of batches                      ...      208
Average number of points per batch           ...      124
Average number of grid points per atom       ...     1613
UseSFitting                                  ... on

GRIDX 3
-------
General Integration Accuracy     IntAcc      ... 4.338
Radial Grid Type                 RadialGrid  ... OptM3 with GC (2021)
Angular Grid (max. ang.)         AngularGrid ... 3 (Lebedev-194)
Angular grid pruning method      GridPruning ... 4 (adaptive)
Weight generation scheme         WeightScheme... mBecke (2022)
Basis function cutoff            BFCut       ... 1.0000e-11
Integration weight cutoff        WCut        ... 1.0000e-14
Partially contracted basis set               ... on
Rotationally invariant grid construction     ... off
Angular grids for H and He will be reduced by one unit

Total number of grid points                  ...    57041
Total number of batches                      ...      454
Average number of points per batch           ...      125
Average number of grid points per atom       ...     3565
UseSFitting                                  ... on
Grids setup in   2.2 sec
Initializing property integral containers    ... done (  0.3 sec)

SHARK setup successfully completed in   3.4 seconds

Maximum memory used throughout the entire STARTUP-calculation: 21.9 MB


           ************************************************************
           *        Program running with 64 parallel MPI-processes    *
           *              working on a common directory               *
           ************************************************************
-------------------------------------------------------------------------------
                                 ORCA GUESS
                   Start orbitals & Density for SCF / CASSCF
-------------------------------------------------------------------------------

------------
SCF SETTINGS
------------
Hamiltonian:
 Density Functional     Method          .... DFT(GTOs)
 Exchange Functional    Exchange        .... M062X
 Correlation Functional Correlation     .... M062X
 Gradients option       PostSCFGGA      .... off
 Hybrid DFT is turned on
   Fraction HF Exchange ScalHFX         ....  0.540000
   Scaling of DF-GGA-X  ScalDFX         ....  0.460000
   Scaling of DF-GGA-C  ScalDFC         ....  1.000000
   Scaling of DF-LDA-C  ScalLDAC        ....  1.000000
   Perturbative correction              ....  0.000000
 RI-approximation to the Coulomb term is turned on
   Number of AuxJ basis functions       .... 670
   RIJ-COSX (HFX calculated with COS-X)).... on


General Settings:
 Integral files         IntName         .... /lustre/project/xlzhang/jingyi/chemsmart/test_pka/orca/pka_scale_frag4_pka_A_opt
 Hartree-Fock type      HFTyp           .... RHF
 Total Charge           Charge          ....   -1
 Multiplicity           Mult            ....    1
 Number of Electrons    NEL             ....   94
 Basis Dimension        Dim             ....  197
 Nuclear Repulsion      ENuc            ....    756.8399150709 Eh

Convergence Acceleration:
 AO-DIIS                CNVDIIS         .... on
   Start iteration      DIISMaxIt       ....    12
   Startup error        DIISStart       ....  0.200000
   # of expansion vecs  DIISMaxEq       ....     5
   Bias factor          DIISBfac        ....   1.050
   Max. coefficient     DIISMaxC        ....  10.000
 MO-DIIS                CNVKDIIS        .... off
 Trust-Rad. Augm. Hess. CNVTRAH         .... auto
   Auto Start mean grad. ratio tolernc. ....  1.125000
   Auto Start start iteration           ....    50
   Auto Start num. interpolation iter.  ....    10
   Max. Number of Micro iterations      ....    24
   Max. Number of Macro iterations      .... Maxiter - #DIIS iter
   Number of Davidson start vectors     ....     2
   Converg. threshold    (grad. norm)   ....   1.000e-05
   Grad. Scal. Fac. for Micro threshold ....   0.100
   Minimum threshold for Micro iter.    ....   1.000e-02
   NR start threshold (gradient norm)   ....   1.000e-04
   Initial trust radius                 ....   0.400
   Minimum AH scaling param. (alpha)    ....   1.000
   Maximum AH scaling param. (alpha)    .... 1000.000
   Quad. conv. algorithm                .... NR
   White noise on init. David. guess    .... on
   Maximum white noise                  ....   0.010
   Pseudo random numbers                .... off
   Inactive MOs                         .... canonical
   Orbital update algorithm             .... Taylor
   Preconditioner                       .... Diag
   Full preconditioner red. dimension   ....   250
 SOSCF                 CNVSOSCF           .... on
   Start iteration     SOSCFMaxIt         ....   150
   Startup grad/error  SOSCFStart         ....  0.003300
   Hessian update      SOSCFHessUp        .... L-BFGS
   Autom. constraints  SOSCFAutoConstrain .... off
 Level Shifting         CNVShift        .... on
   Level shift para.    LevelShift      ....    0.2500
   Turn off err/grad.   ShiftErr        ....    0.0010
 Zerner damping         CNVZerner       .... off
 Static damping         CNVDamp         .... on
   Fraction old density DampFac         ....    0.7000
   Max. Damping (<1)    DampMax         ....    0.9800
   Min. Damping (>=0)   DampMin         ....    0.0000
   Turn off err/grad.   DampErr         ....    0.1000

SCF Procedure:
 Maximum # iterations   MaxIter         ....   125
 SCF integral mode      SCFMode         .... Direct
   Integral package                     .... SHARK and LIBINT hybrid scheme
 Reset frequency        DirectResetFreq ....    20
 Integral Threshold     Thresh          ....  2.500e-11 Eh
 Primitive CutOff       TCut            ....  2.500e-12 Eh

Convergence Tolerance:
 Convergence Check Mode ConvCheckMode   .... Total+1el-Energy
 Convergence forced     ConvForced      .... 0
 Energy Change          TolE            ....  1.000e-08 Eh
 1-El. energy change                    ....  1.000e-05 Eh
 Orbital Gradient       TolG            ....  1.000e-05
 Orbital Rotation angle TolX            ....  1.000e-05
 DIIS Error             TolErr          ....  5.000e-07

------------------------------
INITIAL GUESS: MODEL POTENTIAL
------------------------------
Loading Hartree-Fock densities                     ... done
Calculating cut-offs                               ... done
Initializing the effective Hamiltonian             ... done
Setting up the integral package (SHARK)            ... done
Starting the Coulomb interaction                   ... done (   0.3 sec)
Making the grid                                    ... done (   0.6 sec)
Mapping shells                                     ... done
Starting the XC term evaluation                    ... done (   0.0 sec)
  promolecular density results
     # of electrons  =     92.998590189
     EX              =    -85.306673385
     EC              =     -3.172038838
     EX+EC           =    -88.478712223
Transforming the Hamiltonian                       ... done (   0.1 sec)
Diagonalizing the Hamiltonian                      ... done (   0.0 sec)
Back transforming the eigenvectors                 ... done (   0.3 sec)
Now organizing SCF variables                       ... done
                      ------------------
                      INITIAL GUESS DONE (   1.7 sec)
                      ------------------
             **** ENERGY FILE WAS UPDATED (/lustre/project/xlzhang/jingyi/chemsmart/test_pka/orca/pka_scale_frag4_pka_A_opt.en.tmp) ****
Finished Guess after   4.3 sec
Maximum memory used throughout the entire GUESS-calculation: 10.2 MB


           ************************************************************
           *        Program running with 64 parallel MPI-processes    *
           *              working on a common directory               *
           ************************************************************

-------------------------------------------------------------------------------------------
                                      ORCA LEAN-SCF
                              memory conserving SCF solver
-------------------------------------------------------------------------------------------

----------------------------------------D-I-I-S--------------------------------------------
Iteration    Energy (Eh)           Delta-E    RMSDP     MaxDP     DIISErr   Damp  Time(sec)
-------------------------------------------------------------------------------------------
               ***  Starting incremental Fock matrix formation  ***
    1    -714.6410492156666123     0.00e+00  3.97e-02  1.74e-01  3.15e-01  0.700   1.8
Warning: op=0 Small HOMO/LUMO gap (   0.084) - skipping pre-diagonalization
         Will do a full diagonalization
    2    -714.8546770321914892    -2.14e-01  2.38e-02  9.73e-02  1.35e-01  0.700   1.5
                               ***Turning on AO-DIIS***
    3    -714.9353427819809212    -8.07e-02  8.14e-03  2.24e-02  4.46e-02  0.700   1.8
    4    -714.9851822379274608    -4.98e-02  1.59e-02  3.69e-02  2.50e-02  0.000   1.0
    5    -715.0980270504929877    -1.13e-01  3.00e-03  9.82e-03  6.15e-03  0.000   0.9
                              *** Initializing SOSCF ***
---------------------------------------S-O-S-C-F--------------------------------------
Iteration    Energy (Eh)           Delta-E    RMSDP     MaxDP     MaxGrad    Time(sec)
--------------------------------------------------------------------------------------
    6    -715.0985609472683109    -5.34e-04  1.50e-03  6.54e-03  2.05e-03     0.9
               *** Restarting incremental Fock matrix formation ***
    7    -715.0986748290630430    -1.14e-04  1.00e-03  2.67e-03  1.71e-03     1.3
    8    -715.0987055007591380    -3.07e-05  9.82e-04  3.75e-03  7.60e-04     1.0
    9    -715.0987159418749570    -1.04e-05  4.64e-04  1.76e-03  4.21e-04     0.9
   10    -715.0987202477109577    -4.31e-06  1.18e-04  4.66e-04  1.11e-04     0.9
   11    -715.0987201320202757     1.16e-07  7.77e-05  3.16e-04  1.28e-04     1.0
   12    -715.0987206542912418    -5.22e-07  2.51e-05  1.14e-04  2.60e-05     1.1
   13    -715.0987206402431866     1.40e-08  1.50e-05  7.43e-05  3.54e-05     1.4
   14    -715.0987206710414057    -3.08e-08  5.34e-06  2.05e-05  4.05e-06     1.0
   15    -715.0987206712355828    -1.94e-10  3.04e-06  1.13e-05  4.35e-06     1.0
                 **** Energy Check signals convergence ****

               *****************************************************
               *                     SUCCESS                       *
               *           SCF CONVERGED AFTER  15 CYCLES          *
               *****************************************************

Recomputing exchange energy using gridx3       ... done (    0.192 sec)
Old exchange energy                            :    -46.611674831 Eh
New exchange energy                            :    -46.611800709 Eh
Exchange energy change after final integration :     -0.000125879 Eh
Total energy after final integration           :   -715.098846545 Eh
             **** ENERGY FILE WAS UPDATED (/lustre/project/xlzhang/jingyi/chemsmart/test_pka/orca/pka_scale_frag4_pka_A_opt.en.tmp) ****

----------------
TOTAL SCF ENERGY
----------------

Total Energy       :       -715.09884654536279 Eh          -19458.82888 eV

Components:
Nuclear Repulsion  :        756.83991507090411 Eh           20594.66110 eV
Electronic Energy  :      -1471.93863573766021 Eh          -40053.48656 eV
One Electron Energy:      -2493.45453062462093 Eh          -67850.34722 eV
Two Electron Energy:       1021.51589488696072 Eh           27796.86066 eV

Virial components:
Potential Energy   :      -1424.43527599067238 Eh          -38760.85442 eV
Kinetic Energy     :        709.33642944530970 Eh           19302.02554 eV
Virial Ratio       :          2.00812367285938

DFT components:
N(Alpha)           :       47.000034151187 electrons
N(Beta)            :       47.000034151187 electrons
N(Total)           :       94.000068302375 electrons
E(XC)              :      -43.493513923738 Eh       

---------------
SCF CONVERGENCE
---------------

  Last Energy change         ...    1.9418e-10  Tolerance :   1.0000e-08
  Last MAX-Density change    ...    1.1296e-05  Tolerance :   1.0000e-07
  Last RMS-Density change    ...    3.0388e-06  Tolerance :   5.0000e-09
  Last DIIS Error            ...    2.0550e-03  Tolerance :   5.0000e-07
  Last Orbital Gradient      ...    4.3453e-06  Tolerance :   1.0000e-05
  Last Orbital Rotation      ...    7.3465e-06  Tolerance :   1.0000e-05


----------------
ORBITAL ENERGIES
----------------

  NO   OCC          E(Eh)            E(eV) 
   0   2.0000     -19.537171      -531.6335 
   1   2.0000     -19.535785      -531.5957 
   2   2.0000     -19.516873      -531.0811 
   3   2.0000     -19.515921      -531.0552 
   4   2.0000     -19.420467      -528.4578 
   5   2.0000     -14.877474      -404.8367 
   6   2.0000     -14.859702      -404.3530 
   7   2.0000     -10.478465      -285.1335 
   8   2.0000     -10.477744      -285.1139 
   9   2.0000     -10.469790      -284.8975 
  10   2.0000     -10.467627      -284.8386 
  11   2.0000     -10.455124      -284.4984 
  12   2.0000     -10.430753      -283.8352 
  13   2.0000      -1.209014       -32.8989 
  14   2.0000      -1.189243       -32.3610 
  15   2.0000      -1.027166       -27.9506 
  16   2.0000      -1.006177       -27.3795 
  17   2.0000      -0.901294       -24.5255 
  18   2.0000      -0.841030       -22.8856 
  19   2.0000      -0.772553       -21.0222 
  20   2.0000      -0.733890       -19.9702 
  21   2.0000      -0.661833       -18.0094 
  22   2.0000      -0.620537       -16.8857 
  23   2.0000      -0.560887       -15.2625 
  24   2.0000      -0.528003       -14.3677 
  25   2.0000      -0.512069       -13.9341 
  26   2.0000      -0.491669       -13.3790 
  27   2.0000      -0.473289       -12.8789 
  28   2.0000      -0.473104       -12.8738 
  29   2.0000      -0.460910       -12.5420 
  30   2.0000      -0.450077       -12.2472 
  31   2.0000      -0.410639       -11.1741 
  32   2.0000      -0.401949       -10.9376 
  33   2.0000      -0.380546       -10.3552 
  34   2.0000      -0.334474        -9.1015 
  35   2.0000      -0.321594        -8.7510 
  36   2.0000      -0.285224        -7.7613 
  37   2.0000      -0.263826        -7.1791 
  38   2.0000      -0.253662        -6.9025 
  39   2.0000      -0.251941        -6.8557 
  40   2.0000      -0.247587        -6.7372 
  41   2.0000      -0.245456        -6.6792 
  42   2.0000      -0.232006        -6.3132 
  43   2.0000      -0.226743        -6.1700 
  44   2.0000      -0.204781        -5.5724 
  45   2.0000      -0.142852        -3.8872 
  46   2.0000      -0.116616        -3.1733 
  47   0.0000       0.077670         2.1135 
  48   0.0000       0.095698         2.6041 
  49   0.0000       0.169692         4.6175 
  50   0.0000       0.203945         5.5496 
  51   0.0000       0.231351         6.2954 
  52   0.0000       0.276317         7.5190 
  53   0.0000       0.295226         8.0335 
  54   0.0000       0.330170         8.9844 
  55   0.0000       0.343231         9.3398 
  56   0.0000       0.348334         9.4787 
  57   0.0000       0.412973        11.2376 
*Only the first 10 virtual orbitals were printed.

                    ********************************
                    * MULLIKEN POPULATION ANALYSIS *
                    ********************************

-----------------------
MULLIKEN ATOMIC CHARGES
-----------------------
   0 C :   -0.095348
   1 C :    0.156249
   2 C :    0.084398
   3 C :   -0.053639
   4 C :    0.119111
   5 C :   -0.023507
   6 O :   -0.452593
   7 N :    0.220101
   8 O :   -0.248883
   9 O :   -0.331273
  10 N :    0.231764
  11 O :   -0.312478
  12 O :   -0.316622
  13 H :   -0.010035
  14 H :    0.025969
  15 H :    0.006788
Sum of atomic charges:   -1.0000000

--------------------------------
MULLIKEN REDUCED ORBITAL CHARGES
--------------------------------
  0 C s       :     3.278840  s :     3.278840
      pz      :     1.031204  p :     2.785713
      px      :     0.906884
      py      :     0.847626
      dz2     :     0.002587  d :     0.030795
      dxz     :     0.005433
      dyz     :     0.002468
      dx2y2   :     0.009944
      dxy     :     0.010363

  1 C s       :     3.039590  s :     3.039590
      pz      :     0.884033  p :     2.727122
      px      :     0.834042
      py      :     1.009047
      dz2     :     0.004670  d :     0.077038
      dxz     :     0.014709
      dyz     :     0.009433
      dx2y2   :     0.026879
      dxy     :     0.021347

  2 C s       :     3.019399  s :     3.019399
      pz      :     1.174173  p :     2.855437
      px      :     0.768826
      py      :     0.912437
      dz2     :     0.004445  d :     0.040766
      dxz     :     0.004988
      dyz     :     0.004903
      dx2y2   :     0.010744
      dxy     :     0.015686

  3 C s       :     3.388412  s :     3.388412
      pz      :     0.898092  p :     2.632724
      px      :     0.971740
      py      :     0.762893
      dz2     :     0.002424  d :     0.032503
      dxz     :     0.009755
      dyz     :     0.002762
      dx2y2   :     0.008220
      dxy     :     0.009343

  4 C s       :     2.980300  s :     2.980300
      pz      :     1.181453  p :     2.857588
      px      :     0.811815
      py      :     0.864321
      dz2     :     0.004572  d :     0.043001
      dxz     :     0.004719
      dyz     :     0.006398
      dx2y2   :     0.013079
      dxy     :     0.014232

  5 C s       :     3.236424  s :     3.236424
      pz      :     0.964738  p :     2.753897
      px      :     0.839418
      py      :     0.949741
      dz2     :     0.002717  d :     0.033186
      dxz     :     0.004524
      dyz     :     0.006495
      dx2y2   :     0.010511
      dxy     :     0.008939

  6 O s       :     3.814673  s :     3.814673
      pz      :     1.482609  p :     4.625628
      px      :     1.452233
      py      :     1.690785
      dz2     :     0.001571  d :     0.012292
      dxz     :     0.002713
      dyz     :     0.000838
      dx2y2   :     0.002730
      dxy     :     0.004440

  7 N s       :     3.324607  s :     3.324607
      pz      :     1.151638  p :     3.343060
      px      :     1.109524
      py      :     1.081897
      dz2     :     0.005809  d :     0.112232
      dxz     :     0.015218
      dyz     :     0.020649
      dx2y2   :     0.031802
      dxy     :     0.038754

  8 O s       :     3.868200  s :     3.868200
      pz      :     1.424454  p :     4.358247
      px      :     1.237964
      py      :     1.695829
      dz2     :     0.002745  d :     0.022436
      dxz     :     0.005470
      dyz     :     0.001444
      dx2y2   :     0.005594
      dxy     :     0.007182

  9 O s       :     3.860878  s :     3.860878
      pz      :     1.488660  p :     4.448625
      px      :     1.838265
      py      :     1.121700
      dz2     :     0.002763  d :     0.021770
      dxz     :     0.000245
      dyz     :     0.006572
      dx2y2   :     0.007950
      dxy     :     0.004239

 10 N s       :     3.324730  s :     3.324730
      pz      :     1.144390  p :     3.331315
      px      :     1.131198
      py      :     1.055727
      dz2     :     0.005825  d :     0.112191
      dxz     :     0.013079
      dyz     :     0.023451
      dx2y2   :     0.034265
      dxy     :     0.035571

 11 O s       :     3.864099  s :     3.864099
      pz      :     1.466700  p :     4.426420
      px      :     1.853720
      py      :     1.105999
      dz2     :     0.002778  d :     0.021960
      dxz     :     0.000179
      dyz     :     0.006747
      dx2y2   :     0.008345
      dxy     :     0.003912

 12 O s       :     3.862816  s :     3.862816
      pz      :     1.484069  p :     4.431913
      px      :     1.378330
      py      :     1.569514
      dz2     :     0.002700  d :     0.021893
      dxz     :     0.004350
      dyz     :     0.002295
      dx2y2   :     0.004269
      dxy     :     0.008279

 13 H s       :     0.988313  s :     0.988313
      pz      :     0.004208  p :     0.021722
      px      :     0.002813
      py      :     0.014702

 14 H s       :     0.951237  s :     0.951237
      pz      :     0.003465  p :     0.022794
      px      :     0.002781
      py      :     0.016549

 15 H s       :     0.971259  s :     0.971259
      pz      :     0.003610  p :     0.021953
      px      :     0.011697
      py      :     0.006646



                     *******************************
                     * LOEWDIN POPULATION ANALYSIS *
                     *******************************

----------------------
LOEWDIN ATOMIC CHARGES
----------------------
   0 C :   -0.061597
   1 C :    0.045891
   2 C :   -0.098664
   3 C :    0.014972
   4 C :   -0.103594
   5 C :   -0.025956
   6 O :   -0.396258
   7 N :    0.296834
   8 O :   -0.226062
   9 O :   -0.294443
  10 N :    0.296604
  11 O :   -0.275622
  12 O :   -0.279077
  13 H :    0.030253
  14 H :    0.045089
  15 H :    0.031629

-------------------------------
LOEWDIN REDUCED ORBITAL CHARGES
-------------------------------
  0 C s       :     2.866814  s :     2.866814
      pz      :     1.011219  p :     3.107951
      px      :     1.055978
      py      :     1.040755
      dz2     :     0.006659  d :     0.086832
      dxz     :     0.012235
      dyz     :     0.004518
      dx2y2   :     0.032280
      dxy     :     0.031140

  1 C s       :     2.854271  s :     2.854271
      pz      :     0.878621  p :     2.916784
      px      :     0.999290
      py      :     1.038873
      dz2     :     0.011149  d :     0.183054
      dxz     :     0.027870
      dyz     :     0.019951
      dx2y2   :     0.066493
      dxy     :     0.057590

  2 C s       :     2.859364  s :     2.859364
      pz      :     1.136850  p :     3.125779
      px      :     0.949656
      py      :     1.039273
      dz2     :     0.010312  d :     0.113521
      dxz     :     0.010830
      dyz     :     0.010896
      dx2y2   :     0.034448
      dxy     :     0.047034

  3 C s       :     2.869887  s :     2.869887
      pz      :     0.909643  p :     3.026593
      px      :     1.055069
      py      :     1.061880
      dz2     :     0.005887  d :     0.088548
      dxz     :     0.021855
      dyz     :     0.005097
      dx2y2   :     0.027210
      dxy     :     0.028499

  4 C s       :     2.851865  s :     2.851865
      pz      :     1.154871  p :     3.134372
      px      :     0.918846
      py      :     1.060656
      dz2     :     0.010189  d :     0.117357
      dxz     :     0.010287
      dyz     :     0.013895
      dx2y2   :     0.039982
      dxy     :     0.043004

  5 C s       :     2.864607  s :     2.864607
      pz      :     0.953587  p :     3.071118
      px      :     1.071803
      py      :     1.045728
      dz2     :     0.006688  d :     0.090231
      dxz     :     0.009066
      dyz     :     0.014853
      dx2y2   :     0.030953
      dxy     :     0.028672

  6 O s       :     3.645979  s :     3.645979
      pz      :     1.497204  p :     4.730579
      px      :     1.516169
      py      :     1.717205
      dz2     :     0.002952  d :     0.019700
      dxz     :     0.003344
      dyz     :     0.001068
      dx2y2   :     0.004554
      dxy     :     0.007782

  7 N s       :     3.062704  s :     3.062704
      pz      :     1.107783  p :     3.408842
      px      :     1.161745
      py      :     1.139314
      dz2     :     0.012926  d :     0.231620
      dxz     :     0.026114
      dyz     :     0.036095
      dx2y2   :     0.071068
      dxy     :     0.085418

  8 O s       :     3.637175  s :     3.637175
      pz      :     1.435660  p :     4.547705
      px      :     1.386925
      py      :     1.725119
      dz2     :     0.006226  d :     0.041183
      dxz     :     0.007330
      dyz     :     0.001990
      dx2y2   :     0.011062
      dxy     :     0.014574

  9 O s       :     3.627399  s :     3.627399
      pz      :     1.499577  p :     4.626365
      px      :     1.834830
      py      :     1.291957
      dz2     :     0.005881  d :     0.040678
      dxz     :     0.000402
      dyz     :     0.009607
      dx2y2   :     0.017782
      dxy     :     0.007006

 10 N s       :     3.064945  s :     3.064945
      pz      :     1.100271  p :     3.407233
      px      :     1.176191
      py      :     1.130771
      dz2     :     0.013001  d :     0.231218
      dxz     :     0.022484
      dyz     :     0.040864
      dx2y2   :     0.075898
      dxy     :     0.078972

 11 O s       :     3.628911  s :     3.628911
      pz      :     1.478997  p :     4.605924
      px      :     1.848756
      py      :     1.278171
      dz2     :     0.005882  d :     0.040787
      dxz     :     0.000267
      dyz     :     0.009801
      dx2y2   :     0.018415
      dxy     :     0.006421

 12 O s       :     3.628780  s :     3.628780
      pz      :     1.492143  p :     4.609637
      px      :     1.490942
      py      :     1.626552
      dz2     :     0.006079  d :     0.040660
      dxz     :     0.005826
      dyz     :     0.003252
      dx2y2   :     0.007493
      dxy     :     0.018009

 13 H s       :     0.901998  s :     0.901998
      pz      :     0.015913  p :     0.067748
      px      :     0.010295
      py      :     0.041539

 14 H s       :     0.880941  s :     0.880941
      pz      :     0.012685  p :     0.073970
      px      :     0.013015
      py      :     0.048270

 15 H s       :     0.898527  s :     0.898527
      pz      :     0.013344  p :     0.069844
      px      :     0.034477
      py      :     0.022024



                      *****************************
                      * MAYER POPULATION ANALYSIS *
                      *****************************

  NA   - Mulliken gross atomic population
  ZA   - Total nuclear charge
  QA   - Mulliken gross atomic charge
  VA   - Mayer's total valence
  BVA  - Mayer's bonded valence
  FA   - Mayer's free valence

  ATOM       NA         ZA         QA         VA         BVA        FA
  0 C      6.0953     6.0000    -0.0953     3.7955     3.7955     0.0000
  1 C      5.8438     6.0000     0.1562     4.1100     4.1100     0.0000
  2 C      5.9156     6.0000     0.0844     3.5465     3.5465     0.0000
  3 C      6.0536     6.0000    -0.0536     3.8283     3.8283     0.0000
  4 C      5.8809     6.0000     0.1191     3.6239     3.6239    -0.0000
  5 C      6.0235     6.0000    -0.0235     3.7645     3.7645    -0.0000
  6 O      8.4526     8.0000    -0.4526     2.0245     2.0245     0.0000
  7 N      6.7799     7.0000     0.2201     3.9657     3.9657     0.0000
  8 O      8.2489     8.0000    -0.2489     1.9116     1.9116    -0.0000
  9 O      8.3313     8.0000    -0.3313     1.8429     1.8429     0.0000
 10 N      6.7682     7.0000     0.2318     3.9442     3.9442    -0.0000
 11 O      8.3125     8.0000    -0.3125     1.8653     1.8653    -0.0000
 12 O      8.3166     8.0000    -0.3166     1.8620     1.8620     0.0000
 13 H      1.0100     1.0000    -0.0100     1.0069     1.0069     0.0000
 14 H      0.9740     1.0000     0.0260     1.0457     1.0457     0.0000
 15 H      0.9932     1.0000     0.0068     1.0070     1.0070     0.0000

  Mayer bond orders larger than 0.100000
B(  0-C ,  1-C ) :   1.1684 B(  0-C ,  5-C ) :   1.4815 B(  0-C , 13-H ) :   0.9930 
B(  1-C ,  2-C ) :   1.0990 B(  1-C ,  6-O ) :   1.8190 B(  2-C ,  3-C ) :   1.3649 
B(  2-C ,  7-N ) :   0.8880 B(  3-C ,  4-C ) :   1.3121 B(  3-C , 14-H ) :   0.9953 
B(  4-C ,  5-C ) :   1.2353 B(  4-C , 10-N ) :   0.8933 B(  5-C , 15-H ) :   0.9879 
B(  7-N ,  8-O ) :   1.5603 B(  7-N ,  9-O ) :   1.4746 B(  8-O ,  9-O ) :   0.2411 
B( 10-N , 11-O ) :   1.5021 B( 10-N , 12-O ) :   1.4998 B( 11-O , 12-O ) :   0.2234 


-------
TIMINGS
-------

Total SCF time: 0 days 0 hours 0 min 22 sec 

Total time                  ....      22.399 sec
Sum of individual times     ....      21.243 sec  ( 94.8%)

SCF preparation             ....       3.010 sec  ( 13.4%)
Fock matrix formation       ....      15.819 sec  ( 70.6%)
  Startup                   ....       0.094 sec  (  0.6% of F)
  Split-RI-J                ....       1.839 sec  ( 11.6% of F)
  Chain of spheres X        ....       2.546 sec  ( 16.1% of F)
  XC integration            ....       5.220 sec  ( 33.0% of F)
    XC Preparation          ....       0.000 sec  (  0.0% of XC)
    Basis function eval.    ....       0.055 sec  (  1.0% of XC)
    Density eval.           ....       0.092 sec  (  1.8% of XC)
    XC-Functional eval.     ....       0.020 sec  (  0.4% of XC)
    XC-Potential eval.      ....       0.105 sec  (  2.0% of XC)
Diagonalization             ....       0.000 sec  (  0.0%)
Density matrix formation    ....       0.298 sec  (  1.3%)
Total Energy calculation    ....       0.268 sec  (  1.2%)
Population analysis         ....       0.468 sec  (  2.1%)
Orbital Transformation      ....       0.402 sec  (  1.8%)
Orbital Orthonormalization  ....       0.000 sec  (  0.0%)
DIIS solution               ....       0.565 sec  (  2.5%)
SOSCF solution              ....       0.413 sec  (  1.8%)
Finished LeanSCF after  23.0 sec

Maximum memory used throughout the entire LEANSCF-calculation: 15.4 MB


           ************************************************************
           *        Program running with 64 parallel MPI-processes    *
           *              working on a common directory               *
           ************************************************************

------------------------------------------------------------------------------
                         ORCA PROPERTY INTEGRAL CALCULATIONS
------------------------------------------------------------------------------

GBWName                                   ... /lustre/project/xlzhang/jingyi/chemsmart/test_pka/orca/pka_scale_frag4_pka_A_opt.gbw
Number of atoms                           ...     16
Number of basis functions                 ...    197
Max core memory                           ...   2109 MB

Dipole integrals                          ... YES
Quadrupole integrals                      ...  NO
Linear momentum integrals                 ...  NO
Angular momentum integrals                ...  NO
Higher moments length integrals           ...  NO
Higher moments velocity integrals         ...  NO
Kinetic energy integrals                  ...  NO
GIAO right hand sides                     ...  NO
GIAO dipole derivative integrals          ...  NO
SOC integrals                             ...  NO
EPR diamagnetic integrals (GIAO)          ...  NO
EPR gauge integrals                       ...  NO
Field gradient integrals                  ...  NO (   0 nuclei)
Spin-dipole/Fermi contact integrals       ...  NO (   0 nuclei)
Contact density integrals                 ...  NO (   0 nuclei)
Nucleus-orbit integrals                   ...  NO (   0 nuclei)
Geometric perturbations                   ...  NO (  16 nuclei)

Choice of electric origin   ... Center of mass
Position of electric origin ... (  0.0608, -0.6081, -0.1033) 
Choice of magnetic origin   ... GIAO
Position of magnetic origin ... (  0.0000,  0.0000,  0.0000) 

Calculating integrals                     ... Electric Dipole (Length)     done (  0.1 sec)

Property integrals calculated in   0.2 sec

Maximum memory used throughout the entire PROPINT-calculation: 10.6 MB

-------------------------   --------------------
FINAL SINGLE POINT ENERGY      -715.098846545363
-------------------------   --------------------



           ************************************************************
           *        Program running with 64 parallel MPI-processes    *
           *              working on a common directory               *
           ************************************************************
------------------------------------------------------------------------------
                         ORCA SCF GRADIENT CALCULATION
------------------------------------------------------------------------------

Nuc. rep. gradient        (SHARK) ... done (  0.0 sec)
HCore & Overlap gradient  (SHARK) ... done (  0.0 sec)
Split-RIJ-J gradient      (SHARK) ... done (  0.1 sec)
done (  1.2 sec)
XC gradient                       ... done (  0.6 sec)

------------------
CARTESIAN GRADIENT
------------------

   1   C   :   -0.068938314    0.009399573    0.002518582
   2   C   :    0.152804838   -0.092490347   -0.017743443
   3   C   :   -0.016410954    0.037623736    0.006640474
   4   C   :    0.004439436   -0.005179139   -0.000861557
   5   C   :   -0.007441876    0.020608079    0.003533851
   6   C   :    0.022744159   -0.028008677   -0.005315051
   7   O   :   -0.097567676    0.058531260    0.011248784
   8   N   :    0.024295403   -0.009322383   -0.001719180
   9   O   :   -0.040967497    0.034881336    0.006370149
  10   O   :    0.005402509   -0.025667846   -0.004433560
  11   N   :    0.000763221    0.003990132    0.000709294
  12   O   :   -0.005461898   -0.033686626   -0.005643875
  13   O   :    0.023576900    0.024490161    0.003782776
  14   H   :    0.005120032    0.001554761    0.000246582
  15   H   :    0.000934516   -0.000820357   -0.000223368
  16   H   :   -0.003292798    0.004096335    0.000889539

Difference to translation invariance:
           :   -0.0000000001   -0.0000000002   -0.0000000000

Difference to rotation invariance:
           :    0.0001194145    0.0006020154   -0.0002723768

Norm of the Cartesian gradient     ...    0.2459717241
RMS gradient                       ...    0.0355029603
MAX gradient                       ...    0.1528048383

-------
TIMINGS
-------

Total SCF gradient time     ....        1.894 sec

Densities                   ....       0.002 sec  (  0.1%)
One electron gradient       ....       0.021 sec  (  1.1%)
RI-J Coulomb gradient       ....       0.121 sec  (  6.4%)
COSX gradient               ....       1.162 sec  ( 61.4%)
XC gradient                 ....       0.585 sec  ( 30.9%)

Maximum memory used throughout the entire SCFGRAD-calculation: 19.6 MB
------------------------------------------------------------------------------
                         ORCA GEOMETRY RELAXATION STEP
------------------------------------------------------------------------------

Reading the OPT-File                    .... done
Getting information on internals        .... done
Copying old internal coords+grads       .... done
Making the new internal coordinates     .... (2022 redundants) done
Validating the new internal coordinates .... (2022 redundants) done
Calculating the B-matrix                .... done
Calculating the G,G- and P matrices     .... done
Transforming gradient to internals      .... done
Projecting the internal gradient        .... done
Number of atoms                         ....  16
Number of internal coordinates          ....  72
Current Energy                          ....  -715.098846545 Eh
Current gradient norm                   ....     0.245971724 Eh/bohr
Maximum allowed component of the step   ....  0.300
Current trust radius                    ....  0.300
Evaluating the initial hessian          ....  (Almloef) done
Projecting the Hessian                  .... done
Forming the augmented Hessian           .... done
Diagonalizing the augmented Hessian     .... done
Last element of RFO vector              ....  0.969307302
Lowest eigenvalues of augmented Hessian:
 -0.040366981  0.013735067  0.013735102  0.014126276  0.014126675
Length of the computed step             ....  0.253637108
The final length of the internal step   ....  0.253637108
Converting the step to Cartesian space:
 Initial RMS(Int)=    0.0298914198
Transforming coordinates:
 Iter   0:  RMS(Cart)=    0.0744268560 RMS(Int)=    2.5649848488
 Iter   5:  RMS(Cart)=    0.0000001223 RMS(Int)=    0.0000000875
done
Storing new coordinates                 .... done

                                .--------------------.
          ----------------------|Geometry convergence|-------------------------
          Item                value                   Tolerance       Converged
          ---------------------------------------------------------------------
          RMS gradient        0.0191377406            0.0001000000      NO
          MAX gradient        0.1143193239            0.0003000000      NO
          RMS step            0.0298914198            0.0020000000      NO
          MAX step            0.1764067368            0.0040000000      NO
          -------------------------------------------------------------------------
          ........................................................
          Max(Bonds)      0.0934      Max(Angles)    3.21
          Max(Dihed)        0.11      Max(Improp)    0.00
          ---------------------------------------------------------------------

The optimization has not yet converged - more geometry cycles are needed


    ---------------------------------------------------------------------------
                         Redundant Internal Coordinates
                            (Angstroem and degrees)

        Definition                    Value    dE/dq     Step     New-Value
    ----------------------------------------------------------------------------
     1. B(C   1,C   0)                1.3966 -0.038796  0.0324    1.4290   
     2. B(C   2,C   1)                1.4034 -0.039030  0.0333    1.4367   
     3. B(C   3,C   2)                1.4054  0.015282 -0.0128    1.3925   
     4. B(C   4,C   3)                1.4024  0.013106 -0.0117    1.3907   
     5. B(C   5,C   4)                1.4013 -0.009333  0.0069    1.4082   
     6. B(C   5,C   0)                1.3969  0.023776 -0.0193    1.3775   
     7. B(O   6,C   1)                1.3676  0.114319 -0.0934    1.2742   
     8. B(N   7,C   2)                1.4659  0.009201 -0.0105    1.4554   
     9. B(O   8,N   7)                1.2411  0.052584 -0.0307    1.2104   
    10. B(O   9,N   7)                1.2375  0.026541 -0.0153    1.2222   
    11. B(N  10,C   4)                1.4698  0.019363 -0.0224    1.4474   
    12. B(O  11,N  10)                1.2382  0.033870 -0.0196    1.2186   
    13. B(O  12,N  10)                1.2383  0.033782 -0.0195    1.2187   
    14. B(H  13,C   0)                1.0890  0.001135 -0.0015    1.0875   
    15. B(H  14,C   3)                1.0895  0.000925 -0.0012    1.0883   
    16. B(H  15,C   5)                1.0891 -0.000200  0.0003    1.0894   
    17. A(C   1,C   0,H  13)          119.73  0.009980   -1.43    118.29   
    18. A(C   5,C   0,H  13)          119.83 -0.000781    0.14    119.96   
    19. A(C   1,C   0,C   5)          120.45 -0.009199    1.30    121.74   
    20. A(C   0,C   1,O   6)          114.88 -0.014695    1.68    116.56   
    21. A(C   0,C   1,C   2)          119.80  0.024863   -2.81    116.99   
    22. A(C   2,C   1,O   6)          125.32 -0.010168    1.13    126.45   
    23. A(C   3,C   2,N   7)          118.79  0.024350   -3.21    115.58   
    24. A(C   1,C   2,N   7)          120.88 -0.019836    2.54    123.43   
    25. A(C   1,C   2,C   3)          120.33 -0.004514    0.67    121.00   
    26. A(C   2,C   3,C   4)          119.13 -0.005413    0.54    119.67   
    27. A(C   2,C   3,H  14)          120.59  0.003593   -0.40    120.19   
    28. A(C   4,C   3,H  14)          120.28  0.001820   -0.14    120.14   
    29. A(C   5,C   4,N  10)          119.57  0.000520    0.08    119.66   
    30. A(C   3,C   4,N  10)          119.73  0.005509   -0.57    119.17   
    31. A(C   3,C   4,C   5)          120.69 -0.006029    0.48    121.17   
    32. A(C   0,C   5,C   4)          119.60  0.000292   -0.18    119.42   
    33. A(C   0,C   5,H  15)          118.97 -0.005631    0.89    119.87   
    34. A(C   4,C   5,H  15)          121.42  0.005339   -0.71    120.71   
    35. A(O   8,N   7,O   9)          124.62  0.011657   -1.34    123.28   
    36. A(C   2,N   7,O   9)          117.99  0.007264   -0.95    117.04   
    37. A(C   2,N   7,O   8)          117.39 -0.018921    2.29    119.68   
    38. A(O  11,N  10,O  12)          124.78  0.009657   -1.11    123.67   
    39. A(C   4,N  10,O  12)          117.70 -0.002950    0.32    118.02   
    40. A(C   4,N  10,O  11)          117.52 -0.006707    0.79    118.31   
    41. D(C   2,C   1,C   0,H  13)   -180.00  0.000052   -0.05   -180.05   
    42. D(O   6,C   1,C   0,C   5)    180.00 -0.000002    0.00    180.00   
    43. D(C   2,C   1,C   0,C   5)      0.00  0.000013   -0.01     -0.01   
    44. D(O   6,C   1,C   0,H  13)      0.00  0.000037   -0.03     -0.03   
    45. D(C   3,C   2,C   1,C   0)     -0.00 -0.000019    0.02      0.02   
    46. D(N   7,C   2,C   1,O   6)     -0.00  0.000016   -0.01     -0.01   
    47. D(C   3,C   2,C   1,O   6)    180.00 -0.000003    0.00    180.00   
    48. D(N   7,C   2,C   1,C   0)    180.00 -0.000000    0.00    180.00   
    49. D(H  14,C   3,C   2,N   7)      0.00  0.000014   -0.01     -0.01   
    50. D(H  14,C   3,C   2,C   1)   -180.00  0.000032   -0.03   -180.03   
    51. D(C   4,C   3,C   2,N   7)   -180.00 -0.000000    0.00   -180.00   
    52. D(C   4,C   3,C   2,C   1)      0.00  0.000018   -0.02     -0.02   
    53. D(N  10,C   4,C   3,C   2)    180.00 -0.000034    0.03    180.03   
    54. D(C   5,C   4,C   3,H  14)   -180.00 -0.000024    0.02   -179.98   
    55. D(C   5,C   4,C   3,C   2)     -0.00 -0.000011    0.01      0.01   
    56. D(N  10,C   4,C   3,H  14)     -0.00 -0.000048    0.04      0.04   
    57. D(H  15,C   5,C   4,N  10)      0.00 -0.000063    0.05      0.05   
    58. D(C   0,C   5,C   4,N  10)   -180.00  0.000028   -0.02   -180.02   
    59. D(C   0,C   5,C   4,C   3)     -0.00  0.000004   -0.00     -0.00   
    60. D(H  15,C   5,C   0,H  13)     -0.00  0.000044   -0.04     -0.04   
    61. D(H  15,C   5,C   0,C   1)   -180.00  0.000084   -0.07   -180.07   
    62. D(H  15,C   5,C   4,C   3)    180.00 -0.000087    0.08    180.08   
    63. D(C   4,C   5,C   0,H  13)    180.00 -0.000045    0.04    180.04   
    64. D(C   4,C   5,C   0,C   1)      0.00 -0.000005    0.00      0.00   
    65. D(O   9,N   7,C   2,C   3)      0.00 -0.000033    0.04      0.04   
    66. D(O   9,N   7,C   2,C   1)   -180.00 -0.000051    0.05   -179.94   
    67. D(O   8,N   7,C   2,C   3)   -180.00  0.000109   -0.11   -180.11   
    68. D(O   8,N   7,C   2,C   1)      0.00  0.000090   -0.10     -0.09   
    69. D(O  12,N  10,C   4,C   3)   -180.00  0.000019   -0.02   -180.01   
    70. D(O  11,N  10,C   4,C   5)   -180.00  0.000019   -0.02   -180.02   
    71. D(O  11,N  10,C   4,C   3)      0.00  0.000042   -0.04     -0.04   
    72. D(O  12,N  10,C   4,C   5)      0.00 -0.000004    0.00      0.01   
    ----------------------------------------------------------------------------

Geometry step timings:
Preparation and reading OPT file:      0.000 s ( 0.828 %)
[...]
      7       0.043251  -0.069053  -0.103914  -0.000146  -0.000279  -0.001824
      8       0.008581  -0.011810  -0.020314  -0.000018  -0.000048  -0.000367
      9       0.134760   0.119469  -0.070205  -0.000669  -0.000468  -0.006284
     10       0.011536   0.105085   0.020196  -0.000766   0.000008   0.085842
     11       0.000045   0.016046   0.004498  -0.000123   0.000005   0.014440
     12      -0.127041  -0.128188  -0.009908   0.000427   0.000544  -0.003089
     13      -0.084702  -0.215335   0.000181   0.000215  -0.003268  -0.002354
     14      -0.011863  -0.033404   0.000165   0.000034  -0.000534  -0.000368
     15       0.104939   0.074663  -0.066643   0.015737   0.072933   0.000176
     16      -0.027585   0.048952   0.048678   0.014811   0.044068  -0.000551
     17      -0.006431   0.006806   0.009390   0.002175   0.005984  -0.000088
     18       0.191462  -0.112783   0.367208  -0.000729   0.000485  -0.000132
     19      -0.113956   0.062111  -0.194553   0.000267  -0.000197   0.000111
     20      -0.022519   0.012298  -0.039026   0.000057  -0.000034   0.000032
     21       0.370037  -0.320543  -0.251542   0.000231  -0.000097  -0.000522
     22      -0.400888   0.299368   0.201507   0.000000   0.000014   0.001149
     23      -0.078657   0.059489   0.040457  -0.000009   0.000002   0.000213
     24      -0.256758   0.220928   0.151906  -0.000067   0.000059  -0.000045
     25       0.114428  -0.094865  -0.067927   0.000020  -0.000022  -0.000130
     26       0.025338  -0.021054  -0.014969   0.000003  -0.000008  -0.000021
     27      -0.051877   0.040141   0.037447  -0.000058   0.000020   0.001003
     28       0.218226  -0.152179  -0.088325  -0.000059   0.000029  -0.000122
     29       0.040189  -0.027921  -0.016470  -0.000016  -0.000002  -0.000034
     30       0.199100   0.216756   0.050868   0.000309   0.001066   0.000293
     31       0.418140   0.534826  -0.018127   0.000279   0.000972   0.001143
     32       0.058980   0.076690  -0.004007   0.000038   0.000137   0.000181
     33      -0.001439  -0.000858  -0.006540  -0.000036  -0.000233  -0.000627
     34      -0.213754  -0.270176   0.019436  -0.000047  -0.000003  -0.000332
     35      -0.032701  -0.041456   0.003144  -0.000011   0.000006  -0.000044
     36      -0.152819  -0.172762  -0.023049  -0.000007  -0.000100   0.000067
     37      -0.122817  -0.148294  -0.010233  -0.000297  -0.000815  -0.000128
     38      -0.014757  -0.018148  -0.001004  -0.000047  -0.000117  -0.000019
     39      -0.031184   0.184061  -0.290013  -0.084557   0.026141  -0.000847
     40       0.034934   0.027145  -0.072272   0.941529  -0.263433   0.009242
     41       0.006359   0.000980  -0.007108   0.156617  -0.043839   0.001541
     42      -0.181444  -0.104677   0.068713  -0.000694   0.000595   0.070344
     43      -0.012156   0.125859   0.039313   0.009399  -0.001432  -0.979842
     44       0.002018   0.022896   0.005577   0.001566  -0.000259  -0.164982
     45       0.045720   0.111659  -0.002502  -0.227424  -0.807325  -0.001025
     46       0.107152   0.047049  -0.057669  -0.148788  -0.513025  -0.000930
     47       0.017190   0.005550  -0.009857  -0.020652  -0.070818  -0.000134


-----------
IR SPECTRUM
-----------

 Mode   freq       eps      Int      T**2         TX        TY        TZ
       cm**-1   L/(mol*cm) km/mol    a.u.
----------------------------------------------------------------------------
  6:      2.94   0.000000    0.00  0.000000  ( 0.000000  0.000000  0.000000)
  7:     69.54   0.000023    0.11  0.000101  ( 0.000787  0.001773 -0.009883)
  8:     95.08   0.001097    5.54  0.003599  (-0.001569  0.009967 -0.059140)
  9:    157.55   0.000595    3.01  0.001179  ( 0.000489  0.004702 -0.034009)
 10:    176.57   0.000246    1.24  0.000434  ( 0.001940  0.020645  0.002104)
 11:    289.09   0.000095    0.48  0.000103  (-0.000029  0.004290 -0.009185)
 12:    294.84   0.000561    2.84  0.000594  (-0.003847 -0.023526 -0.005060)
 13:    363.38   0.000627    3.17  0.000538  (-0.020233  0.011107  0.002359)
 14:    371.33   0.000172    0.87  0.000145  ( 0.011999  0.000841 -0.000037)
 15:    437.45   0.000208    1.05  0.000148  ( 0.000073 -0.011996 -0.002123)
 16:    443.73   0.000093    0.47  0.000065  (-0.000488 -0.000030  0.008067)
 17:    515.62   0.001526    7.71  0.000924  ( 0.000385 -0.006223  0.029748)
 18:    552.94   0.002763   13.96  0.001559  ( 0.007685 -0.038126 -0.006824)
 19:    603.20   0.000701    3.54  0.000363  (-0.017200  0.008119  0.001020)
 20:    649.71   0.001729    8.74  0.000830  (-0.007832  0.027273  0.005032)
 21:    730.23   0.000730    3.69  0.000312  (-0.001982  0.003593 -0.017175)
 22:    747.35   0.007683   38.82  0.003208  (-0.056617  0.001165  0.001056)
 23:    790.69   0.007266   36.72  0.002868  ( 0.001187 -0.008550  0.052850)
 24:    799.99   0.000550    2.78  0.000215  ( 0.000206  0.002298 -0.014467)
 25:    845.56   0.000240    1.21  0.000089  (-0.009349 -0.001076  0.000163)
 26:    862.77   0.007005   35.40  0.002534  (-0.001271  0.008733 -0.049557)
 27:    885.23   0.002113   10.68  0.000745  (-0.014713 -0.022730 -0.003430)
 28:    968.37   0.005183   26.19  0.001670  (-0.039599 -0.010102 -0.000428)
 29:    984.24   0.001118    5.65  0.000354  (-0.004306  0.002260 -0.018184)
 30:   1019.56   0.000029    0.15  0.000009  (-0.000287 -0.000003 -0.002954)
 31:   1074.83   0.019024   96.14  0.005523  ( 0.073704  0.009551  0.000021)
 32:   1122.75   0.009195   46.47  0.002556  (-0.012417 -0.048327 -0.008134)
 33:   1161.55   0.018634   94.17  0.005006  (-0.065906  0.025183  0.005346)
 34:   1238.80   0.003303   16.69  0.000832  (-0.015697  0.023818  0.004278)
 35:   1333.11   0.015756   79.62  0.003688  (-0.060303 -0.007182 -0.000483)
 36:   1419.47   0.120620  609.56  0.026518  (-0.158378 -0.037608 -0.004425)
 37:   1427.93   0.153600  776.23  0.033568  ( 0.181795  0.022724  0.001613)
 38:   1478.51   0.114228  577.26  0.024110  ( 0.077052 -0.132642 -0.024059)
 39:   1535.12   0.002667   13.48  0.000542  ( 0.016437 -0.016229 -0.002937)
 40:   1597.26   0.001568    7.92  0.000306  (-0.017490 -0.000462 -0.000412)
 41:   1681.33   0.003484   17.61  0.000647  (-0.012665  0.021840  0.003035)
 42:   1706.30   0.022640  114.41  0.004141  ( 0.054812  0.033583  0.002898)
 43:   1718.78   0.056122  283.62  0.010190  ( 0.029999  0.095227  0.014880)
 44:   1801.10   0.143118  723.26  0.024797  (-0.134721  0.079909  0.016181)
 45:   3219.70   0.001323    6.68  0.000128  ( 0.001277 -0.011074 -0.001979)
 46:   3249.43   0.000627    3.17  0.000060  (-0.000319  0.007655  0.001235)
 47:   3282.69   0.002796   14.13  0.000266  (-0.000744 -0.016053 -0.002746)

* The epsilon (eps) is given for a Dirac delta lineshape.
** The dipole moment derivative (T) already includes vibrational overlap.

The first frequency considered to be a vibration is 6
The total number of vibrations considered is 42


--------------------------
THERMOCHEMISTRY AT 298.15K
--------------------------

Temperature         ...   298.15 K
Pressure            ...     1.00 atm
Total Mass          ...   183.10 AMU
Quasi RRHO          ...     True
Cut-Off Frequency   ...     1.00 cm^-1

Throughout the following assumptions are being made:
  (1) The electronic state is orbitally nondegenerate
  (2) There are no thermally accessible electronically excited states
  (3) Hindered rotations indicated by low frequency modes are not
      treated as such but are treated as vibrations and this may
      cause some error
  (4) All equations used are the standard statistical mechanics
      equations for an ideal gas
  (5) All vibrations are strictly harmonic

freq.       2.94  E(vib)   ...       0.59 
freq.      69.54  E(vib)   ...       0.50 
freq.      95.08  E(vib)   ...       0.47 
freq.     157.55  E(vib)   ...       0.40 
freq.     176.57  E(vib)   ...       0.38 
freq.     289.09  E(vib)   ...       0.27 
freq.     294.84  E(vib)   ...       0.27 
freq.     363.38  E(vib)   ...       0.22 
freq.     371.33  E(vib)   ...       0.21 
freq.     437.45  E(vib)   ...       0.17 
freq.     443.73  E(vib)   ...       0.17 
freq.     515.62  E(vib)   ...       0.13 
freq.     552.94  E(vib)   ...       0.12 
freq.     603.20  E(vib)   ...       0.10 
freq.     649.71  E(vib)   ...       0.08 
freq.     730.23  E(vib)   ...       0.06 
freq.     747.35  E(vib)   ...       0.06 
freq.     790.69  E(vib)   ...       0.05 
freq.     799.99  E(vib)   ...       0.05 
freq.     845.56  E(vib)   ...       0.04 
freq.     862.77  E(vib)   ...       0.04 
freq.     885.23  E(vib)   ...       0.04 
freq.     968.37  E(vib)   ...       0.03 
freq.     984.24  E(vib)   ...       0.02 
freq.    1019.56  E(vib)   ...       0.02 
freq.    1074.83  E(vib)   ...       0.02 
freq.    1122.75  E(vib)   ...       0.01 
freq.    1161.55  E(vib)   ...       0.01 
freq.    1238.80  E(vib)   ...       0.01 
freq.    1333.11  E(vib)   ...       0.01 
freq.    1419.47  E(vib)   ...       0.00 
freq.    1427.93  E(vib)   ...       0.00 
freq.    1478.51  E(vib)   ...       0.00 
freq.    1535.12  E(vib)   ...       0.00 
freq.    1597.26  E(vib)   ...       0.00 
freq.    1681.33  E(vib)   ...       0.00 
freq.    1706.30  E(vib)   ...       0.00 
freq.    1718.78  E(vib)   ...       0.00 
freq.    1801.10  E(vib)   ...       0.00 
freq.    3219.70  E(vib)   ...       0.00 
freq.    3249.43  E(vib)   ...       0.00 
freq.    3282.69  E(vib)   ...       0.00 

------------
INNER ENERGY
------------

The inner energy is: U= E(el) + E(ZPE) + E(vib) + E(rot) + E(trans)
    E(el)   - is the total energy from the electronic structure calculation
              = E(kin-el) + E(nuc-el) + E(el-el) + E(nuc-nuc)
    E(ZPE)  - the the zero temperature vibrational energy from the frequency calculation
    E(vib)  - the the finite temperature correction to E(ZPE) due to population
              of excited vibrational states
    E(rot)  - is the rotational thermal energy
    E(trans)- is the translational thermal energy

Summary of contributions to the inner energy U:
Electronic energy                ...   -715.13279134 Eh
Zero point energy                ...      0.09956879 Eh      62.48 kcal/mol
Thermal vibrational correction   ...      0.00727221 Eh       4.56 kcal/mol
Thermal rotational correction    ...      0.00141627 Eh       0.89 kcal/mol
Thermal translational correction ...      0.00141627 Eh       0.89 kcal/mol
-----------------------------------------------------------------------
Total thermal energy                   -715.02311780 Eh


Summary of corrections to the electronic energy:
(perhaps to be used in another calculation)
Total thermal correction                  0.01010475 Eh       6.34 kcal/mol
Non-thermal (ZPE) correction              0.09956879 Eh      62.48 kcal/mol
-----------------------------------------------------------------------
Total correction                          0.10967354 Eh      68.82 kcal/mol


--------
ENTHALPY
--------

The enthalpy is H = U + kB*T
                kB is Boltzmann's constant
Total thermal energy              ...   -715.02311780 Eh 
Thermal Enthalpy correction       ...      0.00094421 Eh       0.59 kcal/mol
-----------------------------------------------------------------------
Total Enthalpy                    ...   -715.02217359 Eh


Note: Only C1 symmetry has been detected, increase convergence thresholds 
      if your molecule has a higher symmetry. Symmetry factor of 1.0 is   
      used for the rotational entropy correction. 
 

Note: Rotational entropy computed according to Herzberg 
Infrared and Raman Spectra, Chapter V,1, Van Nostrand Reinhold, 1945 
Point Group:  C1, Symmetry Number:   1  
Rotational constants in cm-1:     0.049914     0.018880     0.013699 

Vibrational entropy computed according to the QRRHO of S. Grimme
Chem.Eur.J. 2012 18 9955 using a reference frequency of 100.0 cm-1


-------
ENTROPY
-------

The entropy contributions are T*S = T*(S(el)+S(vib)+S(rot)+S(trans))
     S(el)   - electronic entropy
     S(vib)  - vibrational entropy
     S(rot)  - rotational entropy
     S(trans)- translational entropy
The entropies will be listed as multiplied by the temperature to get
units of energy

Electronic entropy                ...      0.00000000 Eh      0.00 kcal/mol
Vibrational entropy               ...      0.01361188 Eh      8.54 kcal/mol
Rotational entropy                ...      0.01482537 Eh      9.30 kcal/mol
Translational entropy             ...      0.01972788 Eh     12.38 kcal/mol
-----------------------------------------------------------------------
Final entropy term                ...      0.04816513 Eh     30.22 kcal/mol

In case the symmetry of your molecule has not been determined correctly
or in case you have a reason to use a different symmetry number we print 
out the resulting rotational entropy values for sn=1,12:

 non-linear molecules -----------------------------------
|  sn= 1 | S(rot)=       0.01482537 Eh      9.30 kcal/mol|
|  sn= 2 | S(rot)=       0.01417091 Eh      8.89 kcal/mol|
|  sn= 3 | S(rot)=       0.01378808 Eh      8.65 kcal/mol|
|  sn= 4 | S(rot)=       0.01351645 Eh      8.48 kcal/mol|
|  sn= 5 | S(rot)=       0.01330577 Eh      8.35 kcal/mol|
|  sn= 6 | S(rot)=       0.01313362 Eh      8.24 kcal/mol|
|  sn= 7 | S(rot)=       0.01298807 Eh      8.15 kcal/mol|
|  sn= 8 | S(rot)=       0.01286200 Eh      8.07 kcal/mol|
|  sn= 9 | S(rot)=       0.01275079 Eh      8.00 kcal/mol|
|  sn=10 | S(rot)=       0.01265131 Eh      7.94 kcal/mol|
|  sn=11 | S(rot)=       0.01256132 Eh      7.88 kcal/mol|
|  sn=12 | S(rot)=       0.01247916 Eh      7.83 kcal/mol|
 linear molecules ---------------------------------------
|  Dinfh | S(rot)=       0.00937674 Eh      5.88 kcal/mol|
|  Cinfv | S(rot)=       0.01003119 Eh      6.29 kcal/mol|
 --------------------------------------------------------


-------------------
GIBBS FREE ENERGY
-------------------

The Gibbs free energy is G = H - T*S

Total enthalpy                    ...   -715.02217359 Eh 
Total entropy correction          ...     -0.04816513 Eh    -30.22 kcal/mol
-----------------------------------------------------------------------
Final Gibbs free energy         ...   -715.07033872 Eh

For completeness - the Gibbs free energy minus the electronic energy
G-E(el)                           ...      0.06245262 Eh     39.19 kcal/mol


Maximum memory used throughout the entire PROP-calculation: 55.1 MB

--------------------------------
SUGGESTED CITATIONS FOR THIS RUN
--------------------------------

Below you find a list of papers that are relevant to this ORCA run
We neither can nor want to force you to cite these papers, but we appreciate if you do
You receive ORCA, which is the product of decades of hard work by many enthusiastic individuals, for free
The only thing we kindly ask in return is that you cite our papers,
We deeply appreciate it, if you show your appreciation for ORCA by not just citing the generic ORCA reference.

Please note that relegating all ORCA citations to the supporting information does *not* help us.
SI sections are not indexed - citations you put there will not count into any citation statistics
But we need these citations in order to attract the funding resources that allow us to do what we are doing

Therefore, if you are a happy ORCA user, please consider citing a few of the papers listed below in the main body of your paper

In addition to the list printed below, the program has created the file /lustre/project/xlzhang/jingyi/chemsmart/test_pka/orca/pka_scale_frag4_pka_A_opt.bibtex that contains the list in bibtex format
You can import this file easily into all common literature databanks and citation aid programs


List of essential papers. We consider these as the minimum necessary citations

  1. Neese, F.
     Software update: the ORCA program system, version 6.0
     WIRES Comput. Molec. Sci. 2025 15(1), e70019
     doi.org/10.1002/wcms.7019

List of papers to cite with high priority. The work reported in these papers was absolutely
necessary for this run to complete.
Our perspective: the developers of density functionals and basis sets usually get cited in chemistry papers
Good! But without the algorithms to do something with them, the functionals or basis sets would not do anything.
Hence, in our opinion, the algorithm design and method developments papers are equally worthy of getting cited

  1. Neese, F.
     An improvement of the resolution of the identity approximation for the formation of the Coulomb matrix
     J. Comp. Chem. 2003 24(14), 1740-1747
     doi.org/10.1002/jcc.10318
  2. Neese, F.; Wennmohs, F.; Hansen, A.; Becker, U.
     Efficient, approximate and parallel Hartree-Fock and hybrid DFT calculations. A 'chain-of-spheres' algorithm for the Hartree-Fock exchange
     Chem. Phys. 2009 356(1-3), 98-109
     doi.org/10.1016/j.chemphys.2008.10.036
  3. Bykov, D.; Petrenko, T.; Izsak, R.; Kossmann, S.; Becker, U.; Valeev, E.; Neese, F.
     Efficient implementation of the analytic second derivatives of Hartree-Fock and hybrid DFT energies: a detailed analysis of different approximations
     Molec. Phys. 2015 113 , 1961-1977
     doi.org/10.1080/00268976.2015.1025114
  4. Helmich-Paris, B.; de Souza, B.; Neese, F.; Izsák, R.
     An improved chain of spheres for exchange algorithm
     J. Chem. Phys. 2021 155(10), 104109
     doi.org/10.1063/5.0058766
  5. Neese, F.
     The SHARK Integral Generation and Digestion System
     J. Comp. Chem. 2022 44(3), 381
     doi.org/10.1002/jcc.26942

List of suggested additional citations. These are papers that are important in the 'surrounding' of 
of this run, or papers that preceded the highly important papers. If you like your results we are grateful for a citation.

  1. Izsak, R.; Neese, F.
     An overlap fitted chain of spheres exchange method
     J. Chem. Phys. 2011 135 , 144105
     doi.org/10.1063/1.3646921
  2. Izsak, R.; Hansen, A.; Neese, F.
     The resolution of identity and chain of spheres approximations for the LPNO-CCSD singles Fock term
     Molec. Phys. 2012 110 , 2413-2417
     doi.org/10.1080/00268976.2012.687466
  3. Neese, F.
     The ORCA program system
     WIRES Comput. Molec. Sci. 2012 2(1), 73-78
     doi.org/10.1002/wcms.81
  4. Izsak, R.; Neese, F.; Klopper, W.
     Robust fitting techniques in the chain of spheres approximation to the Fock exchange: The role of the complementary space
     J. Chem. Phys. 2013 139 , 
     doi.org/10.1063/1.4819264
  5. Neese, F.
     Software update: the ORCA program system, version 4.0
     WIRES Comput. Molec. Sci. 2018 8(1), 1-6
     doi.org/10.1002/wcms.1327
  6. Neese, F.; Wennmohs, F.; Becker, U.; Riplinger, C.
     The ORCA quantum chemistry program package
     J. Chem. Phys. 2020 152(22), 224108
     doi.org/10.1063/5.0004608
  7. Neese, F.
     Software update: The ORCA program system—Version 5.0
     WIRES Comput. Molec. Sci. 2022 12(1), e1606
     doi.org/10.1002/wcms.1606

List of optional additional citations

  1. Neese, F.
     Approximate second-order SCF convergence for spin unrestricted wavefunctions
     Chem. Phys. Lett. 2000 325(1-3), 93-98
     doi.org/10.1016/s0009-2614(00)00662-x

Timings for individual modules:

Sum of individual times          ...      429.838 sec (=   7.164 min)
Startup calculation              ...       68.663 sec (=   1.144 min)  16.0 %
SCF iterations                   ...      243.621 sec (=   4.060 min)  56.7 %
Property integrals               ...       38.167 sec (=   0.636 min)   8.9 %
SCF Response                     ...       24.889 sec (=   0.415 min)   5.8 %
Property calculations            ...       13.916 sec (=   0.232 min)   3.2 %
SCF Gradient evaluation          ...       40.407 sec (=   0.673 min)   9.4 %
Geometry relaxation              ...        0.175 sec (=   0.003 min)   0.0 %
                             ****ORCA TERMINATED NORMALLY****
TOTAL RUN TIME: 0 days 0 hours 8 minutes 31 seconds 739 msec
