 Entering Gaussian System, Link 0=/project/xlzhang/shared/bin/g16/g16
 Input=/lustre/project/xlzhang/jingyi/chemsmart/test_pka/gaussian/pka_scale_frag5_pka_HA_opt.com
 Output=/lustre/project/xlzhang/jingyi/chemsmart/test_pka/gaussian/pka_scale_frag5_pka_HA_opt.log
 Initial command:
 /project/xlzhang/shared/bin/g16/l1.exe "/lustre/project/xlzhang/jingyi/chemsmart/test_pka/gaussian/Gau-3442542.inp" -scrdir="/lustre/project/xlzhang/jingyi/chemsmart/test_pka/gaussian/"
 Entering Link 1 = /project/xlzhang/shared/bin/g16/l1.exe PID=   3442543.
  
 Copyright (c) 1988-2017, Gaussian, Inc.  All Rights Reserved.
  
 This is part of the Gaussian(R) 16 program.  It is based on
 the Gaussian(R) 09 system (copyright 2009, Gaussian, Inc.),
 the Gaussian(R) 03 system (copyright 2003, Gaussian, Inc.),
 the Gaussian(R) 98 system (copyright 1998, Gaussian, Inc.),
 the Gaussian(R) 94 system (copyright 1995, Gaussian, Inc.),
 the Gaussian 92(TM) system (copyright 1992, Gaussian, Inc.),
 the Gaussian 90(TM) system (copyright 1990, Gaussian, Inc.),
 the Gaussian 88(TM) system (copyright 1988, Gaussian, Inc.),
 the Gaussian 86(TM) system (copyright 1986, Carnegie Mellon
 University), and the Gaussian 82(TM) system (copyright 1983,
 Carnegie Mellon University). Gaussian is a federally registered
 trademark of Gaussian, Inc.
  
 This software contains proprietary and confidential information,
 including trade secrets, belonging to Gaussian, Inc.
  
 This software is provided under written license and may be
 used, copied, transmitted, or stored only in accord with that
 written license.
  
 The following legend is applicable only to US Government
 contracts under FAR:
  
                    RESTRICTED RIGHTS LEGEND
  
 Use, reproduction and disclosure by the US Government is
 subject to restrictions as set forth in subparagraphs (a)
 and (c) of the Commercial Computer Software - Restricted
 Rights clause in FAR 52.227-19.
  
 Gaussian, Inc.
 340 Quinnipiac St., Bldg. 40, Wallingford CT 06492
  
  
 ---------------------------------------------------------------
 Warning -- This program may not be used in any manner that
 competes with the business of Gaussian, Inc. or will provide
 assistance to any competitor of Gaussian, Inc.  The licensee
 of this program is prohibited from giving any competitor of
 Gaussian, Inc. access to this program.  By using this program,
 the user acknowledges that Gaussian, Inc. is engaged in the
 business of creating and licensing software in the field of
 computational chemistry and represents and warrants to the
 licensee that it is not a competitor of Gaussian, Inc. and that
 it will not use this program in any manner prohibited above.
 ---------------------------------------------------------------
  

 Cite this work as:
 Gaussian 16, Revision B.01,
 M. J. Frisch, G. W. Trucks, H. B. Schlegel, G. E. Scuseria, 
 M. A. Robb, J. R. Cheeseman, G. Scalmani, V. Barone, 
 G. A. Petersson, H. Nakatsuji, X. Li, M. Caricato, A. V. Marenich, 
 J. Bloino, B. G. Janesko, R. Gomperts, B. Mennucci, H. P. Hratchian, 
 J. V. Ortiz, A. F. Izmaylov, J. L. Sonnenberg, D. Williams-Young, 
 F. Ding, F. Lipparini, F. Egidi, J. Goings, B. Peng, A. Petrone, 
 T. Henderson, D. Ranasinghe, V. G. Zakrzewski, J. Gao, N. Rega, 
 G. Zheng, W. Liang, M. Hada, M. Ehara, K. Toyota, R. Fukuda, 
 J. Hasegawa, M. Ishida, T. Nakajima, Y. Honda, O. Kitao, H. Nakai, 
 T. Vreven, K. Throssell, J. A. Montgomery, Jr., J. E. Peralta, 
 F. Ogliaro, M. J. Bearpark, J. J. Heyd, E. N. Brothers, K. N. Kudin, 
 V. N. Staroverov, T. A. Keith, R. Kobayashi, J. Normand, 
 K. Raghavachari, A. P. Rendell, J. C. Burant, S. S. Iyengar, 
 J. Tomasi, M. Cossi, J. M. Millam, M. Klene, C. Adamo, R. Cammi, 
 J. W. Ochterski, R. L. Martin, K. Morokuma, O. Farkas, 
 J. B. Foresman, and D. J. Fox, Gaussian, Inc., Wallingford CT, 2016.
 
 ******************************************
 Gaussian 16:  ES64L-G16RevB.01 20-Dec-2017
                10-Jun-2026 
 ******************************************
 %chk=pka_scale_frag5_pka_HA_opt.chk
 %nprocshared=64
 Will use up to   64 processors via shared memory.
 %mem=180GB
 -----------------------
 # opt freq mn15 def2svp
 -----------------------
 1/18=20,19=15,26=3,38=1/1,3;
 2/9=110,12=2,17=6,18=5,40=1/2;
 3/5=43,7=101,11=2,25=1,30=1,71=1,74=-73/1,2,3;
 4//1;
 5/5=2,38=5/2;
 6/7=2,8=2,9=2,10=2,28=1/1;
 7//1,2,3,16;
 1/18=20,19=15,26=3/3(2);
 2/9=110/2;
 99//99;
 2/9=110/2;
 3/5=43,7=101,11=2,25=1,30=1,71=1,74=-73/1,2,3;
 4/5=5,16=3,69=1/1;
 5/5=2,38=5/2;
 7//1,2,3,16;
 1/18=20,19=15,26=3/3(-5);
 2/9=110/2;
 6/7=2,8=2,9=2,10=2,19=2,28=1/1;
 99/9=1/99;
 ----------------------------
 Gaussian pKa calculation job
 ----------------------------
 Symbolic Z-matrix:
 Charge =  0 Multiplicity = 1
 C                     0.61095  -0.36495   0.12408 
 C                     0.32324   0.98204   0.38695 
 C                    -0.99203   1.44722   0.30329 
 C                    -2.0247    0.57276  -0.03304 
 C                    -1.74928  -0.77104  -0.27886 
 C                    -0.43714  -1.24037  -0.19589 
 C                     1.98576  -0.93055   0.19897 
 O                     2.16516  -2.11339   0.45673 
 S                     3.34931   0.12362  -0.1422 
 H                     1.09964   1.6829    0.68186 
 H                    -1.21374   2.49184   0.51027 
 H                    -3.04773   0.93701  -0.09387 
 H                    -2.55587  -1.45563  -0.53059 
 H                    -0.23449  -2.29391  -0.3832 
 H                     2.72093   0.93245  -1.00447 
 

 GradGradGradGradGradGradGradGradGradGradGradGradGradGradGradGradGradGrad
 Berny optimization.
 Initialization pass.
                           ----------------------------
                           !    Initial Parameters    !
                           ! (Angstroms and Degrees)  !
 --------------------------                            --------------------------
 ! Name  Definition              Value          Derivative Info.                !
 --------------------------------------------------------------------------------
 ! R1    R(1,2)                  1.4022         estimate D2E/DX2                !
 ! R2    R(1,6)                  1.4026         estimate D2E/DX2                !
 ! R3    R(1,7)                  1.4885         estimate D2E/DX2                !
 ! R4    R(2,3)                  1.3976         estimate D2E/DX2                !
 ! R5    R(2,10)                 1.0867         estimate D2E/DX2                !
 ! R6    R(3,4)                  1.3943         estimate D2E/DX2                !
 ! R7    R(3,11)                 1.0878         estimate D2E/DX2                !
 ! R8    R(4,5)                  1.3936         estimate D2E/DX2                !
 ! R9    R(4,12)                 1.0876         estimate D2E/DX2                !
 ! R10   R(5,6)                  1.396          estimate D2E/DX2                !
 ! R11   R(5,13)                 1.0875         estimate D2E/DX2                !
 ! R12   R(6,14)                 1.0891         estimate D2E/DX2                !
 ! R13   R(7,8)                  1.2238         estimate D2E/DX2                !
 ! R14   R(7,9)                  1.757          estimate D2E/DX2                !
 ! R15   R(9,15)                 1.3389         estimate D2E/DX2                !
 ! A1    A(2,1,6)              119.2752         estimate D2E/DX2                !
 ! A2    A(2,1,7)              123.0307         estimate D2E/DX2                !
 ! A3    A(6,1,7)              117.6777         estimate D2E/DX2                !
 ! A4    A(1,2,3)              120.1053         estimate D2E/DX2                !
 ! A5    A(1,2,10)             121.5879         estimate D2E/DX2                !
 ! A6    A(3,2,10)             118.2901         estimate D2E/DX2                !
 ! A7    A(2,3,4)              120.1777         estimate D2E/DX2                !
 ! A8    A(2,3,11)             120.0036         estimate D2E/DX2                !
 ! A9    A(4,3,11)             119.816          estimate D2E/DX2                !
 ! A10   A(3,4,5)              120.0606         estimate D2E/DX2                !
 ! A11   A(3,4,12)             120.005          estimate D2E/DX2                !
 ! A12   A(5,4,12)             119.9315         estimate D2E/DX2                !
 ! A13   A(4,5,6)              119.9641         estimate D2E/DX2                !
 ! A14   A(4,5,13)             120.0847         estimate D2E/DX2                !
 ! A15   A(6,5,13)             119.9506         estimate D2E/DX2                !
 ! A16   A(1,6,5)              120.4034         estimate D2E/DX2                !
 ! A17   A(1,6,14)             120.2634         estimate D2E/DX2                !
 ! A18   A(5,6,14)             119.3331         estimate D2E/DX2                !
 ! A19   A(1,7,8)              120.8802         estimate D2E/DX2                !
 ! A20   A(1,7,9)              118.6235         estimate D2E/DX2                !
 ! A21   A(8,7,9)              120.4668         estimate D2E/DX2                !
 ! A22   A(7,9,15)              97.0813         estimate D2E/DX2                !
 ! D1    D(6,1,2,3)             -1.2699         estimate D2E/DX2                !
 ! D2    D(6,1,2,10)           177.2191         estimate D2E/DX2                !
 ! D3    D(7,1,2,3)           -179.7624         estimate D2E/DX2                !
 ! D4    D(7,1,2,10)            -1.2734         estimate D2E/DX2                !
 ! D5    D(2,1,6,5)              1.3029         estimate D2E/DX2                !
 ! D6    D(2,1,6,14)          -178.7597         estimate D2E/DX2                !
 ! D7    D(7,1,6,5)            179.8757         estimate D2E/DX2                !
 ! D8    D(7,1,6,14)            -0.1869         estimate D2E/DX2                !
 ! D9    D(2,1,7,8)            152.6788         estimate D2E/DX2                !
 ! D10   D(2,1,7,9)            -29.2888         estimate D2E/DX2                !
 ! D11   D(6,1,7,8)            -25.8363         estimate D2E/DX2                !
 ! D12   D(6,1,7,9)            152.1961         estimate D2E/DX2                !
 ! D13   D(1,2,3,4)              0.4261         estimate D2E/DX2                !
 ! D14   D(1,2,3,11)           179.8284         estimate D2E/DX2                !
 ! D15   D(10,2,3,4)          -178.1121         estimate D2E/DX2                !
 ! D16   D(10,2,3,11)            1.2901         estimate D2E/DX2                !
 ! D17   D(2,3,4,5)              0.4031         estimate D2E/DX2                !
 ! D18   D(2,3,4,12)           179.7813         estimate D2E/DX2                !
 ! D19   D(11,3,4,5)          -179.0003         estimate D2E/DX2                !
 ! D20   D(11,3,4,12)            0.3779         estimate D2E/DX2                !
 ! D21   D(3,4,5,6)             -0.3732         estimate D2E/DX2                !
 ! D22   D(3,4,5,13)           179.3335         estimate D2E/DX2                !
 ! D23   D(12,4,5,6)          -179.7518         estimate D2E/DX2                !
 ! D24   D(12,4,5,13)           -0.0452         estimate D2E/DX2                !
 ! D25   D(4,5,6,1)             -0.4865         estimate D2E/DX2                !
 ! D26   D(4,5,6,14)           179.5755         estimate D2E/DX2                !
 ! D27   D(13,5,6,1)           179.8065         estimate D2E/DX2                !
 ! D28   D(13,5,6,14)           -0.1315         estimate D2E/DX2                !
 ! D29   D(1,7,9,15)           -29.9846         estimate D2E/DX2                !
 ! D30   D(8,7,9,15)           148.0562         estimate D2E/DX2                !
 --------------------------------------------------------------------------------
 Trust Radius=3.00D-01 FncErr=1.00D-07 GrdErr=1.00D-06 EigMax=2.50D+02 EigMin=1.00D-04
 Number of steps in this run=     77 maximum allowed number of steps=    100.
 GradGradGradGradGradGradGradGradGradGradGradGradGradGradGradGradGradGrad

                          Input orientation:                          
 ---------------------------------------------------------------------
 Center     Atomic      Atomic             Coordinates (Angstroms)
 Number     Number       Type             X           Y           Z
 ---------------------------------------------------------------------
      1          6           0        0.610950   -0.364949    0.124078
      2          6           0        0.323240    0.982041    0.386951
      3          6           0       -0.992032    1.447217    0.303286
      4          6           0       -2.024703    0.572761   -0.033044
      5          6           0       -1.749283   -0.771036   -0.278863
      6          6           0       -0.437138   -1.240367   -0.195893
      7          6           0        1.985761   -0.930551    0.198968
      8          8           0        2.165155   -2.113395    0.456726
      9         16           0        3.349315    0.123619   -0.142204
     10          1           0        1.099638    1.682899    0.681864
     11          1           0       -1.213740    2.491838    0.510275
     12          1           0       -3.047729    0.937012   -0.093874
     13          1           0       -2.555870   -1.455633   -0.530593
     14          1           0       -0.234494   -2.293909   -0.383205
     15          1           0        2.720929    0.932454   -1.004472
 ---------------------------------------------------------------------
                    Distance matrix (angstroms):
                    1          2          3          4          5
     1  C    0.000000
     2  C    1.402234   0.000000
     3  C    2.426028   1.397615   0.000000
     4  C    2.801903   2.420071   1.394346   0.000000
     5  C    2.428574   2.794985   2.415155   1.393583   0.000000
     6  C    1.402579   2.420120   2.789300   2.415434   1.396024
     7  C    1.488496   2.541126   3.812074   4.289243   3.768863
     8  O    2.362894   3.602671   4.761231   5.001022   4.203076
     9  S    2.794324   3.189674   4.560445   5.393859   5.178299
    10  H    2.177986   1.086724   2.138679   3.391903   3.880869
    11  H    3.411726   2.158009   1.087765   2.153071   3.399396
    12  H    3.889542   3.405386   2.154979   1.087639   2.153511
    13  H    3.412761   3.882450   3.401100   2.155012   1.087484
    14  H    2.166333   3.411166   3.878292   3.397831   2.150491
    15  H    2.721928   2.772622   3.970049   4.857374   4.838511
                    6          7          8          9         10
     6  C    0.000000
     7  C    2.474337   0.000000
     8  O    2.821350   1.223822   0.000000
     9  S    4.024992   1.756971   2.600996   0.000000
    10  H    3.417254   2.801522   3.949413   2.858582   0.000000
    11  H    3.877002   4.695367   5.712090   5.182245   2.456734
    12  H    3.400966   5.376762   6.064841   6.448729   4.284713
    13  H    2.155780   4.629728   4.867805   6.125038   4.968216
    14  H    1.089082   2.669683   2.548801   4.329689   4.327734
    15  H    3.917696   2.336563   3.423621   1.338876   2.456722
                   11         12         13         14         15
    11  H    0.000000
    12  H    2.479112   0.000000
    13  H    4.297354   2.481410   0.000000
    14  H    4.965944   4.293815   2.472491   0.000000
    15  H    4.495304   5.840088   5.811380   4.419267   0.000000
 Stoichiometry    C7H6OS
 Framework group  C1[X(C7H6OS)]
 Deg. of freedom    39
 Full point group                 C1      NOp   1
 Largest Abelian subgroup         C1      NOp   1
 Largest concise Abelian subgroup C1      NOp   1
                         Standard orientation:                         
 ---------------------------------------------------------------------
 Center     Atomic      Atomic             Coordinates (Angstroms)
 Number     Number       Type             X           Y           Z
 ---------------------------------------------------------------------
      1          6           0       -0.110459    0.181753   -0.080267
      2          6           0       -0.606210   -1.109716   -0.309612
      3          6           0       -1.979172   -1.358215   -0.228666
      4          6           0       -2.862522   -0.321992    0.071561
      5          6           0       -2.379288    0.967781    0.283802
      6          6           0       -1.008759    1.220895    0.203402
      7          6           0        1.337148    0.520197   -0.154486
      8          8           0        1.703688    1.651805   -0.442328
      9         16           0        2.513795   -0.726256    0.231267
     10          1           0        0.051342   -1.932843   -0.576178
     11          1           0       -2.362216   -2.360094   -0.409635
     12          1           0       -3.930774   -0.517800    0.130343
     13          1           0       -3.068913    1.778392    0.507295
     14          1           0       -0.642982    2.234028    0.364236
     15          1           0        1.758896   -1.400237    1.107888
 ---------------------------------------------------------------------
 Rotational constants (GHZ):           3.1219365           0.9284428           0.7378001
 Standard basis: def2SVP (5D, 7F)
 There are   169 symmetry adapted cartesian basis functions of A   symmetry.
 There are   160 symmetry adapted basis functions of A   symmetry.
   160 basis functions,   279 primitive gaussians,   169 cartesian basis functions
    36 alpha electrons       36 beta electrons
       nuclear repulsion energy       465.6370080231 Hartrees.
 NAtoms=   15 NActive=   15 NUniq=   15 SFac= 1.00D+00 NAtFMM=   60 NAOKFM=F Big=F
 Integral buffers will be    131072 words long.
 Raffenetti 2 integral format.
 Two-electron integral symmetry is turned on.
 One-electron integrals computed using PRISM.
   1 Symmetry operations used in ECPInt.
 ECPInt:  NShTT=    2775 NPrTT=   10585 LenC2=    2726 LenP2D=    8085.
 LDataN:  DoStor=T MaxTD1= 4 Len=   56
 NBasis=   160 RedAO= T EigKep=  3.00D-04  NBF=   160
 NBsUse=   160 1.00D-06 EigRej= -1.00D+00 NBFU=   160
 ExpMin= 1.22D-01 ExpMax= 9.18D+03 ExpMxC= 1.38D+03 IAcc=3 IRadAn=         5 AccDes= 0.00D+00
 Harris functional with IExCor= 1009 and IRadAn=       5 diagonalized for initial guess.
 HarFok:  IExCor= 1009 AccDes= 0.00D+00 IRadAn=         5 IDoV= 1 UseB2=F ITyADJ=14
 ICtDFT=  3500011 ScaDFX=  1.000000  1.000000  1.000000  1.000000
 FoFCou: FMM=F IPFlag=           0 FMFlag=      100000 FMFlg1=           0
         NFxFlg=           0 DoJE=T BraDBF=F KetDBF=T FulRan=T
         wScrn=  0.000000 ICntrl=       500 IOpCl=  0 I1Cent=   200000004 NGrid=           0
         NMat0=    1 NMatS0=      1 NMatT0=    0 NMatD0=    1 NMtDS0=    0 NMtDT0=    0
 Petite list used in FoFCou.
 Requested convergence on RMS density matrix=1.00D-08 within 128 cycles.
 Requested convergence on MAX density matrix=1.00D-06.
 Requested convergence on             energy=1.00D-06.
 No special actions if energy rises.
 Integral accuracy reduced to 1.0D-05 until final iterations.  Initial convergence to 1.0D-05 achieved.  Increase integral accuracy.  SCF Done:  E(RMN15) =  -742.804287758     A.U. after   16 cycles
            NFock= 16  Conv=0.87D-08     -V/T= 2.0066

 **********************************************************************

            Population analysis using the SCF Density.

 **********************************************************************

 Orbital symmetries:
       Occupied  (A) (A) (A) (A) (A) (A) (A) (A) (A) (A) (A) (A)
                 (A) (A) (A) (A) (A) (A) (A) (A) (A) (A) (A) (A)
                 (A) (A) (A) (A) (A) (A) (A) (A) (A) (A) (A) (A)
       Virtual   (A) (A) (A) (A) (A) (A) (A) (A) (A) (A) (A) (A)
                 (A) (A) (A) (A) (A) (A) (A) (A) (A) (A) (A) (A)
                 (A) (A) (A) (A) (A) (A) (A) (A) (A) (A) (A) (A)
                 (A) (A) (A) (A) (A) (A) (A) (A) (A) (A) (A) (A)
                 (A) (A) (A) (A) (A) (A) (A) (A) (A) (A) (A) (A)
                 (A) (A) (A) (A) (A) (A) (A) (A) (A) (A) (A) (A)
                 (A) (A) (A) (A) (A) (A) (A) (A) (A) (A) (A) (A)
                 (A) (A) (A) (A) (A) (A) (A) (A) (A) (A) (A) (A)
                 (A) (A) (A) (A) (A) (A) (A) (A) (A) (A) (A) (A)
                 (A) (A) (A) (A) (A) (A) (A) (A) (A) (A) (A) (A)
                 (A) (A) (A) (A)
 The electronic state is 1-A.
 Alpha  occ. eigenvalues --  -87.78924 -18.81646 -10.16991 -10.07982 -10.07887
 Alpha  occ. eigenvalues --  -10.07474 -10.07440 -10.07307 -10.07140  -7.72972
 Alpha  occ. eigenvalues --   -5.92604  -5.91998  -5.91217  -1.07852  -0.91414
 Alpha  occ. eigenvalues --   -0.83413  -0.79887  -0.78977  -0.67928  -0.65658
 Alpha  occ. eigenvalues --   -0.60513  -0.56758  -0.52807  -0.51281  -0.49372
 Alpha  occ. eigenvalues --   -0.48003  -0.47604  -0.47124  -0.42272  -0.41499
 Alpha  occ. eigenvalues --   -0.40196  -0.39587  -0.31741  -0.30901  -0.30701
 Alpha  occ. eigenvalues --   -0.30151
 Alpha virt. eigenvalues --   -0.04171  -0.00143   0.04394   0.06515   0.09476
 Alpha virt. eigenvalues --    0.11947   0.13736   0.15723   0.17553   0.18392
 Alpha virt. eigenvalues --    0.19560   0.26921   0.27908   0.29611   0.31069
 Alpha virt. eigenvalues --    0.32763   0.33172   0.35264   0.38019   0.41473
 Alpha virt. eigenvalues --    0.42769   0.43530   0.46466   0.47467   0.48255
 Alpha virt. eigenvalues --    0.49316   0.50920   0.51456   0.53427   0.54631
 Alpha virt. eigenvalues --    0.57673   0.58270   0.59191   0.62787   0.63666
 Alpha virt. eigenvalues --    0.65883   0.67534   0.67944   0.68562   0.69695
 Alpha virt. eigenvalues --    0.70300   0.70400   0.72888   0.73585   0.74502
 Alpha virt. eigenvalues --    0.75853   0.76120   0.77127   0.79192   0.81423
 Alpha virt. eigenvalues --    0.84968   0.87913   0.89181   0.94912   0.96403
 Alpha virt. eigenvalues --    1.01570   1.03966   1.07277   1.07890   1.11338
 Alpha virt. eigenvalues --    1.15531   1.19566   1.23068   1.23935   1.24731
 Alpha virt. eigenvalues --    1.26858   1.28139   1.30213   1.30386   1.40419
 Alpha virt. eigenvalues --    1.49162   1.50887   1.54751   1.60483   1.63343
 Alpha virt. eigenvalues --    1.66284   1.67954   1.68180   1.71046   1.72522
 Alpha virt. eigenvalues --    1.73195   1.73976   1.74830   1.77314   1.80572
 Alpha virt. eigenvalues --    1.85540   1.88752   1.91773   1.94069   1.95495
 Alpha virt. eigenvalues --    1.96529   1.97585   2.00203   2.07157   2.09317
 Alpha virt. eigenvalues --    2.10692   2.11724   2.16783   2.22192   2.23309
 Alpha virt. eigenvalues --    2.23804   2.24352   2.28324   2.29157   2.35682
 Alpha virt. eigenvalues --    2.42452   2.48180   2.55120   2.55585   2.56136
 Alpha virt. eigenvalues --    2.68255   2.68598   2.69203   2.70559   2.77975
 Alpha virt. eigenvalues --    2.79369   2.81662   2.96788   3.03380   3.08168
 Alpha virt. eigenvalues --    3.11148   3.25483   3.50911   3.55204
          Condensed to atoms (all electrons):
               1          2          3          4          5          6
     1  C    5.897114   0.162590   0.115894  -0.188982   0.128086   0.172669
     2  C    0.162590   5.173131   0.278410   0.119273  -0.163866   0.097150
     3  C    0.115894   0.278410   5.039477   0.233607   0.123397  -0.154395
     4  C   -0.188982   0.119273   0.233607   5.139531   0.208952   0.135022
     5  C    0.128086  -0.163866   0.123397   0.208952   5.107846   0.228423
     6  C    0.172669   0.097150  -0.154395   0.135022   0.228423   5.127305
     7  C    0.122877  -0.081648   0.009434  -0.001464   0.019690  -0.053424
     8  O   -0.134892   0.001254  -0.000061  -0.000047   0.001562   0.013751
     9  S   -0.160980   0.004861   0.000379  -0.000027   0.000089   0.007309
    10  H   -0.094154   0.442319  -0.049783   0.016366  -0.002259   0.015810
    11  H    0.018195  -0.071641   0.447586  -0.078085   0.015850  -0.002402
    12  H   -0.001947   0.015951  -0.073277   0.446451  -0.073952   0.015411
    13  H    0.017701  -0.002118   0.015682  -0.078503   0.452160  -0.075703
    14  H   -0.083880   0.014918  -0.002121   0.015485  -0.064779   0.455275
    15  H    0.008327   0.001248  -0.000130  -0.000017  -0.000123  -0.000925
               7          8          9         10         11         12
     1  C    0.122877  -0.134892  -0.160980  -0.094154   0.018195  -0.001947
     2  C   -0.081648   0.001254   0.004861   0.442319  -0.071641   0.015951
     3  C    0.009434  -0.000061   0.000379  -0.049783   0.447586  -0.073277
     4  C   -0.001464  -0.000047  -0.000027   0.016366  -0.078085   0.446451
     5  C    0.019690   0.001562   0.000089  -0.002259   0.015850  -0.073952
     6  C   -0.053424   0.013751   0.007309   0.015810  -0.002402   0.015411
     7  C    4.928528   0.736610   0.340063  -0.018877  -0.000186   0.000031
     8  O    0.736610   7.624635  -0.073654  -0.000026   0.000001   0.000000
     9  S    0.340063  -0.073654  15.554280   0.019825  -0.000020   0.000000
    10  H   -0.018877  -0.000026   0.019825   0.708691  -0.015449  -0.000240
    11  H   -0.000186   0.000001  -0.000020  -0.015449   0.709409  -0.014016
    12  H    0.000031   0.000000   0.000000  -0.000240  -0.014016   0.706009
    13  H   -0.000336  -0.000010   0.000002   0.000022  -0.000241  -0.013923
    14  H   -0.014048   0.011354   0.000826  -0.000154   0.000019  -0.000221
    15  H   -0.009808   0.001547   0.293679  -0.001116   0.000012  -0.000000
              13         14         15
     1  C    0.017701  -0.083880   0.008327
     2  C   -0.002118   0.014918   0.001248
     3  C    0.015682  -0.002121  -0.000130
     4  C   -0.078503   0.015485  -0.000017
     5  C    0.452160  -0.064779  -0.000123
     6  C   -0.075703   0.455275  -0.000925
     7  C   -0.000336  -0.014048  -0.009808
     8  O   -0.000010   0.011354   0.001547
     9  S    0.000002   0.000826   0.293679
    10  H    0.000022  -0.000154  -0.001116
    11  H   -0.000241   0.000019   0.000012
    12  H   -0.013923  -0.000221  -0.000000
    13  H    0.705448  -0.013659   0.000001
    14  H   -0.013659   0.677005  -0.000098
    15  H    0.000001  -0.000098   0.638115
 Mulliken charges:
               1
     1  C    0.021382
     2  C    0.008169
     3  C    0.015901
     4  C    0.032439
     5  C    0.018923
     6  C    0.018722
     7  C    0.022560
     8  O   -0.182024
     9  S    0.013369
    10  H   -0.020973
    11  H   -0.009032
    12  H   -0.006278
    13  H   -0.006525
    14  H    0.004078
    15  H    0.069288
 Sum of Mulliken charges =  -0.00000
 Mulliken charges with hydrogens summed into heavy atoms:
               1
     1  C    0.021382
     2  C   -0.012804
     3  C    0.006869
     4  C    0.026161
     5  C    0.012398
     6  C    0.022800
     7  C    0.022560
     8  O   -0.182024
     9  S    0.082657
 Electronic spatial extent (au):  <R**2>=           1473.2300
 Charge=             -0.0000 electrons
 Dipole moment (field-independent basis, Debye):
    X=             -2.8589    Y=             -2.3258    Z=              1.1042  Tot=              3.8473
 Quadrupole moment (field-independent basis, Debye-Ang):
   XX=            -58.5012   YY=            -57.3742   ZZ=            -60.4418
   XY=             -4.4787   XZ=              1.0977   YZ=              1.1856
 Traceless Quadrupole moment (field-independent basis, Debye-Ang):
   XX=              0.2712   YY=              1.3982   ZZ=             -1.6694
   XY=             -4.4787   XZ=              1.0977   YZ=              1.1856
 Octapole moment (field-independent basis, Debye-Ang**2):
  XXX=            -24.4679  YYY=             -5.3647  ZZZ=             -0.0249  XYY=             -8.4495
  XXY=             -6.2692  XXZ=              3.2920  XZZ=             10.1434  YZZ=              0.0547
  YYZ=              4.7406  XYZ=             -3.6613
 Hexadecapole moment (field-independent basis, Debye-Ang**3):
 XXXX=          -1379.6213 YYYY=           -438.1508 ZZZZ=            -94.1223 XXXY=             -3.3781
 XXXZ=            -10.6509 YYYX=            -11.8166 YYYZ=              5.7426 ZZZX=              0.3994
 ZZZY=             -7.0397 XXYY=           -305.9472 XXZZ=           -263.2996 YYZZ=            -91.9943
 XXYZ=              1.1895 YYXZ=              9.2458 ZZXY=             -1.8953
 N-N= 4.656370080231D+02 E-N=-2.678470739964D+03  KE= 7.379191808786D+02
   1 Symmetry operations used in ECPInt.
 ECPInt:  NShTT=    2775 NPrTT=   10585 LenC2=    2726 LenP2D=    8085.
 LDataN:  DoStor=T MaxTD1= 5 Len=  102
 Calling FoFJK, ICntrl=      2127 FMM=F ISym2X=0 I1Cent= 0 IOpClX= 0 NMat=1 NMatS=1 NMatT=0.
 ***** Axes restored to original set *****
 -------------------------------------------------------------------
 Center     Atomic                   Forces (Hartrees/Bohr)
 Number     Number              X              Y              Z
 -------------------------------------------------------------------
      1        6          -0.003783789    0.005040801   -0.001428129
      2        6          -0.007343194    0.001179208   -0.001784210
      3        6           0.002430178   -0.003303429    0.000248721
      4        6           0.000696908    0.000808572    0.000456363
      5        6           0.005720177   -0.000379604    0.000798730
      6        6          -0.005610140    0.000405591    0.000456726
      7        6          -0.007549388   -0.036103790    0.003147499
      8        8           0.000339454    0.024896224   -0.002116561
      9       16           0.012486210    0.004465771   -0.001998812
     10        1           0.005688054    0.000021496    0.000096444
     11        1           0.000095194    0.002905827    0.000914536
     12        1          -0.003067662    0.001384158   -0.000369642
     13        1          -0.002007034   -0.002204623   -0.001040751
     14        1           0.004160337   -0.001241478    0.000322912
     15        1          -0.002255307    0.002125277    0.002296173
 -------------------------------------------------------------------
 Cartesian Forces:  Max     0.036103790 RMS     0.007386778

 GradGradGradGradGradGradGradGradGradGradGradGradGradGradGradGradGradGrad
 Berny optimization.
 FormGI is forming the generalized inverse of G from B-inverse, IUseBI=4.
 Internal  Forces:  Max     0.024457421 RMS     0.003914954
 Search for a local minimum.
 Step number   1 out of a maximum of   77
 All quantities printed in internal units (Hartrees-Bohrs-Radians)
 Mixed Optimization -- RFO/linear search
 Second derivative matrix not updated -- first step.
 ITU=  0
     Eigenvalues ---    0.00918   0.00930   0.00939   0.01708   0.02067
     Eigenvalues ---    0.02089   0.02099   0.02123   0.02141   0.02156
     Eigenvalues ---    0.02160   0.02169   0.15995   0.15999   0.15999
     Eigenvalues ---    0.16000   0.16000   0.16000   0.21999   0.22000
     Eigenvalues ---    0.23474   0.24991   0.24993   0.25000   0.26512
     Eigenvalues ---    0.29822   0.33615   0.34919   0.35072   0.35087
     Eigenvalues ---    0.35105   0.35194   0.41739   0.41823   0.45416
     Eigenvalues ---    0.46023   0.46153   0.46563   0.93710
 RFO step:  Lambda=-5.96809298D-03 EMin= 9.18125048D-03
 Linear search not attempted -- first point.
 Iteration  1 RMS(Cart)=  0.09440964 RMS(Int)=  0.02143826
 Iteration  2 RMS(Cart)=  0.03410034 RMS(Int)=  0.00185144
 Iteration  3 RMS(Cart)=  0.00131220 RMS(Int)=  0.00123829
 Iteration  4 RMS(Cart)=  0.00000247 RMS(Int)=  0.00123829
 Iteration  5 RMS(Cart)=  0.00000000 RMS(Int)=  0.00123829
 Variable       Old X    -DE/DX   Delta X   Delta X   Delta X     New X
                                 (Linear)    (Quad)   (Total)
    R1        2.64984  -0.00091   0.00000  -0.00238  -0.00238   2.64746
    R2        2.65049  -0.00142   0.00000  -0.00347  -0.00346   2.64702
    R3        2.81285   0.00461   0.00000   0.01348   0.01348   2.82633
    R4        2.64111  -0.00186   0.00000  -0.00401  -0.00401   2.63710
    R5        2.05361   0.00410   0.00000   0.01147   0.01147   2.06508
    R6        2.63493   0.00213   0.00000   0.00487   0.00487   2.63980
    R7        2.05558   0.00295   0.00000   0.00826   0.00826   2.06384
    R8        2.63349   0.00401   0.00000   0.00887   0.00886   2.64236
    R9        2.05534   0.00337   0.00000   0.00944   0.00944   2.06478
   R10        2.63810  -0.00210   0.00000  -0.00445  -0.00445   2.63365
   R11        2.05505   0.00312   0.00000   0.00873   0.00873   2.06378
   R12        2.05807   0.00192   0.00000   0.00540   0.00540   2.06347
   R13        2.31269  -0.02446   0.00000  -0.02593  -0.02593   2.28676
   R14        3.32019   0.01184   0.00000   0.03891   0.03891   3.35910
   R15        2.53011   0.00086   0.00000   0.00318   0.00318   2.53329
    A1        2.08174   0.00204   0.00000   0.00661   0.00659   2.08833
    A2        2.14729  -0.00008   0.00000   0.00025   0.00023   2.14752
    A3        2.05386  -0.00196   0.00000  -0.00712  -0.00713   2.04673
    A4        2.09623   0.00010   0.00000  -0.00026  -0.00027   2.09596
    A5        2.12211  -0.00401   0.00000  -0.02373  -0.02373   2.09838
    A6        2.06455   0.00391   0.00000   0.02400   0.02400   2.08855
    A7        2.09750  -0.00069   0.00000  -0.00218  -0.00220   2.09530
    A8        2.09446  -0.00042   0.00000  -0.00353  -0.00353   2.09093
    A9        2.09118   0.00112   0.00000   0.00577   0.00577   2.09696
   A10        2.09545  -0.00066   0.00000  -0.00115  -0.00117   2.09428
   A11        2.09448   0.00010   0.00000  -0.00078  -0.00078   2.09370
   A12        2.09320   0.00056   0.00000   0.00198   0.00199   2.09518
   A13        2.09377  -0.00005   0.00000   0.00083   0.00082   2.09459
   A14        2.09587   0.00044   0.00000   0.00207   0.00208   2.09795
   A15        2.09353  -0.00039   0.00000  -0.00291  -0.00290   2.09063
   A16        2.10144  -0.00073   0.00000  -0.00378  -0.00378   2.09765
   A17        2.09899  -0.00365   0.00000  -0.02234  -0.02233   2.07666
   A18        2.08276   0.00439   0.00000   0.02611   0.02611   2.10887
   A19        2.10976   0.00515   0.00000   0.02198   0.01616   2.12592
   A20        2.07037  -0.00156   0.00000  -0.00423  -0.00989   2.06048
   A21        2.10254  -0.00350   0.00000  -0.01180  -0.01739   2.08515
   A22        1.69439  -0.00262   0.00000  -0.01579  -0.01579   1.67860
    D1       -0.02216   0.00027   0.00000   0.01004   0.01005  -0.01211
    D2        3.09306   0.00032   0.00000   0.01049   0.01049   3.10354
    D3       -3.13744   0.00057   0.00000   0.02199   0.02204  -3.11541
    D4       -0.02222   0.00062   0.00000   0.02244   0.02248   0.00025
    D5        0.02274   0.00003   0.00000   0.00120   0.00122   0.02396
    D6       -3.11995  -0.00003   0.00000  -0.00081  -0.00077  -3.12072
    D7        3.13942  -0.00023   0.00000  -0.01001  -0.00999   3.12943
    D8       -0.00326  -0.00028   0.00000  -0.01202  -0.01199  -0.01525
    D9        2.66475  -0.00049   0.00000  -0.03124  -0.03159   2.63316
   D10       -0.51119   0.00248   0.00000   0.16659   0.16698  -0.34420
   D11       -0.45093  -0.00025   0.00000  -0.01967  -0.02006  -0.47099
   D12        2.65632   0.00271   0.00000   0.17816   0.17851   2.83484
   D13        0.00744  -0.00040   0.00000  -0.01380  -0.01378  -0.00634
   D14        3.13860  -0.00019   0.00000  -0.00637  -0.00637   3.13222
   D15       -3.10864  -0.00033   0.00000  -0.01353  -0.01350  -3.12214
   D16        0.02252  -0.00013   0.00000  -0.00610  -0.00610   0.01642
   D17        0.00704   0.00016   0.00000   0.00603   0.00604   0.01307
   D18        3.13778   0.00031   0.00000   0.01135   0.01135  -3.13406
   D19       -3.12414  -0.00003   0.00000  -0.00133  -0.00133  -3.12548
   D20        0.00660   0.00012   0.00000   0.00398   0.00398   0.01058
   D21       -0.00651   0.00015   0.00000   0.00526   0.00526  -0.00125
   D22        3.12996   0.00015   0.00000   0.00494   0.00495   3.13491
   D23       -3.13726   0.00000   0.00000  -0.00003  -0.00004  -3.13730
   D24       -0.00079  -0.00000   0.00000  -0.00036  -0.00035  -0.00114
   D25       -0.00849  -0.00023   0.00000  -0.00882  -0.00882  -0.01731
   D26        3.13418  -0.00017   0.00000  -0.00680  -0.00676   3.12742
   D27        3.13821  -0.00023   0.00000  -0.00851  -0.00852   3.12969
   D28       -0.00230  -0.00017   0.00000  -0.00649  -0.00646  -0.00876
   D29       -0.52333   0.00297   0.00000   0.19642   0.19801  -0.32532
   D30        2.58407   0.00610   0.00000   0.39408   0.39249   2.97656
         Item               Value     Threshold  Converged?
 Maximum Force            0.024457     0.000450     NO 
 RMS     Force            0.003915     0.000300     NO 
 Maximum Displacement     0.704646     0.001800     NO 
 RMS     Displacement     0.125392     0.001200     NO 
 Predicted change in Energy=-3.764704D-03
 GradGradGradGradGradGradGradGradGradGradGradGradGradGradGradGradGradGrad

                          Input orientation:                          
 ---------------------------------------------------------------------
 Center     Atomic      Atomic             Coordinates (Angstroms)
 Number     Number       Type             X           Y           Z
 ---------------------------------------------------------------------
      1          6           0        0.601697   -0.389615    0.043792
      2          6           0        0.344122    0.967972    0.274754
      3          6           0       -0.966921    1.445424    0.250091
      4          6           0       -2.024775    0.571718   -0.012539
      5          6           0       -1.771709   -0.785277   -0.235461
      6          6           0       -0.464133   -1.265996   -0.197150
      7          6           0        1.976156   -0.977767    0.086816
      8          8           0        2.166918   -2.130869    0.400354
      9         16           0        3.361903    0.121752   -0.087781
     10          1           0        1.165210    1.653375    0.498879
     11          1           0       -1.163096    2.502975    0.439463
     12          1           0       -3.050073    0.948477   -0.038469
     13          1           0       -2.596723   -1.472494   -0.434906
     14          1           0       -0.252488   -2.325348   -0.356255
     15          1           0        2.673913    1.135673   -0.631589
 ---------------------------------------------------------------------
                    Distance matrix (angstroms):
                    1          2          3          4          5
     1  C    0.000000
     2  C    1.400976   0.000000
     3  C    2.422910   1.395494   0.000000
     4  C    2.797444   2.418932   1.396922   0.000000
     5  C    2.422310   2.794807   2.420635   1.398275   0.000000
     6  C    1.400745   2.422103   2.793675   2.418032   1.393670
     7  C    1.495631   2.546519   3.815785   4.291646   3.766618
     8  O    2.368336   3.597384   4.757457   5.004473   4.210423
     9  S    2.810257   3.155078   4.539271   5.405962   5.215216
    10  H    2.167593   1.092792   2.156646   3.406983   3.887386
    11  H    3.411470   2.157561   1.092135   2.162533   3.411529
    12  H    3.890074   3.408673   2.160959   1.092637   2.163081
    13  H    3.410523   3.886909   3.411704   2.164329   1.092105
    14  H    2.153307   3.405889   3.885460   3.413523   2.166667
    15  H    2.660211   2.505495   3.758853   4.772729   4.859066
                    6          7          8          9         10
     6  C    0.000000
     7  C    2.473605   0.000000
     8  O    2.833274   1.210099   0.000000
     9  S    4.071406   1.777560   2.596259   0.000000
    10  H    3.414958   2.783943   3.915817   2.741441   0.000000
    11  H    3.885738   4.700514   5.706402   5.140411   2.479185
    12  H    3.408248   5.384152   6.073872   6.465241   4.307463
    13  H    2.155716   4.629057   4.880921   6.177971   4.979473
    14  H    1.091942   2.641807   2.542402   4.373122   4.309450
    15  H    3.975435   2.338718   3.462982   1.340557   1.955034
                   11         12         13         14         15
    11  H    0.000000
    12  H    2.491097   0.000000
    13  H    4.315572   2.494752   0.000000
    14  H    4.977457   4.318032   2.495793   0.000000
    15  H    4.211805   5.757677   5.883946   4.540738   0.000000
 Stoichiometry    C7H6OS
 Framework group  C1[X(C7H6OS)]
 Deg. of freedom    39
 Full point group                 C1      NOp   1
 Largest Abelian subgroup         C1      NOp   1
 Largest concise Abelian subgroup C1      NOp   1
                         Standard orientation:                         
 ---------------------------------------------------------------------
 Center     Atomic      Atomic             Coordinates (Angstroms)
 Number     Number       Type             X           Y           Z
 ---------------------------------------------------------------------
      1          6           0       -0.120276    0.198043   -0.015644
      2          6           0       -0.579442   -1.110574   -0.214192
      3          6           0       -1.948204   -1.381883   -0.197311
      4          6           0       -2.863195   -0.350058    0.025222
      5          6           0       -2.408483    0.958428    0.215677
      6          6           0       -1.042492    1.233099    0.185013
      7          6           0        1.328265    0.568527   -0.052847
      8          8           0        1.696399    1.669597   -0.394111
      9         16           0        2.527819   -0.723704    0.172822
     10          1           0        0.129882   -1.919203   -0.406989
     11          1           0       -2.301363   -2.402240   -0.361357
     12          1           0       -3.934222   -0.565371    0.045152
     13          1           0       -3.121128    1.768735    0.383697
     14          1           0       -0.673427    2.252007    0.319001
     15          1           0        1.686939   -1.604910    0.732726
 ---------------------------------------------------------------------
 Rotational constants (GHZ):           3.1321877           0.9316665           0.7316666
 Standard basis: def2SVP (5D, 7F)
 There are   169 symmetry adapted cartesian basis functions of A   symmetry.
 There are   160 symmetry adapted basis functions of A   symmetry.
   160 basis functions,   279 primitive gaussians,   169 cartesian basis functions
    36 alpha electrons       36 beta electrons
       nuclear repulsion energy       465.5796176563 Hartrees.
 NAtoms=   15 NActive=   15 NUniq=   15 SFac= 1.00D+00 NAtFMM=   60 NAOKFM=F Big=F
 Integral buffers will be    131072 words long.
 Raffenetti 2 integral format.
 Two-electron integral symmetry is turned on.
 One-electron integrals computed using PRISM.
   1 Symmetry operations used in ECPInt.
 ECPInt:  NShTT=    2775 NPrTT=   10585 LenC2=    2728 LenP2D=    8092.
 LDataN:  DoStor=T MaxTD1= 4 Len=   56
 NBasis=   160 RedAO= T EigKep=  3.00D-04  NBF=   160
 NBsUse=   160 1.00D-06 EigRej= -1.00D+00 NBFU=   160
 Initial guess from the checkpoint file:  "pka_scale_frag5_pka_HA_opt.chk"
 B after Tr=    -0.000000    0.000000   -0.000000
         Rot=    0.999988   -0.002664    0.000862   -0.004030 Ang=  -0.56 deg.
 ExpMin= 1.22D-01 ExpMax= 9.18D+03 ExpMxC= 1.38D+03 IAcc=3 IRadAn=         5 AccDes= 0.00D+00
 Harris functional with IExCor= 1009 and IRadAn=       5 diagonalized for initial guess.
 HarFok:  IExCor= 1009 AccDes= 0.00D+00 IRadAn=         5 IDoV= 1 UseB2=F ITyADJ=14
 ICtDFT=  3500011 ScaDFX=  1.000000  1.000000  1.000000  1.000000
 FoFCou: FMM=F IPFlag=           0 FMFlag=      100000 FMFlg1=           0
         NFxFlg=           0 DoJE=T BraDBF=F KetDBF=T FulRan=T
         wScrn=  0.000000 ICntrl=       500 IOpCl=  0 I1Cent=   200000004 NGrid=           0
         NMat0=    1 NMatS0=      1 NMatT0=    0 NMatD0=    1 NMtDS0=    0 NMtDT0=    0
 Petite list used in FoFCou.
 Requested convergence on RMS density matrix=1.00D-08 within 128 cycles.
 Requested convergence on MAX density matrix=1.00D-06.
 Requested convergence on             energy=1.00D-06.
 No special actions if energy rises.
 Integral accuracy reduced to 1.0D-05 until final iterations.
 Initial convergence to 1.0D-05 achieved.  Increase integral accuracy.  SCF Done:  E(RMN15) =  -742.805186743     A.U. after   15 cycles
            NFock= 15  Conv=0.73D-08     -V/T= 2.0066
   1 Symmetry operations used in ECPInt.
 ECPInt:  NShTT=    2775 NPrTT=   10585 LenC2=    2728 LenP2D=    8092.
 LDataN:  DoStor=T MaxTD1= 5 Len=  102
 Calling FoFJK, ICntrl=      2127 FMM=F ISym2X=0 I1Cent= 0 IOpClX= 0 NMat=1 NMatS=1 NMatT=0.
 ***** Axes restored to original set *****
 -------------------------------------------------------------------
 Center     Atomic                   Forces (Hartrees/Bohr)
 Number     Number              X              Y              Z
 -------------------------------------------------------------------
      1        6          -0.000618849    0.001996723   -0.006717961
      2        6          -0.002602844    0.001092555   -0.000040957
      3        6          -0.000220199   -0.000450933   -0.000119637
      4        6           0.000191983   -0.000207172    0.000019693
      5        6           0.000437279    0.000342127    0.000427917
      6        6          -0.001873555   -0.000780182    0.000209271
      7        6          -0.000290527   -0.004038227    0.020855699
      8        8          -0.000016047    0.002991414   -0.009464920
      9       16           0.002174745    0.000216480   -0.005424750
     10        1          -0.001878639   -0.000522754    0.001040351
     11        1           0.000081319   -0.000191433    0.000091512
     12        1           0.000283370   -0.000108684    0.000011075
     13        1          -0.000056546    0.000247619   -0.000049534
     14        1           0.001166751    0.000204094    0.000236602
     15        1           0.003221760   -0.000791625   -0.001074362
 -------------------------------------------------------------------
 Cartesian Forces:  Max     0.020855699 RMS     0.003844986

 GradGradGradGradGradGradGradGradGradGradGradGradGradGradGradGradGradGrad
 Berny optimization.
 Using GEDIIS/GDIIS optimizer.
 FormGI is forming the generalized inverse of G from B-inverse, IUseBI=4.
 Internal  Forces:  Max     0.010584679 RMS     0.003015967
 Search for a local minimum.
 Step number   2 out of a maximum of   77
 All quantities printed in internal units (Hartrees-Bohrs-Radians)
 Mixed Optimization -- RFO/linear search
 Update second derivatives using D2CorX and points    1    2
 DE= -8.99D-04 DEPred=-3.76D-03 R= 2.39D-01
 Trust test= 2.39D-01 RLast= 5.13D-01 DXMaxT set to 3.00D-01
 ITU=  0  0
 Use linear search instead of GDIIS.
     Eigenvalues ---    0.00740   0.00920   0.01699   0.02054   0.02082
     Eigenvalues ---    0.02100   0.02117   0.02141   0.02155   0.02160
     Eigenvalues ---    0.02169   0.03868   0.14354   0.15997   0.16000
     Eigenvalues ---    0.16000   0.16000   0.16499   0.21969   0.22001
     Eigenvalues ---    0.22966   0.23654   0.24974   0.26416   0.27073
     Eigenvalues ---    0.28801   0.33238   0.34916   0.35068   0.35085
     Eigenvalues ---    0.35099   0.35422   0.41755   0.41996   0.45407
     Eigenvalues ---    0.45922   0.46109   0.46536   0.84817
 RFO step:  Lambda=-3.99088571D-03 EMin= 7.40002027D-03
 Quartic linear search produced a step of -0.40413.
 Iteration  1 RMS(Cart)=  0.05103455 RMS(Int)=  0.00850381
 Iteration  2 RMS(Cart)=  0.00963358 RMS(Int)=  0.00264376
 Iteration  3 RMS(Cart)=  0.00023475 RMS(Int)=  0.00263372
 Iteration  4 RMS(Cart)=  0.00000042 RMS(Int)=  0.00263372
 Variable       Old X    -DE/DX   Delta X   Delta X   Delta X     New X
                                 (Linear)    (Quad)   (Total)
    R1        2.64746   0.00163   0.00096  -0.00055   0.00043   2.64789
    R2        2.64702   0.00077   0.00140  -0.00291  -0.00149   2.64553
    R3        2.82633   0.00546  -0.00545   0.02452   0.01907   2.84541
    R4        2.63710  -0.00024   0.00162  -0.00484  -0.00321   2.63389
    R5        2.06508  -0.00153  -0.00463   0.01066   0.00603   2.07111
    R6        2.63980  -0.00085  -0.00197   0.00445   0.00246   2.64226
    R7        2.06384  -0.00018  -0.00334   0.00914   0.00580   2.06964
    R8        2.64236  -0.00108  -0.00358   0.00870   0.00509   2.64745
    R9        2.06478  -0.00030  -0.00382   0.01030   0.00649   2.07127
   R10        2.63365  -0.00056   0.00180  -0.00581  -0.00402   2.62964
   R11        2.06378  -0.00010  -0.00353   0.00981   0.00628   2.07006
   R12        2.06347  -0.00001  -0.00218   0.00616   0.00398   2.06745
   R13        2.28676  -0.00530   0.01048  -0.03285  -0.02237   2.26438
   R14        3.35910   0.00449  -0.01572   0.05288   0.03716   3.39626
   R15        2.53329  -0.00182  -0.00128  -0.00021  -0.00149   2.53179
    A1        2.08833  -0.00201  -0.00266   0.00310   0.00037   2.08870
    A2        2.14752   0.00850  -0.00009   0.01888   0.01860   2.16613
    A3        2.04673  -0.00651   0.00288  -0.02314  -0.02039   2.02634
    A4        2.09596   0.00036   0.00011   0.00081   0.00094   2.09690
    A5        2.09838   0.00076   0.00959  -0.02451  -0.01497   2.08341
    A6        2.08855  -0.00114  -0.00970   0.02337   0.01360   2.10216
    A7        2.09530   0.00050   0.00089  -0.00143  -0.00052   2.09477
    A8        2.09093  -0.00031   0.00143  -0.00480  -0.00338   2.08755
    A9        2.09696  -0.00019  -0.00233   0.00624   0.00390   2.10086
   A10        2.09428  -0.00009   0.00047  -0.00213  -0.00167   2.09261
   A11        2.09370   0.00005   0.00031  -0.00050  -0.00018   2.09353
   A12        2.09518   0.00004  -0.00080   0.00263   0.00184   2.09703
   A13        2.09459   0.00004  -0.00033   0.00060   0.00026   2.09485
   A14        2.09795  -0.00025  -0.00084   0.00174   0.00091   2.09886
   A15        2.09063   0.00021   0.00117  -0.00235  -0.00118   2.08946
   A16        2.09765   0.00119   0.00153  -0.00127   0.00028   2.09794
   A17        2.07666  -0.00184   0.00903  -0.03131  -0.02230   2.05436
   A18        2.10887   0.00064  -0.01055   0.03257   0.02201   2.13087
   A19        2.12592  -0.00338  -0.00653   0.02522   0.00629   2.13220
   A20        2.06048   0.01058   0.00400   0.02662   0.01847   2.07895
   A21        2.08515  -0.00554   0.00703  -0.01793  -0.02296   2.06220
   A22        1.67860   0.00592   0.00638   0.00250   0.00888   1.68748
    D1       -0.01211  -0.00033  -0.00406   0.00193  -0.00215  -0.01427
    D2        3.10354  -0.00103  -0.00424  -0.01237  -0.01657   3.08697
    D3       -3.11541   0.00067  -0.00891   0.03920   0.03057  -3.08484
    D4        0.00025  -0.00002  -0.00908   0.02490   0.01615   0.01640
    D5        0.02396   0.00035  -0.00049   0.01163   0.01111   0.03507
    D6       -3.12072   0.00031   0.00031   0.00883   0.00907  -3.11165
    D7        3.12943  -0.00028   0.00404  -0.02264  -0.01824   3.11119
    D8       -0.01525  -0.00031   0.00484  -0.02544  -0.02029  -0.03553
    D9        2.63316   0.00417   0.01277   0.13966   0.15300   2.78616
   D10       -0.34420  -0.00700  -0.06748  -0.09622  -0.16428  -0.50848
   D11       -0.47099   0.00507   0.00811   0.17558   0.18427  -0.28672
   D12        2.83484  -0.00610  -0.07214  -0.06029  -0.13301   2.70182
   D13       -0.00634   0.00010   0.00557  -0.01315  -0.00755  -0.01389
   D14        3.13222  -0.00014   0.00258  -0.01004  -0.00750   3.12473
   D15       -3.12214   0.00076   0.00546   0.00178   0.00745  -3.11469
   D16        0.01642   0.00052   0.00247   0.00489   0.00751   0.02392
   D17        0.01307   0.00015  -0.00244   0.01080   0.00834   0.02142
   D18       -3.13406  -0.00006  -0.00459   0.01169   0.00707  -3.12698
   D19       -3.12548   0.00040   0.00054   0.00770   0.00830  -3.11718
   D20        0.01058   0.00019  -0.00161   0.00859   0.00703   0.01761
   D21       -0.00125  -0.00014  -0.00213   0.00274   0.00058  -0.00067
   D22        3.13491  -0.00014  -0.00200   0.00174  -0.00024   3.13467
   D23       -3.13730   0.00006   0.00002   0.00186   0.00186  -3.13544
   D24       -0.00114   0.00007   0.00014   0.00086   0.00104  -0.00010
   D25       -0.01731  -0.00013   0.00356  -0.01394  -0.01032  -0.02763
   D26        3.12742  -0.00009   0.00273  -0.01097  -0.00809   3.11933
   D27        3.12969  -0.00013   0.00345  -0.01295  -0.00951   3.12018
   D28       -0.00876  -0.00009   0.00261  -0.00998  -0.00729  -0.01605
   D29       -0.32532   0.00321  -0.08002   0.34599   0.26313  -0.06219
   D30        2.97656  -0.00786  -0.15862   0.11172  -0.04405   2.93250
         Item               Value     Threshold  Converged?
 Maximum Force            0.010585     0.000450     NO 
 RMS     Force            0.003016     0.000300     NO 
 Maximum Displacement     0.241197     0.001800     NO 
 RMS     Displacement     0.054961     0.001200     NO 
 Predicted change in Energy=-3.375991D-03
 GradGradGradGradGradGradGradGradGradGradGradGradGradGradGradGradGradGrad

                          Input orientation:                          
 ---------------------------------------------------------------------
 Center     Atomic      Atomic             Coordinates (Angstroms)
 Number     Number       Type             X           Y           Z
 ---------------------------------------------------------------------
      1          6           0        0.596930   -0.364835    0.068787
      2          6           0        0.322996    0.991808    0.287543
      3          6           0       -0.990713    1.455793    0.248238
      4          6           0       -2.037440    0.570350   -0.026331
      5          6           0       -1.766161   -0.787975   -0.236279
      6          6           0       -0.456721   -1.254531   -0.172329
      7          6           0        1.970838   -0.974195    0.159693
      8          8           0        2.137909   -2.149469    0.322920
      9         16           0        3.404815    0.042178   -0.215417
     10          1           0        1.146196    1.674631    0.526862
     11          1           0       -1.196328    2.514979    0.436187
     12          1           0       -3.068694    0.939036   -0.070519
     13          1           0       -2.582421   -1.487945   -0.445382
     14          1           0       -0.208785   -2.311127   -0.310429
     15          1           0        2.727578    1.141301   -0.573543
 ---------------------------------------------------------------------
                    Distance matrix (angstroms):
                    1          2          3          4          5
     1  C    0.000000
     2  C    1.401204   0.000000
     3  C    2.422292   1.393794   0.000000
     4  C    2.797056   2.418223   1.398225   0.000000
     5  C    2.419982   2.794029   2.422926   1.400971   0.000000
     6  C    1.399956   2.421875   2.794259   2.418714   1.391545
     7  C    1.505724   2.568442   3.831901   4.299594   3.762530
     8  O    2.371522   3.628054   4.774072   4.995290   4.172305
     9  S    2.851429   3.263797   4.640469   5.471093   5.237230
    10  H    2.161237   1.095983   2.166080   3.414820   3.889555
    11  H    3.412342   2.156499   1.095206   2.168633   3.418541
    12  H    3.893107   3.410947   2.164867   1.096069   2.169478
    13  H    3.410868   3.889448   3.417636   2.170067   1.095428
    14  H    2.140335   3.398491   3.887571   3.424559   2.179659
    15  H    2.687135   2.558482   3.820984   4.830199   4.901994
                    6          7          8          9         10
     6  C    0.000000
     7  C    2.466144   0.000000
     8  O    2.788958   1.198259   0.000000
     9  S    4.073668   1.797224   2.588083   0.000000
    10  H    3.411481   2.798415   3.955860   2.883963   0.000000
    11  H    3.889282   4.720351   5.734722   5.264014   2.490346
    12  H    3.412405   5.395399   6.066496   6.536946   4.320100
    13  H    2.155839   4.621928   4.827982   6.183943   4.984950
    14  H    1.094047   2.599838   2.436028   4.313372   4.292237
    15  H    4.005090   2.363390   3.461289   1.339767   1.999025
                   11         12         13         14         15
    11  H    0.000000
    12  H    2.499220   0.000000
    13  H    4.326871   2.503442   0.000000
    14  H    4.982366   4.335920   2.515947   0.000000
    15  H    4.278268   5.821573   5.926672   4.539903   0.000000
 Stoichiometry    C7H6OS
 Framework group  C1[X(C7H6OS)]
 Deg. of freedom    39
 Full point group                 C1      NOp   1
 Largest Abelian subgroup         C1      NOp   1
 Largest concise Abelian subgroup C1      NOp   1
                         Standard orientation:                         
 ---------------------------------------------------------------------
 Center     Atomic      Atomic             Coordinates (Angstroms)
 Number     Number       Type             X           Y           Z
 ---------------------------------------------------------------------
      1          6           0       -0.131360    0.162280   -0.061768
      2          6           0       -0.630366   -1.133783   -0.247747
      3          6           0       -2.002772   -1.370258   -0.190796
      4          6           0       -2.884080   -0.316257    0.068838
      5          6           0       -2.387490    0.981717    0.245986
      6          6           0       -1.019088    1.220902    0.164362
      7          6           0        1.324243    0.530834   -0.173974
      8          8           0        1.684086    1.657688   -0.365125
      9         16           0        2.571327   -0.702879    0.216854
     10          1           0        0.064792   -1.949874   -0.475626
     11          1           0       -2.384382   -2.383903   -0.353194
     12          1           0       -3.962036   -0.505993    0.126976
     13          1           0       -3.073213    1.812886    0.443226
     14          1           0       -0.596640    2.223820    0.276759
     15          1           0        1.723040   -1.664990    0.603799
 ---------------------------------------------------------------------
 Rotational constants (GHZ):           3.1538280           0.9141307           0.7235364
 Standard basis: def2SVP (5D, 7F)
 There are   169 symmetry adapted cartesian basis functions of A   symmetry.
 There are   160 symmetry adapted basis functions of A   symmetry.
   160 basis functions,   279 primitive gaussians,   169 cartesian basis functions
    36 alpha electrons       36 beta electrons
       nuclear repulsion energy       464.0645279857 Hartrees.
 NAtoms=   15 NActive=   15 NUniq=   15 SFac= 1.00D+00 NAtFMM=   60 NAOKFM=F Big=F
 Integral buffers will be    131072 words long.
 Raffenetti 2 integral format.
 Two-electron integral symmetry is turned on.
 One-electron integrals computed using PRISM.
   1 Symmetry operations used in ECPInt.
 ECPInt:  NShTT=    2775 NPrTT=   10585 LenC2=    2724 LenP2D=    8075.
 LDataN:  DoStor=T MaxTD1= 4 Len=   56
 NBasis=   160 RedAO= T EigKep=  3.00D-04  NBF=   160
 NBsUse=   160 1.00D-06 EigRej= -1.00D+00 NBFU=   160
 Initial guess from the checkpoint file:  "pka_scale_frag5_pka_HA_opt.chk"
 B after Tr=     0.000000   -0.000000   -0.000000
         Rot=    0.999994    0.001805   -0.001658    0.002621 Ang=   0.41 deg.
 ExpMin= 1.22D-01 ExpMax= 9.18D+03 ExpMxC= 1.38D+03 IAcc=3 IRadAn=         5 AccDes= 0.00D+00
 Harris functional with IExCor= 1009 and IRadAn=       5 diagonalized for initial guess.
 HarFok:  IExCor= 1009 AccDes= 0.00D+00 IRadAn=         5 IDoV= 1 UseB2=F ITyADJ=14
 ICtDFT=  3500011 ScaDFX=  1.000000  1.000000  1.000000  1.000000
 FoFCou: FMM=F IPFlag=           0 FMFlag=      100000 FMFlg1=           0
         NFxFlg=           0 DoJE=T BraDBF=F KetDBF=T FulRan=T
         wScrn=  0.000000 ICntrl=       500 IOpCl=  0 I1Cent=   200000004 NGrid=           0
         NMat0=    1 NMatS0=      1 NMatT0=    0 NMatD0=    1 NMtDS0=    0 NMtDT0=    0
 Petite list used in FoFCou.
 Requested convergence on RMS density matrix=1.00D-08 within 128 cycles.
 Requested convergence on MAX density matrix=1.00D-06.
 Requested convergence on             energy=1.00D-06.
 No special actions if energy rises.
 Integral accuracy reduced to 1.0D-05 until final iterations.
 Initial convergence to 1.0D-05 achieved.  Increase integral accuracy.  SCF Done:  E(RMN15) =  -742.805721497     A.U. after   15 cycles
            NFock= 15  Conv=0.35D-08     -V/T= 2.0067
   1 Symmetry operations used in ECPInt.
 ECPInt:  NShTT=    2775 NPrTT=   10585 LenC2=    2724 LenP2D=    8075.
 LDataN:  DoStor=T MaxTD1= 5 Len=  102
 Calling FoFJK, ICntrl=      2127 FMM=F ISym2X=0 I1Cent= 0 IOpClX= 0 NMat=1 NMatS=1 NMatT=0.
 ***** Axes restored to original set *****
 -------------------------------------------------------------------
 Center     Atomic                   Forces (Hartrees/Bohr)
 Number     Number              X              Y              Z
 -------------------------------------------------------------------
      1        6           0.003366220    0.001727120    0.006518789
      2        6           0.003654344   -0.000903506    0.001255519
      3        6          -0.001425471    0.002399155   -0.000758681
      4        6          -0.000345561   -0.000955045   -0.000101096
      5        6          -0.003436510    0.000818141   -0.000422217
      6        6           0.001615199   -0.002328019   -0.000876530
      7        6          -0.000878675    0.010429210   -0.017620718
      8        8           0.001191378   -0.011775850    0.007980269
      9       16          -0.005098864    0.001294232    0.004249748
     10        1          -0.003195311   -0.000221484    0.000244045
     11        1          -0.000019536   -0.002273618   -0.000598314
     12        1           0.002530626   -0.001082717    0.000257883
     13        1           0.001423352    0.001873553    0.000549125
     14        1          -0.001495985    0.001230879    0.000213093
     15        1           0.002114793   -0.000232049   -0.000890915
 -------------------------------------------------------------------
 Cartesian Forces:  Max     0.017620718 RMS     0.004246303

 GradGradGradGradGradGradGradGradGradGradGradGradGradGradGradGradGradGrad
 Berny optimization.
 Using GEDIIS/GDIIS optimizer.
 FormGI is forming the generalized inverse of G from B-inverse, IUseBI=4.
 Internal  Forces:  Max     0.012806730 RMS     0.002306764
 Search for a local minimum.
 Step number   3 out of a maximum of   77
 All quantities printed in internal units (Hartrees-Bohrs-Radians)
 Mixed Optimization -- RFO/linear search
 Update second derivatives using D2CorX and points    2    3
 DE= -5.35D-04 DEPred=-3.38D-03 R= 1.58D-01
 Trust test= 1.58D-01 RLast= 4.27D-01 DXMaxT set to 3.00D-01
 ITU=  0  0  0
 Use linear search instead of GDIIS.
     Eigenvalues ---    0.00911   0.01077   0.01705   0.02071   0.02088
     Eigenvalues ---    0.02101   0.02124   0.02141   0.02156   0.02160
     Eigenvalues ---    0.02169   0.05770   0.14688   0.15878   0.15996
     Eigenvalues ---    0.16000   0.16000   0.16003   0.21980   0.22000
     Eigenvalues ---    0.22888   0.23580   0.24917   0.25891   0.26505
     Eigenvalues ---    0.27874   0.33471   0.34860   0.34963   0.35078
     Eigenvalues ---    0.35098   0.35184   0.41689   0.41786   0.45430
     Eigenvalues ---    0.45949   0.46107   0.46545   0.86969
 RFO step:  Lambda=-1.24146765D-03 EMin= 9.10568012D-03
 Quartic linear search produced a step of -0.45323.
 Iteration  1 RMS(Cart)=  0.07001126 RMS(Int)=  0.00923828
 Iteration  2 RMS(Cart)=  0.01095801 RMS(Int)=  0.00056595
 Iteration  3 RMS(Cart)=  0.00030154 RMS(Int)=  0.00050235
 Iteration  4 RMS(Cart)=  0.00000019 RMS(Int)=  0.00050235
 Variable       Old X    -DE/DX   Delta X   Delta X   Delta X     New X
                                 (Linear)    (Quad)   (Total)
    R1        2.64789  -0.00011  -0.00020   0.00175   0.00154   2.64944
    R2        2.64553   0.00167   0.00068   0.00305   0.00372   2.64926
    R3        2.84541  -0.00270  -0.00864   0.00278  -0.00586   2.83954
    R4        2.63389   0.00053   0.00146   0.00043   0.00188   2.63577
    R5        2.07111  -0.00248  -0.00273  -0.00584  -0.00857   2.06253
    R6        2.64226  -0.00155  -0.00112  -0.00291  -0.00402   2.63824
    R7        2.06964  -0.00230  -0.00263  -0.00385  -0.00648   2.06316
    R8        2.64745  -0.00301  -0.00231  -0.00486  -0.00716   2.64029
    R9        2.07127  -0.00276  -0.00294  -0.00472  -0.00766   2.06361
   R10        2.62964   0.00096   0.00182   0.00060   0.00243   2.63206
   R11        2.07006  -0.00236  -0.00285  -0.00385  -0.00670   2.06336
   R12        2.06745  -0.00156  -0.00180  -0.00247  -0.00427   2.06318
   R13        2.26438   0.01281   0.01014   0.00508   0.01522   2.27960
   R14        3.39626  -0.00249  -0.01684   0.00199  -0.01486   3.38140
   R15        2.53179  -0.00103   0.00068  -0.00517  -0.00450   2.52729
    A1        2.08870  -0.00072  -0.00017  -0.00444  -0.00460   2.08409
    A2        2.16613   0.00080  -0.00843   0.01625   0.00791   2.17404
    A3        2.02634  -0.00005   0.00924  -0.01221  -0.00290   2.02344
    A4        2.09690  -0.00023  -0.00043   0.00058   0.00013   2.09703
    A5        2.08341   0.00210   0.00678   0.00902   0.01583   2.09925
    A6        2.10216  -0.00187  -0.00617  -0.00988  -0.01601   2.08615
    A7        2.09477   0.00026   0.00024   0.00109   0.00130   2.09607
    A8        2.08755   0.00036   0.00153   0.00095   0.00248   2.09003
    A9        2.10086  -0.00062  -0.00177  -0.00207  -0.00384   2.09702
   A10        2.09261   0.00093   0.00076   0.00096   0.00172   2.09433
   A11        2.09353  -0.00033   0.00008  -0.00003   0.00005   2.09357
   A12        2.09703  -0.00060  -0.00083  -0.00096  -0.00180   2.09522
   A13        2.09485  -0.00000  -0.00012  -0.00058  -0.00070   2.09415
   A14        2.09886  -0.00052  -0.00041  -0.00213  -0.00254   2.09632
   A15        2.08946   0.00052   0.00053   0.00271   0.00325   2.09270
   A16        2.09794  -0.00023  -0.00013   0.00225   0.00210   2.10004
   A17        2.05436   0.00132   0.01011  -0.00036   0.00976   2.06412
   A18        2.13087  -0.00109  -0.00997  -0.00190  -0.01186   2.11901
   A19        2.13220  -0.00011  -0.00285  -0.00689  -0.00740   2.12481
   A20        2.07895  -0.00055  -0.00837   0.01704   0.01101   2.08997
   A21        2.06220   0.00165   0.01041  -0.00666   0.00609   2.06828
   A22        1.68748   0.00474  -0.00402   0.03249   0.02847   1.71594
    D1       -0.01427  -0.00038   0.00098  -0.01634  -0.01534  -0.02961
    D2        3.08697  -0.00027   0.00751  -0.02456  -0.01706   3.06991
    D3       -3.08484  -0.00078  -0.01385  -0.00882  -0.02281  -3.10765
    D4        0.01640  -0.00067  -0.00732  -0.01704  -0.02453  -0.00813
    D5        0.03507   0.00010  -0.00504   0.01039   0.00537   0.04044
    D6       -3.11165   0.00007  -0.00411   0.00918   0.00510  -3.10655
    D7        3.11119   0.00050   0.00827   0.00457   0.01265   3.12384
    D8       -0.03553   0.00047   0.00919   0.00336   0.01239  -0.02315
    D9        2.78616  -0.00452  -0.06935  -0.09052  -0.16002   2.62614
   D10       -0.50848   0.00330   0.07446  -0.06403   0.01060  -0.49788
   D11       -0.28672  -0.00488  -0.08352  -0.08348  -0.16717  -0.45389
   D12        2.70182   0.00294   0.06029  -0.05699   0.00345   2.70527
   D13       -0.01389   0.00044   0.00342   0.01209   0.01551   0.00163
   D14        3.12473   0.00023   0.00340   0.00264   0.00605   3.13078
   D15       -3.11469   0.00023  -0.00338   0.01996   0.01648  -3.09821
   D16        0.02392   0.00002  -0.00340   0.01051   0.00702   0.03094
   D17        0.02142  -0.00020  -0.00378  -0.00176  -0.00552   0.01589
   D18       -3.12698  -0.00025  -0.00321  -0.00696  -0.01015  -3.13713
   D19       -3.11718   0.00002  -0.00376   0.00776   0.00397  -3.11321
   D20        0.01761  -0.00004  -0.00319   0.00256  -0.00066   0.01695
   D21       -0.00067  -0.00007  -0.00026  -0.00420  -0.00445  -0.00513
   D22        3.13467  -0.00001   0.00011  -0.00318  -0.00310   3.13158
   D23       -3.13544  -0.00002  -0.00084   0.00101   0.00017  -3.13527
   D24       -0.00010   0.00004  -0.00047   0.00203   0.00153   0.00143
   D25       -0.02763   0.00012   0.00468  -0.00021   0.00443  -0.02320
   D26        3.11933   0.00014   0.00367   0.00105   0.00463   3.12396
   D27        3.12018   0.00006   0.00431  -0.00121   0.00309   3.12327
   D28       -0.01605   0.00008   0.00330   0.00005   0.00330  -0.01275
   D29       -0.06219  -0.00478  -0.11926  -0.14210  -0.26105  -0.32324
   D30        2.93250   0.00258   0.01997  -0.11680  -0.09715   2.83536
         Item               Value     Threshold  Converged?
 Maximum Force            0.012807     0.000450     NO 
 RMS     Force            0.002307     0.000300     NO 
 Maximum Displacement     0.466341     0.001800     NO 
 RMS     Displacement     0.077934     0.001200     NO 
 Predicted change in Energy=-1.631740D-03
 GradGradGradGradGradGradGradGradGradGradGradGradGradGradGradGradGradGrad

                          Input orientation:                          
 ---------------------------------------------------------------------
 Center     Atomic      Atomic             Coordinates (Angstroms)
 Number     Number       Type             X           Y           Z
 ---------------------------------------------------------------------
      1          6           0        0.598914   -0.354669    0.079839
      2          6           0        0.311365    0.993733    0.334373
      3          6           0       -1.004983    1.451687    0.280143
      4          6           0       -2.041573    0.568046   -0.026047
      5          6           0       -1.763253   -0.781005   -0.259969
      6          6           0       -0.450849   -1.242705   -0.193628
      7          6           0        1.971469   -0.961934    0.151912
      8          8           0        2.138415   -2.120218    0.444647
      9         16           0        3.409088    0.051648   -0.176295
     10          1           0        1.109687    1.683290    0.614460
     11          1           0       -1.222630    2.500876    0.489445
     12          1           0       -3.070846    0.929961   -0.071978
     13          1           0       -2.573644   -1.475548   -0.490367
     14          1           0       -0.208904   -2.294858   -0.356214
     15          1           0        2.797745    1.051695   -0.820320
 ---------------------------------------------------------------------
                    Distance matrix (angstroms):
                    1          2          3          4          5
     1  C    0.000000
     2  C    1.402021   0.000000
     3  C    2.423950   1.394788   0.000000
     4  C    2.799069   2.418146   1.396099   0.000000
     5  C    2.424265   2.794097   2.419010   1.397183   0.000000
     6  C    1.401925   2.421036   2.791285   2.416052   1.392828
     7  C    1.502622   2.571745   3.834225   4.298490   3.761718
     8  O    2.370720   3.612059   4.760938   4.992056   4.184852
     9  S    2.850926   3.277834   4.653221   5.477130   5.239601
    10  H    2.167945   1.091446   2.153424   3.403594   3.884733
    11  H    3.411735   2.156076   1.091776   2.161534   3.409492
    12  H    3.891075   3.407130   2.159624   1.092014   2.161607
    13  H    3.412716   3.885978   3.409265   2.162168   1.091882
    14  H    2.146402   3.400356   3.882691   3.415246   2.171868
    15  H    2.760979   2.742036   3.978914   4.927858   4.947270
                    6          7          8          9         10
     6  C    0.000000
     7  C    2.462896   0.000000
     8  O    2.807439   1.206311   0.000000
     9  S    4.071212   1.789362   2.591752   0.000000
    10  H    3.413169   2.820253   3.943830   2.928275   0.000000
    11  H    3.882864   4.723055   5.714293   5.281547   2.474627
    12  H    3.405827   5.390207   6.058622   6.540020   4.302970
    13  H    2.156044   4.618915   4.846994   6.182560   4.976527
    14  H    1.091786   2.605553   2.486320   4.316055   4.301924
    15  H    4.026212   2.383835   3.477915   1.337387   2.303703
                   11         12         13         14         15
    11  H    0.000000
    12  H    2.489753   0.000000
    13  H    4.312449   2.491733   0.000000
    14  H    4.974117   4.320990   2.506244   0.000000
    15  H    4.469790   5.917364   5.945389   4.522693   0.000000
 Stoichiometry    C7H6OS
 Framework group  C1[X(C7H6OS)]
 Deg. of freedom    39
 Full point group                 C1      NOp   1
 Largest Abelian subgroup         C1      NOp   1
 Largest concise Abelian subgroup C1      NOp   1
                         Standard orientation:                         
 ---------------------------------------------------------------------
 Center     Atomic      Atomic             Coordinates (Angstroms)
 Number     Number       Type             X           Y           Z
 ---------------------------------------------------------------------
      1          6           0       -0.129474    0.159026   -0.051170
      2          6           0       -0.634797   -1.128787   -0.278872
      3          6           0       -2.008503   -1.362964   -0.219485
      4          6           0       -2.885692   -0.314814    0.065145
      5          6           0       -2.389370    0.974727    0.272195
      6          6           0       -1.018942    1.212995    0.200611
      7          6           0        1.324213    0.530843   -0.131282
      8          8           0        1.679214    1.639603   -0.447213
      9         16           0        2.575745   -0.698163    0.222310
     10          1           0        0.039271   -1.945835   -0.542159
     11          1           0       -2.395683   -2.366244   -0.407887
     12          1           0       -3.960443   -0.501628    0.115185
     13          1           0       -3.074534    1.797642    0.485664
     14          1           0       -0.607316    2.214233    0.342324
     15          1           0        1.808470   -1.570537    0.884772
 ---------------------------------------------------------------------
 Rotational constants (GHZ):           3.1584142           0.9081931           0.7246538
 Standard basis: def2SVP (5D, 7F)
 There are   169 symmetry adapted cartesian basis functions of A   symmetry.
 There are   160 symmetry adapted basis functions of A   symmetry.
   160 basis functions,   279 primitive gaussians,   169 cartesian basis functions
    36 alpha electrons       36 beta electrons
       nuclear repulsion energy       463.7064350436 Hartrees.
 NAtoms=   15 NActive=   15 NUniq=   15 SFac= 1.00D+00 NAtFMM=   60 NAOKFM=F Big=F
 Integral buffers will be    131072 words long.
 Raffenetti 2 integral format.
 Two-electron integral symmetry is turned on.
 One-electron integrals computed using PRISM.
   1 Symmetry operations used in ECPInt.
 ECPInt:  NShTT=    2775 NPrTT=   10585 LenC2=    2724 LenP2D=    8069.
 LDataN:  DoStor=T MaxTD1= 4 Len=   56
 NBasis=   160 RedAO= T EigKep=  3.00D-04  NBF=   160
 NBsUse=   160 1.00D-06 EigRej= -1.00D+00 NBFU=   160
 Initial guess from the checkpoint file:  "pka_scale_frag5_pka_HA_opt.chk"
 B after Tr=    -0.000000   -0.000000   -0.000000
         Rot=    1.000000   -0.000000   -0.000000    0.000000 Ang=   0.00 deg.
 ExpMin= 1.22D-01 ExpMax= 9.18D+03 ExpMxC= 1.38D+03 IAcc=3 IRadAn=         5 AccDes= 0.00D+00
 Harris functional with IExCor= 1009 and IRadAn=       5 diagonalized for initial guess.
 HarFok:  IExCor= 1009 AccDes= 0.00D+00 IRadAn=         5 IDoV= 1 UseB2=F ITyADJ=14
 ICtDFT=  3500011 ScaDFX=  1.000000  1.000000  1.000000  1.000000
 FoFCou: FMM=F IPFlag=           0 FMFlag=      100000 FMFlg1=           0
         NFxFlg=           0 DoJE=T BraDBF=F KetDBF=T FulRan=T
         wScrn=  0.000000 ICntrl=       500 IOpCl=  0 I1Cent=   200000004 NGrid=           0
         NMat0=    1 NMatS0=      1 NMatT0=    0 NMatD0=    1 NMtDS0=    0 NMtDT0=    0
 Petite list used in FoFCou.
 Requested convergence on RMS density matrix=1.00D-08 within 128 cycles.
 Requested convergence on MAX density matrix=1.00D-06.
 Requested convergence on             energy=1.00D-06.
 No special actions if energy rises.
 Integral accuracy reduced to 1.0D-05 until final iterations.
 Initial convergence to 1.0D-05 achieved.  Increase integral accuracy.  SCF Done:  E(RMN15) =  -742.806667734     A.U. after    8 cycles
            NFock=  8  Conv=0.53D-08     -V/T= 2.0067
   1 Symmetry operations used in ECPInt.
 ECPInt:  NShTT=    2775 NPrTT=   10585 LenC2=    2724 LenP2D=    8069.
 LDataN:  DoStor=T MaxTD1= 5 Len=  102
 Calling FoFJK, ICntrl=      2127 FMM=F ISym2X=0 I1Cent= 0 IOpClX= 0 NMat=1 NMatS=1 NMatT=0.
 ***** Axes restored to original set *****
 -------------------------------------------------------------------
 Center     Atomic                   Forces (Hartrees/Bohr)
 Number     Number              X              Y              Z
 -------------------------------------------------------------------
      1        6           0.000821352    0.000131676   -0.000655098
      2        6           0.001871944   -0.000759338   -0.000425900
      3        6          -0.000083525   -0.000256129    0.000361793
      4        6          -0.000034024    0.000110127    0.000001779
      5        6           0.000010817   -0.000397467   -0.000029069
      6        6          -0.000109000   -0.000247824   -0.000717986
      7        6          -0.001308940    0.000451339    0.002993430
      8        8           0.000372791    0.000612004   -0.001140540
      9       16          -0.000852691   -0.000940705    0.000143905
     10        1           0.001708071    0.000129872   -0.000868053
     11        1           0.000052262    0.000081150    0.000012846
     12        1          -0.000133966    0.000048184   -0.000095906
     13        1          -0.000064964   -0.000060845    0.000042345
     14        1          -0.000148573   -0.000119112    0.000010929
     15        1          -0.002101553    0.001217068    0.000365525
 -------------------------------------------------------------------
 Cartesian Forces:  Max     0.002993430 RMS     0.000822960

 GradGradGradGradGradGradGradGradGradGradGradGradGradGradGradGradGradGrad
 Berny optimization.
 Using GEDIIS/GDIIS optimizer.
 FormGI is forming the generalized inverse of G from B-inverse, IUseBI=4.
 Internal  Forces:  Max     0.006861784 RMS     0.001615803
 Search for a local minimum.
 Step number   4 out of a maximum of   77
 All quantities printed in internal units (Hartrees-Bohrs-Radians)
 Mixed Optimization -- RFO/linear search
 Update second derivatives using D2CorX and points    1    2    3    4
 DE= -9.46D-04 DEPred=-1.63D-03 R= 5.80D-01
 TightC=F SS=  1.41D+00  RLast= 3.70D-01 DXNew= 5.0454D-01 1.1099D+00
 Trust test= 5.80D-01 RLast= 3.70D-01 DXMaxT set to 5.05D-01
 ITU=  1  0  0  0
 Use linear search instead of GDIIS.
     Eigenvalues ---    0.00949   0.01462   0.01754   0.02079   0.02099
     Eigenvalues ---    0.02124   0.02140   0.02156   0.02160   0.02168
     Eigenvalues ---    0.02231   0.06125   0.14514   0.15910   0.15996
     Eigenvalues ---    0.15999   0.16000   0.16139   0.21987   0.22003
     Eigenvalues ---    0.22675   0.23811   0.24973   0.26488   0.28032
     Eigenvalues ---    0.31642   0.34636   0.34936   0.35067   0.35081
     Eigenvalues ---    0.35101   0.38579   0.41685   0.42987   0.45955
     Eigenvalues ---    0.46073   0.46333   0.46543   0.87127
 RFO step:  Lambda=-3.15284265D-04 EMin= 9.49064042D-03
 Quartic linear search produced a step of -0.29608.
 Iteration  1 RMS(Cart)=  0.03895346 RMS(Int)=  0.00120934
 Iteration  2 RMS(Cart)=  0.00112553 RMS(Int)=  0.00022824
 Iteration  3 RMS(Cart)=  0.00000143 RMS(Int)=  0.00022824
 Iteration  4 RMS(Cart)=  0.00000000 RMS(Int)=  0.00022824
 Variable       Old X    -DE/DX   Delta X   Delta X   Delta X     New X
                                 (Linear)    (Quad)   (Total)
    R1        2.64944  -0.00219  -0.00046  -0.00179  -0.00224   2.64719
    R2        2.64926   0.00028  -0.00110   0.00136   0.00026   2.64951
[...]
 ! D28   D(13,5,6,14)           -0.7689         -DE/DX =    0.0                 !
 ! D29   D(1,7,9,15)           -14.6812         -DE/DX =    0.0                 !
 ! D30   D(8,7,9,15)           164.8248         -DE/DX =    0.0                 !
 --------------------------------------------------------------------------------
 GradGradGradGradGradGradGradGradGradGradGradGradGradGradGradGradGradGrad


 ----------------------------------------------------------------------

 Electric dipole moment (input orientation):
 (Debye = 10**-18 statcoulomb cm , SI units = C m)
                  (au)            (Debye)         (10**-30 SI)
   Tot        0.151991D+01      0.386323D+01      0.128863D+02
   x         -0.116947D+01     -0.297250D+01     -0.991519D+01
   y         -0.913936D+00     -0.232299D+01     -0.774868D+01
   z          0.327398D+00      0.832162D+00      0.277579D+01

 Dipole polarizability, Alpha (input orientation).
 (esu units = cm**3 , SI units = C**2 m**2 J**-1)
 Alpha(0;0):
               (au)            (10**-24 esu)      (10**-40 SI)
   iso        0.880543D+02      0.130483D+02      0.145182D+02
   aniso      0.687751D+02      0.101914D+02      0.113395D+02
   xx         0.121341D+03      0.179808D+02      0.200064D+02
   yx        -0.214159D+01     -0.317350D+00     -0.353100D+00
   yy         0.985004D+02      0.145963D+02      0.162405D+02
   zx        -0.178785D+01     -0.264933D+00     -0.294777D+00
   zy         0.202017D+01      0.299358D+00      0.333081D+00
   zz         0.443220D+02      0.656784D+01      0.730771D+01

 ----------------------------------------------------------------------

 Dipole orientation:
     6         -0.32326242          0.26035829         -0.03559912
     6         -0.17178703         -1.34800479          2.06130131
     6         -1.24478534         -0.62619589          4.35841632
     6         -2.46547835          1.70349926          4.57286373
     6         -2.64559618          3.30152876          2.47731954
     6         -1.59944827          2.57272728          0.17473241
     6          0.70373711         -0.38311717         -2.59516451
     8         -0.14667794          0.51421995         -4.50942102
    16          3.29567549         -2.53633359         -2.81343096
     1          0.73130972         -3.19573246          1.88472440
     1         -1.13889365         -1.89452561          5.98246439
     1         -3.29309922          2.26983262          6.37686436
     1         -3.61338181          5.11671268          2.64064197
     1         -1.74067417          3.76919411         -1.50036601
     1          3.97707769         -2.48267788         -0.37728365

 Electric dipole moment (dipole orientation):
 (Debye = 10**-18 statcoulomb cm , SI units = C m)
                  (au)            (Debye)         (10**-30 SI)
   Tot        0.151991D+01      0.386323D+01      0.128863D+02
   x          0.000000D+00      0.000000D+00      0.000000D+00
   y          0.000000D+00      0.000000D+00      0.000000D+00
   z          0.151991D+01      0.386323D+01      0.128863D+02

 Dipole polarizability, Alpha (dipole orientation).
 (esu units = cm**3 , SI units = C**2 m**2 J**-1)
 Alpha(0;0):
               (au)            (10**-24 esu)      (10**-40 SI)
   iso        0.880543D+02      0.130483D+02      0.145182D+02
   aniso      0.687751D+02      0.101914D+02      0.113395D+02
   xx         0.706754D+02      0.104730D+02      0.116528D+02
   yx        -0.300061D+02     -0.444645D+01     -0.494734D+01
   yy         0.858914D+02      0.127278D+02      0.141616D+02
   zx        -0.181993D+02     -0.269686D+01     -0.300067D+01
   zy         0.888815D+00      0.131709D+00      0.146546D+00
   zz         0.107596D+03      0.159441D+02      0.177402D+02

 ----------------------------------------------------------------------
 1\1\GINC-CHPC-CN074\Freq\RMN15\def2SVP\C7H6O1S1\S1155246976\10-Jun-202
 6\0\\#N Geom=AllCheck Guess=TCheck SCRF=Check GenChk RMN15/def2SVP Fre
 q\\Gaussian pKa calculation job\\0,1\C,-0.1256898636,0.1732346563,-0.0
 528338252\C,-0.6143746483,-1.1224219862,-0.2639165634\C,-1.9863115724,
 -1.3688816738,-0.2092839234\C,-2.8742366588,-0.3251524463,0.0594414699
 \C,-2.3917964222,0.9720008928,0.2557284212\C,-1.0235103967,1.223011083
 9,0.1873144041\C,1.3248438427,0.5415924335,-0.131186146\O,1.6926906354
 ,1.6556022215,-0.4101169215\S,2.5509480092,-0.7115408465,0.2141339521\
 H,0.0748428108,-1.9350523222,-0.5042782594\H,-2.3633354123,-2.37848676
 69,-0.3846279469\H,-3.9474759243,-0.5219311088,0.1083024778\H,-3.08661
 88636,1.7897816131,0.457884723\H,-0.6208145595,2.229262965,0.319585704
 9\H,1.7331630342,-1.6040363702,0.7863424162\\Version=ES64L-G16RevB.01\
 State=1-A\HF=-742.8070633\RMSD=2.585e-09\RMSF=9.983e-06\ZeroPoint=0.11
 09439\Thermal=0.1186956\Dipole=-1.1694712,-0.9139365,0.3273976\DipoleD
 eriv=-0.5894965,-0.0573351,0.0083304,0.0500903,-0.1203544,0.0462749,-0
 .0242519,0.0247336,-0.0454345,0.0586362,-0.0884236,-0.0435622,0.104494
 1,-0.0455486,0.0120881,-0.0858484,0.0120086,-0.0722848,-0.1659331,0.10
 81567,0.0247874,0.1265305,0.0957494,0.0331574,0.0386552,0.0318053,-0.1
 036323,0.1110071,0.02844,-0.0155999,-0.0030329,0.0108371,0.017912,-0.0
 162441,0.0174304,-0.078267,-0.0319882,-0.1826939,-0.0415732,-0.1331509
 ,-0.0112523,0.0288035,-0.0188295,0.0305017,-0.1011603,-0.0014315,0.150
 1479,0.0058011,-0.088626,0.029271,0.0115567,0.0152316,-0.00859,-0.0573
 373,1.6460646,-0.0782498,0.0887917,-0.4413885,1.4555337,-0.3934963,0.2
 221951,-0.3419647,0.3340864,-0.7489164,-0.2125483,0.0336678,-0.0857173
 ,-1.1438669,0.2587802,-0.0367492,0.2292494,-0.3786036,-0.3790871,0.368
 0875,-0.1719054,0.4141097,-0.4187047,0.0621116,-0.1544957,0.0288645,-0
 .1276287,0.0299593,0.0822095,0.0271923,0.0749838,0.0336182,-0.0124941,
 0.0289983,-0.0084451,0.095201,0.0409577,-0.0374716,-0.0030861,-0.05437
 54,-0.0482933,-0.0292848,-0.0014413,-0.0309497,0.1076076,-0.0703029,-0
 .0255215,0.0093032,-0.0257427,0.0692433,-0.0067052,0.0069501,-0.005466
 ,0.109535,-0.004224,0.0655383,0.0180763,0.0676812,-0.0056649,-0.027399
 9,0.0189189,-0.0285479,0.1071416,0.0974481,-0.0542699,-0.0037235,-0.01
 48977,0.0285808,-0.0193214,-0.0241838,-0.0023252,0.1074988,0.0073069,-
 0.0660663,0.0635002,0.0090418,0.0708516,0.0180173,0.0310948,0.051695,0
 .1032781\Polar=121.3405643,-2.1415868,98.5004493,-1.7878533,2.0201677,
 44.322002\Quadrupole=0.2398703,1.6795412,-1.9194115,-3.1670819,0.59491
 02,0.9419057\PG=C01 [X(C7H6O1S1)]\NImag=0\\0.62834434,0.00898812,0.713
 87379,-0.03421421,0.08076661,0.16804580,-0.14214467,-0.03851289,-0.005
 90573,0.72129715,-0.09760819,-0.31643780,-0.03991577,-0.02174337,0.696
 62082,-0.01500456,-0.04760109,-0.07567267,-0.05001741,0.11550433,0.173
 10607,-0.00853030,-0.08636932,-0.01278718,-0.35686884,-0.00615950,0.01
 974552,0.69980734,-0.03162129,0.01509165,0.00215669,-0.08147520,-0.130
 57258,-0.00603293,0.02934657,0.73110783,-0.00513565,0.00870544,0.01233
 644,0.00606066,-0.01204238,-0.07189709,-0.03636396,0.11470439,0.168729
 04,-0.00217643,0.01332641,0.00118728,-0.04089665,0.01248628,0.00681658
 ,-0.22204386,0.14902865,0.04062163,0.75490590,0.01181822,-0.07081510,-
 0.01031904,0.06909888,0.05498804,0.00282971,0.07288949,-0.25701867,-0.
 04291025,0.01842551,0.67783296,0.00165126,-0.01289098,-0.01104462,0.01
 673561,0.00794452,0.00980763,0.02569959,-0.04775375,-0.08107568,-0.045
 85203,0.09676132,0.16858876,-0.04210758,0.06397443,0.01443877,-0.04659
 964,-0.03823116,-0.00381914,0.06929080,-0.00591811,-0.00523146,-0.1545
 7217,-0.03645522,0.00031894,0.72290990,0.00993545,0.05204932,0.0046465
 7,-0.03757316,-0.03146786,-0.00127362,0.04910744,-0.04939527,-0.014276
 21,-0.11269004,-0.32693371,-0.03760032,-0.02526490,0.71200046,0.004964
 66,0.00394986,0.01042905,-0.00339814,-0.00122864,-0.00776273,0.0044202
 6,-0.01041192,0.00773130,-0.01387323,-0.04336148,-0.07617573,-0.051711
 28,0.10419370,0.16696598,-0.20054568,0.07324289,0.02431497,0.06439476,
 0.04713213,0.00342289,-0.06865884,0.02289153,0.00862857,-0.00373077,-0
 .09030955,-0.01549252,-0.36265085,-0.00563817,0.02372125,0.71572137,0.
 13474242,-0.24978400,-0.03827279,-0.00489358,-0.04946631,-0.01059946,0
 .02471755,-0.00869619,-0.00199211,-0.03527146,0.01764189,0.00464782,-0
 .08100112,-0.13272953,-0.00566073,0.04266344,0.72275960,0.03438363,-0.
 03360591,-0.07888189,-0.00520387,-0.01466996,0.00797329,0.00834955,-0.
 00200713,-0.00881563,-0.00487459,0.00754585,0.01126823,0.01114363,-0.0
 0977019,-0.07220241,-0.03858564,0.09326051,0.16550925,-0.20304471,-0.0
 1143767,0.00270193,-0.01024800,-0.01701683,-0.00035998,0.00734302,-0.0
 0088568,-0.00005102,0.00072827,0.00210160,0.00023641,0.00130303,0.0044
 8934,0.00166665,-0.03556080,0.00653477,0.00323040,0.51428218,-0.012667
 04,-0.09310705,-0.00121369,-0.02873633,-0.00171695,0.00369405,-0.00217
 954,-0.00558399,-0.00218228,0.00001390,-0.00397330,-0.00070983,0.00729
 070,-0.00263206,-0.00255321,0.01479161,0.01614429,-0.00006679,0.190589
 15,0.84720984,0.00512968,-0.00274534,-0.07402850,-0.00423185,0.0008289
 3,0.00112985,0.00059368,-0.00263079,0.00650542,0.00053200,0.00004467,-
 0.00085545,0.00067916,-0.00106116,0.00623125,0.00767500,-0.00004273,0.
 00464933,-0.05824716,-0.16047583,0.20656210,-0.02079596,-0.05130670,0.
 01237673,-0.00394697,0.00525721,0.00197480,-0.00298705,-0.00102630,-0.
 00101111,-0.00035835,-0.00190974,-0.00037691,0.00153543,-0.00102139,-0
 .00101881,-0.00003819,-0.00224519,0.00081434,-0.16281031,-0.19249599,0
 .04983375,0.17085686,-0.03656392,-0.02300794,0.00960845,-0.00030674,0.
 00421284,0.00002539,-0.00156351,0.00063501,-0.00074017,0.00048662,0.00
 013029,0.00010616,-0.00196310,0.00085335,0.00008750,0.00686457,-0.0068
 2223,-0.00179887,-0.21925827,-0.69182199,0.15652935,0.22974044,0.78245
 880,0.00765566,0.00982416,0.01817924,0.00170457,-0.00129296,0.00170450
 ,-0.00009625,0.00110104,-0.00098164,-0.00019546,-0.00006663,0.00011137
 ,-0.00001092,0.00011892,-0.00047133,-0.00105351,0.00076520,-0.00071095
 ,0.05859621,0.15521073,-0.10353157,-0.05770812,-0.18978851,0.07754869,
 -0.01867831,0.02117561,-0.00504616,-0.00349513,0.00144533,-0.00043286,
 0.00011094,0.00011944,0.00073914,-0.00038583,0.00035312,0.00009633,-0.
 00094113,0.00063473,0.00059561,-0.00252948,-0.00405244,-0.00084068,-0.
 13040850,0.01298938,0.00557221,0.02484841,0.01704456,-0.00809594,0.266
 55939,0.00556458,-0.00055236,0.00298161,0.00006818,-0.00277273,-0.0007
 1849,0.00040596,0.00093184,0.00005729,-0.00001932,-0.00006817,0.000037
 25,0.00026702,0.00053451,-0.00003434,-0.00131349,0.00159045,0.00061363
 ,0.05968700,-0.04654510,0.00134646,0.01012849,-0.06492082,0.02207123,0
 .04378074,0.23025696,-0.00103111,0.00330770,0.01028898,-0.00056624,-0.
 00061614,-0.00044638,-0.00069353,0.00052725,-0.00003227,-0.00000772,-0
 .00040249,0.00002677,0.00020177,0.00069597,-0.00037515,-0.00090048,-0.
 00074561,0.00057764,-0.01488060,0.00659678,-0.03340541,-0.00385157,0.0
 2197306,0.00476693,-0.05584156,-0.10709493,0.07122481,0.00938161,-0.00
 709876,-0.00175224,-0.17007220,0.13736115,0.04170180,-0.01208786,0.023
 20955,0.00639859,-0.00461963,-0.00213836,0.00052580,-0.00046921,-0.000
 95759,-0.00023162,0.00001624,-0.00256868,0.00009948,0.00080067,-0.0004
 2109,-0.00004612,0.00018912,0.00068238,-0.00027440,-0.00270457,-0.0003
 2985,-0.00070644,0.18018709,0.01828761,-0.01429569,-0.00499258,0.13806
 346,-0.21957845,-0.05136056,-0.00629918,0.00800039,0.00089398,-0.00167
 144,0.00122692,-0.00128779,-0.00083056,0.00001355,0.00024589,-0.003504
 76,-0.00360286,-0.00185843,0.00345694,-0.00114616,0.00081714,-0.000826
 24,0.00047844,-0.00021622,-0.00029354,0.00142257,0.00051961,-0.1475344
 8,0.22732723,0.00392199,-0.00175976,0.00308737,0.04241427,-0.05315522,
 -0.05453737,-0.00012048,-0.00107066,0.00501984,0.00026759,-0.00098216,
 0.00695542,-0.00037865,0.00004770,-0.00082524,0.00005077,-0.00176202,0
 .00600725,-0.00018010,0.00030771,-0.00378659,0.00045563,0.00106653,0.0
 0040832,-0.00113900,0.00014226,0.00004147,-0.04384227,0.05674789,0.043
 46450,-0.00537359,-0.00015577,0.00065161,-0.00522997,-0.02820445,-0.00
 498915,-0.09174389,-0.09473027,-0.01492163,0.01034779,0.01939839,0.003
 43651,-0.00197164,0.00292349,0.00116903,-0.00088852,0.00068951,0.00016
 642,0.00089290,-0.00126970,-0.00026812,-0.00069316,-0.00033421,0.00018
 726,-0.00018007,0.00022188,0.00002787,0.00115696,0.00037667,-0.0004221
 4,0.09253865,-0.00084763,0.00176105,-0.00101176,0.00190551,-0.00019195
 ,-0.00105115,-0.09502403,-0.30953938,-0.04730944,-0.01079741,-0.014349
 82,-0.00303227,0.00347838,-0.00134976,-0.00195221,0.00067376,0.0004898
 2,0.00019632,0.00057063,-0.00004997,-0.00009508,-0.00016469,-0.0001061
 9,0.00005406,-0.00011816,0.00008905,-0.00001540,-0.00003615,0.00038607
 ,0.00094242,0.10082360,0.32295938,0.00073168,-0.00065848,0.00680572,0.
 00077759,0.00069820,0.00456533,-0.01452305,-0.04772793,-0.04823929,-0.
 00274637,-0.00466516,0.00398416,0.00109684,-0.00198031,0.00646489,0.00
 053588,0.00018375,-0.00081850,0.00018252,0.00000584,0.00052258,-0.0001
 7502,0.00003450,-0.00026787,-0.00011364,-0.00002973,-0.00001323,-0.000
 52196,0.00110425,-0.00423009,0.01540163,0.05214209,0.03607608,0.000832
 84,0.00035745,-0.00004417,-0.00062335,0.00314467,0.00125932,-0.0125148
 1,-0.00702112,0.00007785,-0.34237549,-0.05248221,0.01426547,-0.0049400
 2,0.00212328,0.00118467,0.00104229,-0.00195860,0.00009819,0.00004672,-
 0.00001017,-0.00009305,-0.00009910,-0.00002727,0.00005492,-0.00007429,
 -0.00000460,-0.00004843,-0.00063355,-0.00028741,-0.00003738,0.00078157
 ,0.00003373,-0.00042815,0.35823131,0.00038706,-0.00119220,-0.00004711,
 0.00285601,-0.00265209,-0.00213089,0.02311899,0.00817014,-0.00125057,-
 0.05252069,-0.06638227,-0.00058582,-0.02794982,0.00043479,0.00129992,-
 0.00167245,-0.00468581,-0.00198493,0.00005772,-0.00030471,0.00023053,-
 0.00012300,0.00022341,-0.00001721,-0.00002642,0.00010260,0.00001099,0.
 00100338,0.00021316,0.00000890,-0.00051847,0.00071101,0.00101724,0.055
 97715,0.06441047,-0.00007155,-0.00041493,-0.00073306,0.00112270,-0.002
 05039,0.00663925,0.00563240,0.00108496,0.00504501,0.01414845,-0.000683
 96,-0.04259908,-0.00423365,-0.00105872,0.00549497,0.00017803,-0.001797
 24,0.00669630,-0.00000529,0.00019275,-0.00100347,0.00010283,0.00011941
 ,0.00010642,-0.00013961,0.00001863,0.00001513,0.00022667,0.00007174,-0
 .00006460,-0.00047946,0.00103445,-0.00407463,-0.01599815,0.00251300,0.
 02865096,-0.00465907,-0.00210201,0.00083372,-0.00037508,-0.00102484,-0
 .00020761,0.00024771,-0.00250657,0.00006684,0.01019076,-0.01052069,-0.
 00232065,-0.17648069,0.14088215,0.03619004,-0.01292053,0.02356146,0.00
 553640,0.00009144,0.00139949,0.00011532,-0.00005559,-0.00042427,0.0000
 5506,-0.00049044,0.00013303,-0.00011146,-0.00002072,0.00008984,-0.0000
 7298,0.00033301,-0.00046767,-0.00012570,0.00058761,0.00054990,-0.00026
 943,0.18229498,-0.00176085,0.00130437,-0.00083496,-0.00101788,-0.00012
 655,0.00020593,-0.00300082,-0.00367666,-0.00167633,0.01972966,-0.01423
 938,-0.00499772,0.14086111,-0.22267776,-0.04390211,-0.00634630,0.00801
 747,0.00102287,-0.00036016,0.00027118,0.00002716,0.00011401,-0.0000099
 0,-0.00002181,-0.00010566,0.00002512,-0.00000958,0.00007378,-0.0000400
 8,0.00016532,0.00086108,-0.00073662,-0.00024040,0.00001287,0.00095307,
 0.00094690,-0.14947369,0.23056455,0.00081791,-0.00123360,0.00698519,-0
 .00017601,0.00033138,-0.00068856,0.00004678,-0.00163606,0.00665772,0.0
 0301023,-0.00269273,0.00404472,0.03629835,-0.04363175,-0.05122607,-0.0
 0017088,-0.00137502,0.00472947,-0.00016638,-0.00006396,0.00017357,0.00
 020771,0.00005797,0.00000929,0.00010681,-0.00003329,-0.00010054,-0.000
 06213,0.00020843,-0.00096201,0.00010232,-0.00008632,0.00005580,-0.0003
 6820,0.00089534,-0.00405152,-0.03922133,0.04847386,0.03874596,0.010415
 13,0.01651492,0.00250704,-0.00240030,0.00278933,0.00115745,-0.00100032
 ,0.00063993,0.00008731,-0.00487312,-0.00035786,0.00105216,-0.00412509,
 -0.02655709,-0.00362897,-0.09440827,-0.10081048,-0.01384145,0.00026240
 ,0.00358909,-0.00052725,-0.00128783,-0.00161382,-0.00021034,0.00046454
 ,-0.00080141,0.00030027,0.00042200,0.00102746,0.00031413,0.00001639,-0
 .00003126,-0.00007508,-0.00028625,-0.00112516,-0.00024648,0.00123072,0
 .00041963,-0.00046798,0.09542803,-0.00854635,-0.01574591,-0.00264668,0
 .00346667,-0.00142059,-0.00137966,0.00050044,0.00059520,0.00017407,-0.
 00037761,0.00147874,-0.00077313,0.00220315,0.00153634,-0.00073252,-0.0
 9983600,-0.31043183,-0.03665464,-0.00214595,-0.00315051,0.00119236,-0.
 00129078,0.00244162,0.00007787,0.00014433,0.00010421,0.00001527,-0.000
 50941,-0.00073792,-0.00014736,-0.00004180,-0.00005901,0.00012362,0.000
 14398,-0.00000373,0.00000220,-0.00006803,0.00038692,0.00074876,0.10643
 385,0.32496243,-0.00337989,-0.00464725,0.00417055,0.00130444,-0.001546
 55,0.00577540,-0.00001101,0.00012749,-0.00085223,0.00090802,-0.0011431
 3,0.00701717,0.00114251,0.00124489,0.00574332,-0.01267497,-0.03655717,
 -0.04601825,-0.00017087,0.00036660,-0.00337475,0.00041985,0.00073080,-
 0.00029726,-0.00031356,0.00047044,0.00013202,-0.00005799,-0.00027744,0
 .00031174,-0.00006560,0.00017749,-0.00087573,0.00002481,0.00008963,-0.
 00010968,-0.00049921,0.00084428,-0.00436545,0.01346691,0.04011974,0.03
 283252,-0.00091763,-0.00059671,0.00073764,-0.00279112,0.00037223,-0.00
 124765,-0.00036404,-0.00005113,0.00003423,-0.00014042,0.00008842,0.000
 02404,-0.00018115,-0.00039353,-0.00005013,0.00075728,-0.00010760,-0.00
 047583,0.01632169,0.00711654,-0.00671725,-0.00435731,0.00723653,-0.000
 60873,-0.13209555,-0.11778823,0.07810924,-0.00154594,-0.00005437,-0.00
 123139,0.00001355,0.00000138,-0.00001716,0.00002453,-0.00001419,0.0000
 3253,0.00002590,-0.00000679,0.00004280,0.00014195,-0.00007648,-0.00009
 345,0.12510825,-0.00010818,0.00085787,-0.00090556,-0.00119958,0.000582
 16,-0.00011156,0.00050946,-0.00004933,-0.00015543,-0.00014908,0.000481
 58,0.00013456,-0.00046081,-0.00023638,0.00006030,0.00036080,-0.0004247
 6,-0.00022233,-0.01638260,-0.01359354,0.00603434,0.00716986,-0.0047447
 1,0.00218013,-0.09309101,-0.12019812,0.07523751,-0.00073589,0.00033285
 ,-0.00055154,-0.00003995,-0.00001368,-0.00000749,-0.00000174,0.0000021
 6,0.00002121,-0.00002810,-0.00001573,0.00003698,-0.00011713,0.00004405
 ,0.00000018,0.10427395,0.13697561,-0.00041949,-0.00099642,0.00003240,-
 0.00062058,0.00121065,0.00030349,0.00010767,-0.00043065,-0.00013095,0.
 00005762,0.00004548,-0.00005367,0.00006512,-0.00029548,-0.00002208,0.0
 0035064,-0.00005240,0.00003686,0.00744729,0.00089115,-0.00578835,-0.00
 204411,0.00198841,0.00342588,0.06485291,0.08017196,-0.05270075,-0.0014
 5717,-0.00061590,-0.00089002,0.00000345,0.00000680,0.00004477,0.000052
 30,-0.00004903,-0.00001199,0.00003097,-0.00000339,-0.00000756,0.000112
 28,-0.00011990,-0.00008935,-0.06853890,-0.08175128,0.05585134\\0.00001
 762,-0.00000312,-0.00001367,0.00000008,-0.00000929,0.00000498,-0.00000
 690,-0.00000117,-0.00000053,0.00000562,-0.00000312,0.00000125,0.000002
 95,-0.00000287,0.00000435,-0.00003208,0.00001043,0.00000402,-0.0000034
 9,-0.00002862,0.00001237,0.00000517,0.00003136,-0.00000821,-0.00000471
 ,0.00001050,-0.00000640,-0.00000052,0.00000834,-0.00000332,0.00000399,
 -0.00000015,0.00000279,0.00000311,-0.00000501,0.00000447,-0.00000406,-
 0.00000629,0.00000098,0.00000469,-0.00000440,-0.00000042,0.00000855,0.
 00000340,-0.00000267\\\@


 Not by the face shall a man be known, but by the mask.
                               -- Karen Blixen
 Job cpu time:       0 days  0 hours 22 minutes 15.8 seconds.
 Elapsed time:       0 days  0 hours  0 minutes 21.4 seconds.
 File lengths (MBytes):  RWF=     53 Int=      0 D2E=      0 Chk=      3 Scr=      1
 Normal termination of Gaussian 16 at Wed Jun 10 15:31:39 2026.
      3 Scr=      1
 Normal termination of Gaussian 16 at Wed Jun 10 15:31:38 2026.
0 15:31:38 2026.
  0 minutes 22.8 seconds.
 File lengths (MBytes):  RWF=     53 Int=      0 D2E=      0 Chk=      3 Scr=      1
 Normal termination of Gaussian 16 at Wed Jun 10 15:31:30 2026.
