
                                 *****************
                                 * O   R   C   A *
                                 *****************

                                            #,                                       
                                            ###                                      
                                            ####                                     
                                            #####                                    
                                            ######                                   
                                           ########,                                 
                                     ,,################,,,,,                         
                               ,,#################################,,                 
                          ,,##########################################,,             
                       ,#########################################, ''#####,          
                    ,#############################################,,   '####,        
                  ,##################################################,,,,####,       
                ,###########''''           ''''###############################       
              ,#####''   ,,,,##########,,,,          '''####'''          '####       
            ,##' ,,,,###########################,,,                        '##       
           ' ,,###''''                  '''############,,,                           
         ,,##''                                '''############,,,,        ,,,,,,###''
      ,#''                                            '''#######################'''  
     '                                                          ''''####''''         
             ,#######,   #######,   ,#######,      ##                                
            ,#'     '#,  ##    ##  ,#'     '#,    #''#        ,####,    ,#,          
            ##       ##  ##   ,#'  ##            #'  '#       #'       ,# #          
            ##       ##  #######   ##           ,######,      #####,      #          
            '#,     ,#'  ##    ##  '#,     ,#' ,#      #,     #,   #      #          
             '#######'   ##     ##  '#######'  #'      '#     '####' #    #          



                #########################################################
                #                        -***-                          #
                #          Department of theory and spectroscopy        #
                #                                                       #
                #                      Frank Neese                      #
                #                                                       #
                #     Directorship, Architecture, Infrastructure        #
                #                    SHARK, DRIVERS                     #
                #        Core code/Algorithms in most modules           #
                #                                                       #
                #        Max Planck Institute fuer Kohlenforschung      #
                #                Kaiser Wilhelm Platz 1                 #
                #                 D-45470 Muelheim/Ruhr                 #
                #                      Germany                          #
                #                                                       #
                #                  All rights reserved                  #
                #                        -***-                          #
                #########################################################


                         Program Version 6.1.0  -  RELEASE   -
                                (GIT: $679e74b$)
                          ($2025-06-10 18:02:51 +0200$)


 With contributions from (in alphabetic order):
[Max-Planck-Institut fuer Kohlenforschung]                               
  Daniel Aravena         : Magnetic Suceptibility                        
  Michael Atanasov       : Ab Initio Ligand Field Theory (pilot matlab implementation)
  Alexander A. Auer      : GIAO ZORA, VPT2 properties, NMR spectrum      
  Ute Becker             : All parallelization in ORCA, NUMFREQ, NUMCALC 
  Giovanni Bistoni       : ED, misc. LED, open-shell LED, HFLD           
  Dmytro Bykov           : pre 5.0 version of the SCF Hessian            
  Marcos Casanova-Páez   : Triplet and SCS-CIS(D). UHF-(DLPNO)-IP/EA/STEOM-CCSD. UHF-CVS-IP/STEOM-CCSD   
  Vijay G. Chilkuri      : MRCI spin determinant printing, contributions to CSF-ICE 
  Pauline Colinet        : FMM embedding                                 
  Dipayan Datta          : RHF DLPNO-CCSD density                        
  Achintya Kumar Dutta   : EOM-CC, STEOM-CC                              
  Nicolas Foglia         : Exact transition moments, OPA infrastructure, MCD improvements    
  Dmitry Ganyushin       : Spin-Orbit,Spin-Spin,Magnetic field MRCI      
  Miquel Garcia-Rates    : C-PCM and meta-GGA Hessian, CCSD/C-PCM, Gaussian charge scheme 
  Tiago L. C. Gouveia    : GS-ROHF, GS-ROCIS                             
  Yang Guo               : DLPNO-NEVPT2, F12-NEVPT2, CIM, IAO-localization        
  Andreas Hansen         : Spin unrestricted coupled pair/coupled cluster methods 
  Ingolf Harden          : AUTO-CI MPn and infrastructure                
  Benjamin Helmich-Paris : MC-RPA, TRAH-(SCF,CASSCF), AVAS, COSX integrals, SCF dyn. polar., MC-PDFT, srDFT 
  Lee Huntington         : MR-EOM, pCC                                   
  Robert Izsak           : Overlap fitted RIJCOSX, COSX-SCS-MP3, EOM     
  Riya Kayal             : Wick's Theorem for AUTO-CI, AUTO-CI UHF-CCSDT 
  Emily Kempfer          : AUTO-CI RHF CISDT and CCSDT, approximate NEVPT4
  Christian Kollmar      : KDIIS, OOCD, Brueckner-CCSD(T), CCSD density, CASPT2, CASPT2-K, improved NEVPT2 
  Axel Koslowski         : Symmetry handling                             
  Simone Kossmann        : meta-GGA functionals, TD-DFT gradient, OOMP2, (MP2 Hessian; deprecated post 5.0) 
  Lucas Lang             : DCDCAS, Hyperfine gauge corrections, ICE-SOC+SSC
  Marvin Lechner         : AUTO-CI (C++ implementation), FIC-MRCC        
  Spencer Leger          : CASSCF response                               
  Dagmar Lenk            : GEPOL surface, SMD, ORCA-2-JSON               
  Dimitrios Liakos       : Extrapolation schemes; Compound Job, Property file
  Dimitrios Manganas     : Further ROCIS development; embedding schemes. LFT, Crystal Embedding 
  Dimitrios Pantazis     : SARC Basis sets                               
  Anastasios Papadopoulos: AUTO-CI, single reference methods and gradients 
  Taras Petrenko         : pre 6.0 DFT Hessian and TD-DFT gradient,  ECA, NRVS 
  Petra Pikulova         : Analytic Raman intensities                    
  Peter Pinski           : DLPNO-MP2, DLPNO-MP2 Gradient                 
  Shashank Vittal Rao    : ES-AILFT, MagRelax                            
  Christoph Reimann      : Effective Core Potentials                     
  Marius Retegan         : Local ZFS, SOC                                
  Christoph Riplinger    : Optimizer, TS searches, QM/MM, DLPNO-CCSD(T), (RO)-DLPNO pert. Triples 
  Michael Roemelt        : Original ROCIS implementation, recursive CI coupling coefficients
  Masaaki Saitow         : Open-shell DLPNO-CCSD energy and density      
  Barbara Sandhoefer     : DKH picture change effects                    
  Yorick L. A. Schmerwitz: GMF and freeze-and-release deltaSCF, NEB S-IDPP initial path                    
  Kantharuban Sivalingam : CASSCF convergence/infrastructure, NEVPT2, NEVPT3, NEVPT4(SD), FIC-MRCI and CEPA variants
  Bernardo de Souza      : ESD, SOC TD-DFT                               
  Georgi L. Stoychev     : AutoAux, RI-MP2 NMR, DLPNO-MP2 response, X2C  
  Van Anh Tran           : RI-MP2 g-tensors                              
  Willem Van den Heuvel  : Paramagnetic NMR                              
  Zikuan Wang            : NOTCH, Electric field optimization            
  Frank Wennmohs         : Technical directorship and infrastructure     
  Hang Xu                : AUTO-CI-Response properties                   
                                                                         
[FACCTs GmbH]                                                            
  Markus Bursch, Nicolas Foglia, Miquel Garcia-Rates, Ingolf Harden, Hagen Neugebauer, Anastasios Papadopoulos, 
  Christoph Riplinger, Bernardo de Souza, Georgi L. Stoychev                                                    
                                                                 
  APM, various basis sets, CI-OPT, improved COSX, DLPNO-Multilevel,           
  DOCKER, DRACO, updates on ESD, Fragmentator, GOAT, IRC, LR-CPCM, L-BFGS, MBIS, meta-GGA TD-DFT gradient, ML-optimized integration grids, 
  MM, NACMEs, nearIR, NEB, NEB-TS, NL-DFT gradient (VV10), 2- and 3-layer-ONIOM, interface openCOSMO-RS, QMMM,   
  Crystal-QMMM, RESP, rigid body optimization, SF, symmetry and pop. for TD-DFT, various functionals, SOLVATOR                                   
                                                                         
[Other institutions]                                                     
  V. Asgeirsson          : NEB                                           
  Christoph Bannwarth    : sTDA-DFT, sTD-DFT, PBEh-3c, B97-3c, D3        
  Giovanni Bistoni       : ETS/NOCV, ADLD/ADEX, COVALED                  
  Martin Brehm           : Molecular dynamics                            
  Ronald Cardenas        : ETS/NOCV                                      
  Martina Colucci        : COVALED                                       
  Sebastian Ehlert       : rSCAN, r2SCAN, r2SCAN-3c, D4, dhf basis sets  
  Marvin Friede          : D4 for Fr, Ra, Ac-Lr                          
  Lars Goerigk           : TD-DFT with DH, B97 family of functionals     
  Stefan Grimme          : VdW corrections, initial TS optimization, DFT functionals, gCP, sTDA/sTD-DF 
  Waldemar Hujo          : DFT-NL                                        
  H. Jonsson             : NEB                                           
  Holger Kruse           : gCP                                           
  Marcel Mueller         : wB97X-3c, vDZP basis set                      
  Hagen Neugebauer       : wr2SCAN, Native XTB                           
  Gianluca Regni         : ADLD/ADEX                                     
  Tobias Risthaus        : pre 6.0 range-separated hybrid DFT and stability analysis
  Lukas Wittmann         : regularized MP2, r2SCAN double-hybrids, wr2SCAN        
                                                                         
We gratefully acknowledge several colleagues who have allowed us to      
interface, adapt or use parts of their codes:                            
  Ed Valeev, F. Pavosevic, A. Kumar             : LibInt (2-el integral package), F12 methods 
  Garnet Chan, S. Sharma, J. Yang, R. Olivares  : DMRG                   
  Ulf Ekstrom                                   : XCFun DFT Library      
  Mihaly Kallay                                 : mrcc  (arbitrary order and MRCC methods)
  Frank Weinhold                                : gennbo (NPA and NBO analysis)           
  Simon Mueller                                 : openCOSMO-RS                            
  Christopher J. Cramer and Donald G. Truhlar   : smd solvation model                     
  S Lehtola, MJT Oliveira, MAL Marques          : LibXC Library                           
  Liviu Ungur et al                             : ANISO software                          


 Your calculation uses the libint2 library for the computation of 2-el integrals
 For citations please refer to: http://libint.valeyev.net

 Your ORCA version has been built with support for libXC version: 7.0.0
 For citations please refer to: https://libxc.gitlab.io

 This ORCA versions uses:
   CBLAS   interface :  Fast vector & matrix operations
   LAPACKE interface :  Fast linear algebra routines
   SCALAPACK package :  Parallel linear algebra routines
   Shared memory     :  Shared parallel matrices
   BLAS/LAPACK       :  OpenBLAS 0.3.29  USE64BITINT DYNAMIC_ARCH NO_AFFINITY Cooperlake SINGLE_THREADED
        Core in use  :  Cooperlake
   Copyright (c) 2011-2014, The OpenBLAS Project


  ***********************************
  * Starting time: Wed Jun 10 15:26:22 2026
  * Host name:     chpc-cn081.rc.cuhk.edu.hk
  * Process ID:    109778
  * Working dir.:  /lustre/project/xlzhang/jingyi/chemsmart/test_pka/orca
  ***********************************

NOTE: MaxCore=2109 MB was set to SCF,MP2,MDCI,CIPSI,MRCI,RASCI and CIS
      => If you want to overwrite this, your respective input block should be placed after the MaxCore statement
XCFun DFT library Copyright 2009-2010 Ulf Ekstrom and contributors.
See http://admol.org/xcfun for more information.
This is free software; see the source code for copying conditions.
There is ABSOLUTELY NO WARRANTY; not even for MERCHANTABILITY or FITNESS FOR A PARTICULAR PURPOSE.
For details see the documentation.
Scientific users of this library should cite U. Ekstrom, L. Visscher, R. Bast, A. J. Thorvaldsen and K. Ruud;
J.Chem.Theor.Comp. 2010, DOI: 10.1021/ct100117s
XCFun Version 0.99 

Warning: RI is on but no J-basis has been assigned. Assigning Def2/J (nothing to worry about!)
=================================================================================
----- Orbital basis set information -----
Your calculation utilizes the basis: def2-SVP
   F. Weigend and R. Ahlrichs, Phys. Chem. Chem. Phys. 7, 3297 (2005).

----- AuxJ basis set information -----
Your calculation utilizes the auxiliary basis: def2/J
   H-Rn: F. Weigend, Phys. Chem. Chem. Phys. 8, 1057 (2006).
   Fr-Lr: K. Eichkorn, F. Weigend, O. Treutler, R. Ahlrichs; Theor. Chem. Acc. 97, 119 (1997).

=================================================================================
                                        WARNINGS
                       Please study these warnings very carefully!
================================================================================
WARNING: Functional chosen is sensitive to the integration grid.
          DEFGRID3 seems to be a minimum grid for robust results!
WARNING: Geometry Optimization
  ===> : Switching off AutoStart
         For restart on a previous wavefunction, please use MOREAD


================================================================================
                                       INPUT FILE
================================================================================
NAME = /lustre/project/xlzhang/jingyi/chemsmart/test_pka/orca/pka_scale_frag1_pka_HA_opt.inp
|  1> ! Opt Freq M062X def2-SVP defgrid2
|  2> # Number of processors
|  3> %pal nprocs 64 end
|  4> # Memory per core
|  5> %maxcore 2109
|  6> * xyz 0 1
|  7> C        1.2763808208    0.3143914648    0.2614460626
|  8> C        0.8256237481   -0.9230664187   -0.2140553926
|  9> C       -0.5533415114   -1.0787128018   -0.4315613510
| 10> C       -1.4464115520   -0.0172580148   -0.1803285806
| 11> C       -0.9525182880    1.2097063982    0.2910129808
| 12> C        0.4151357677    1.3884266799    0.5163858624
| 13> N       -1.8822862916    2.3183796670    0.5521915455
| 14> O       -3.0801164801    2.1280600888    0.3087452382
| 15> O       -1.4058327654    3.3689036766    0.9993658759
| 16> N        2.6876057548    0.5176386042    0.5081830665
| 17> O        3.1367200321    0.0815862144    1.5749356392
| 18> O        3.3087090670    1.1705410319   -0.3395383238
| 19> N       -1.1007627153   -2.3479773431   -0.9277228811
| 20> O       -0.2990316020   -3.2727747534   -1.1268883171
| 21> O       -2.3207982272   -2.4184910543   -1.1160060385
| 22> O        1.7555090625   -1.8975499092   -0.4482076960
| 23> H       -2.5164206566   -0.1445557475   -0.3513931890
| 24> H        0.8140240148    2.3343631707    0.8816719653
| 25> H        1.3378118215   -2.7316109536   -0.7582364668
| 26> *
| 27> 
| 28>                          ****END OF INPUT****
================================================================================

                       *****************************
                       * Geometry Optimization Run *
                       *****************************

Geometry optimization settings:
Update method            Update   .... BFGS
Choice of coordinates    CoordSys .... (2022) Redundant Internals
Initial Hessian          InHess   .... Almloef's Model
Max. no of cycles        MaxIter  .... 57

Convergence Tolerances:
Energy Change            TolE     ....  5.0000e-06 Eh
Max. Gradient            TolMAXG  ....  3.0000e-04 Eh/bohr
RMS Gradient             TolRMSG  ....  1.0000e-04 Eh/bohr
Max. Displacement        TolMAXD  ....  4.0000e-03 bohr
RMS Displacement         TolRMSD  ....  2.0000e-03 bohr
Strict Convergence                .... False

------------------------------------------------------------------------------
                        ORCA OPTIMIZATION COORDINATE SETUP
------------------------------------------------------------------------------

The optimization will be done in redundant internal coordinates (2022)
Making redundant internal coordinates   ...  (2022 redundants) done
Evaluating the initial hessian          ...  (Almloef) done
Evaluating the coordinates              ...  done
Calculating the B-matrix                .... done
Calculating the G-matrix                .... done
The number of degrees of freedom        ....   87

    -----------------------------------------------------------------
                    Redundant Internal Coordinates


    -----------------------------------------------------------------
         Definition                    Initial Value    Approx d2E/dq
    -----------------------------------------------------------------
      1. B(C   1,C   0)                  1.4002         0.601798   
      2. B(C   2,C   1)                  1.4047         0.592030   
      3. B(C   3,C   2)                  1.4097         0.581083   
      4. B(C   4,C   3)                  1.4041         0.593227   
      5. B(C   5,C   4)                  1.3976         0.607653   
      6. B(C   5,C   0)                  1.4001         0.602032   
      7. B(N   6,C   4)                  1.4703         0.416611   
      8. B(O   7,N   6)                  1.2370         0.879102   
      9. B(O   8,N   6)                  1.2372         0.878726   
     10. B(N   9,C   0)                  1.4470         0.453912   
     11. B(O  10,N   9)                  1.2369         0.879727   
     12. B(O  11,N   9)                  1.2372         0.878583   
     13. B(N  12,C   2)                  1.4686         0.419202   
     14. B(O  13,N  12)                  1.2400         0.869501   
     15. B(O  14,N  12)                  1.2365         0.880900   
     16. B(O  15,C   1)                  1.3672         0.608572   
     17. B(H  16,C   3)                  1.0910         0.358715   
     18. B(H  17,C   5)                  1.0897         0.360561   
     19. B(H  18,O  13)                  1.7630         0.027221   
     20. B(H  18,N  12)                  2.4744         0.010000   
     21. B(H  18,O  15)                  0.9830         0.477866   
     22. A(C   1,C   0,C   5)          122.8035         0.429473   
     23. A(C   1,C   0,N   9)          119.7364         0.405763   
     24. A(C   5,C   0,N   9)          117.4601         0.405791   
     25. A(C   2,C   1,O  15)          124.2090         0.426246   
     26. A(C   0,C   1,O  15)          117.9781         0.427498   
     27. A(C   0,C   1,C   2)          117.8102         0.428184   
     28. A(C   1,C   2,N  12)          120.9307         0.398960   
     29. A(C   3,C   2,N  12)          118.3466         0.397654   
     30. A(C   1,C   2,C   3)          120.7226         0.425506   
     31. A(C   2,C   3,H  16)          120.3639         0.348838   
     32. A(C   2,C   3,C   4)          119.6657         0.425660   
     33. A(C   4,C   3,H  16)          119.9703         0.350058   
     34. A(C   3,C   4,N   6)          119.7425         0.398667   
     35. A(C   3,C   4,C   5)          120.6702         0.429084   
     36. A(C   5,C   4,N   6)          119.5873         0.400356   
     37. A(C   0,C   5,H  17)          120.1190         0.351234   
     38. A(C   0,C   5,C   4)          118.3268         0.430220   
     39. A(C   4,C   5,H  17)          121.5542         0.351786   
     40. A(O   7,N   6,O   8)          125.0773         0.479850   
     41. A(C   4,N   6,O   8)          117.4488         0.421864   
     42. A(C   4,N   6,O   7)          117.4739         0.421896   
     43. A(C   0,N   9,O  11)          116.5452         0.428375   
     44. A(C   0,N   9,O  10)          116.8519         0.428475   
     45. A(O  10,N   9,O  11)          126.4925         0.479898   
     46. A(O  13,N  12,O  14)          124.8163         0.479097   
     47. A(C   2,N  12,O  14)          117.9377         0.422518   
     48. A(C   2,N  12,O  13)          117.2460         0.421536   
     49. A(C   1,O  15,H  18)          111.7029         0.363637   
     50. D(O  15,C   1,C   0,N   9)     -0.9703         0.024975   
     51. D(O  15,C   1,C   0,C   5)    179.0383         0.024975   
     52. D(C   2,C   1,C   0,N   9)    179.6071         0.024975   
     53. D(C   2,C   1,C   0,C   5)     -0.3843         0.024975   
     54. D(C   3,C   2,C   1,C   0)      0.1786         0.024129   
     55. D(N  12,C   2,C   1,O  15)      0.6897         0.024129   
     56. D(C   3,C   2,C   1,O  15)   -179.2049         0.024129   
     57. D(N  12,C   2,C   1,C   0)   -179.9269         0.024129   
     58. D(H  16,C   3,C   2,N  12)      0.0977         0.023202   
     59. D(H  16,C   3,C   2,C   1)    179.9949         0.023202   
     60. D(C   4,C   3,C   2,N  12)   -179.8228         0.023202   
     61. D(C   4,C   3,C   2,C   1)      0.0744         0.023202   
     62. D(N   6,C   4,C   3,C   2)    179.9328         0.024231   
     63. D(C   5,C   4,C   3,H  16)    179.9396         0.024231   
     64. D(C   5,C   4,C   3,C   2)     -0.1396         0.024231   
     65. D(N   6,C   4,C   3,H  16)      0.0120         0.024231   
     66. D(H  17,C   5,C   4,N   6)     -0.0891         0.025490   
     67. D(C   0,C   5,C   4,N   6)    179.8754         0.025490   
     68. D(C   0,C   5,C   4,C   3)     -0.0523         0.025490   
     69. D(H  17,C   5,C   0,N   9)      0.2966         0.024995   
     70. D(H  17,C   5,C   0,C   1)   -179.7119         0.024995   
     71. D(H  17,C   5,C   4,C   3)    179.9832         0.025490   
     72. D(C   4,C   5,C   0,N   9)   -179.6685         0.024995   
     73. D(C   4,C   5,C   0,C   1)      0.3231         0.024995   
     74. D(O   8,N   6,C   4,C   5)     -1.7572         0.013683   
     75. D(O   8,N   6,C   4,C   3)    178.1712         0.013683   
     76. D(O   7,N   6,C   4,C   5)    178.2954         0.013683   
     77. D(O   7,N   6,C   4,C   3)     -1.7762         0.013683   
     78. D(O  11,N   9,C   0,C   1)    102.9169         0.016228   
     79. D(O  10,N   9,C   0,C   5)     99.3395         0.016228   
     80. D(O  10,N   9,C   0,C   1)    -80.6523         0.016228   
     81. D(O  11,N   9,C   0,C   5)    -77.0913         0.016228   
     82. D(O  14,N  12,C   2,C   3)      0.8175         0.014985   
     83. D(O  14,N  12,C   2,C   1)   -179.0795         0.014985   
     84. D(O  13,N  12,C   2,C   3)   -179.1756         0.014985   
     85. D(O  13,N  12,C   2,C   1)      0.9275         0.014985   
     86. D(H  18,O  15,C   1,C   2)     -1.9688         0.027101   
     87. D(H  18,O  15,C   1,C   0)    178.6488         0.027101   
    -----------------------------------------------------------------

Number of atoms                         .... 19
Number of degrees of freedom            .... 87


         *************************************************************
         *                GEOMETRY OPTIMIZATION CYCLE   1            *
         *************************************************************
---------------------------------
CARTESIAN COORDINATES (ANGSTROEM)
---------------------------------
  C      1.276381    0.314391    0.261446
  C      0.825624   -0.923066   -0.214055
  C     -0.553342   -1.078713   -0.431561
  C     -1.446412   -0.017258   -0.180329
  C     -0.952518    1.209706    0.291013
  C      0.415136    1.388427    0.516386
  N     -1.882286    2.318380    0.552192
  O     -3.080116    2.128060    0.308745
  O     -1.405833    3.368904    0.999366
  N      2.687606    0.517639    0.508183
  O      3.136720    0.081586    1.574936
  O      3.308709    1.170541   -0.339538
  N     -1.100763   -2.347977   -0.927723
  O     -0.299032   -3.272775   -1.126888
  O     -2.320798   -2.418491   -1.116006
  O      1.755509   -1.897550   -0.448208
  H     -2.516421   -0.144556   -0.351393
  H      0.814024    2.334363    0.881672
  H      1.337812   -2.731611   -0.758236

----------------------------
CARTESIAN COORDINATES (A.U.)
----------------------------
  NO LB      ZA    FRAG     MASS         X           Y           Z
   0 C     6.0000    0    12.011    2.412010    0.594114    0.494061
   1 C     6.0000    0    12.011    1.560203   -1.744343   -0.404506
   2 C     6.0000    0    12.011   -1.045664   -2.038472   -0.815533
   3 C     6.0000    0    12.011   -2.733322   -0.032613   -0.340772
   4 C     6.0000    0    12.011   -1.799999    2.286014    0.549935
   5 C     6.0000    0    12.011    0.784493    2.623746    0.975828
   6 N     7.0000    0    14.007   -3.557006    4.381103    1.043491
   7 O     8.0000    0    15.999   -5.820577    4.021451    0.583444
   8 O     8.0000    0    15.999   -2.656639    6.366305    1.888528
   9 N     7.0000    0    14.007    5.078839    0.978195    0.960327
  10 O     8.0000    0    15.999    5.927542    0.154176    2.976197
  11 O     8.0000    0    15.999    6.252554    2.212002   -0.641634
  12 N     7.0000    0    14.007   -2.080140   -4.437034   -1.753142
  13 O     8.0000    0    15.999   -0.565088   -6.184648   -2.129510
  14 O     8.0000    0    15.999   -4.385673   -4.570286   -2.108946
  15 O     8.0000    0    15.999    3.317431   -3.585850   -0.846990
  16 H     1.0000    0     1.008   -4.755346   -0.273171   -0.664037
  17 H     1.0000    0     1.008    1.538282    4.411307    1.666119
  18 H     1.0000    0     1.008    2.528098   -5.161997   -1.432859

--------------------------------
INTERNAL COORDINATES (ANGSTROEM)
--------------------------------
 C      0   0   0     0.000000000000     0.00000000     0.00000000
 C      1   0   0     1.400209122211     0.00000000     0.00000000
 C      2   1   0     1.404663598667   117.81016717     0.00000000
 C      3   2   1     1.409744043146   120.72258221     0.17856437
 C      4   3   2     1.404113633043   119.66572646     0.07435034
 C      5   4   3     1.397573429529   120.67016674   359.86043832
 N      5   4   3     1.470319421122   119.74245770   179.93281219
 O      7   5   4     1.237046808680   117.47392570   358.22380319
 O      7   5   4     1.237163505420   117.44875196   178.17121228
 N      1   2   3     1.446977665035   119.73642379   179.60708258
 O     10   1   2     1.236853415764   116.85191096   279.34772825
 O     10   1   2     1.237207525072   116.54522226   102.91691405
 N      3   2   1     1.468631578794   120.93068948   180.07308688
 O     13   3   2     1.240036249078   117.24597173     0.92746643
 O     13   3   2     1.236490752543   117.93770238   180.92051669
 O      2   1   3     1.367162050520   117.97811243   179.42261558
 H      4   3   2     1.091048714277   120.36394431   179.99485219
 H      6   5   4     1.089652061565   121.55420246   179.98319044
 H     16   2   1     0.982978458385   111.70288426   178.64875459

---------------------------
INTERNAL COORDINATES (A.U.)
---------------------------
 C      0   0   0     0.000000000000     0.00000000     0.00000000
 C      1   0   0     2.646011771197     0.00000000     0.00000000
 C      2   1   0     2.654429511768   117.81016717     0.00000000
 C      3   2   1     2.664030160473   120.72258221     0.17856437
 C      4   3   2     2.653390227356   119.66572646     0.07435034
 C      5   4   3     2.641031033854   120.67016674   359.86043832
 N      5   4   3     2.778501035306   119.74245770   179.93281219
 O      7   5   4     2.337679683247   117.47392570   358.22380319
 O      7   5   4     2.337900208126   117.44875196   178.17121228
 N      1   2   3     2.734391508818   119.73642379   179.60708258
 O     10   1   2     2.337314223599   116.85191096   279.34772825
 O     10   1   2     2.337983393212   116.54522226   102.91691405
 N      3   2   1     2.775311475550   120.93068948   180.07308688
 O     13   3   2     2.343328906893   117.24597173     0.92746643
 O     13   3   2     2.336628889433   117.93770238   180.92051669
 O      2   1   3     2.583561856173   117.97811243   179.42261558
 H      4   3   2     2.061783268750   120.36394431   179.99485219
 H      6   5   4     2.059143977621   121.55420246   179.98319044
 H     16   2   1     1.857560081891   111.70288426   178.64875459

---------------------
BASIS SET INFORMATION
---------------------
There are 4 groups of distinct atoms

 Group   1 Type C   : 7s4p1d contracted to 3s2p1d pattern {511/31/1}
 Group   2 Type N   : 7s4p1d contracted to 3s2p1d pattern {511/31/1}
 Group   3 Type O   : 7s4p1d contracted to 3s2p1d pattern {511/31/1}
 Group   4 Type H   : 4s1p contracted to 2s1p pattern {31/1}

Atom   0C    basis set group =>   1
Atom   1C    basis set group =>   1
Atom   2C    basis set group =>   1
Atom   3C    basis set group =>   1
Atom   4C    basis set group =>   1
Atom   5C    basis set group =>   1
Atom   6N    basis set group =>   2
Atom   7O    basis set group =>   3
Atom   8O    basis set group =>   3
Atom   9N    basis set group =>   2
Atom  10O    basis set group =>   3
Atom  11O    basis set group =>   3
Atom  12N    basis set group =>   2
Atom  13O    basis set group =>   3
Atom  14O    basis set group =>   3
Atom  15O    basis set group =>   3
Atom  16H    basis set group =>   4
Atom  17H    basis set group =>   4
Atom  18H    basis set group =>   4
---------------------------------
AUXILIARY/J BASIS SET INFORMATION
---------------------------------
There are 4 groups of distinct atoms

 Group   1 Type C   : 12s5p4d2f1g contracted to 6s4p3d1f1g pattern {711111/2111/211/2/1}
 Group   2 Type N   : 12s5p4d2f1g contracted to 6s4p3d1f1g pattern {711111/2111/211/2/1}
 Group   3 Type O   : 12s5p4d2f1g contracted to 6s4p3d1f1g pattern {711111/2111/211/2/1}
 Group   4 Type H   : 5s2p1d contracted to 3s1p1d pattern {311/2/1}

Atom   0C    basis set group =>   1
Atom   1C    basis set group =>   1
Atom   2C    basis set group =>   1
Atom   3C    basis set group =>   1
Atom   4C    basis set group =>   1
Atom   5C    basis set group =>   1
Atom   6N    basis set group =>   2
Atom   7O    basis set group =>   3
Atom   8O    basis set group =>   3
Atom   9N    basis set group =>   2
Atom  10O    basis set group =>   3
Atom  11O    basis set group =>   3
Atom  12N    basis set group =>   2
Atom  13O    basis set group =>   3
Atom  14O    basis set group =>   3
Atom  15O    basis set group =>   3
Atom  16H    basis set group =>   4
Atom  17H    basis set group =>   4
Atom  18H    basis set group =>   4


           ************************************************************
           *        Program running with 64 parallel MPI-processes    *
           *              working on a common directory               *
           ************************************************************
------------------------------------------------------------------------------
                             ORCA STARTUP CALCULATIONS
                           -- RI-GTO INTEGRALS CHOSEN --
------------------------------------------------------------------------------
------------------------------------------------------------------------------
                   ___                                                        
                  /   \      - P O W E R E D   B Y -                         
                 /     \                                                     
                 |  |  |   _    _      __       _____    __    __             
                 |  |  |  | |  | |    /  \     |  _  \  |  |  /  |          
                  \  \/   | |  | |   /    \    | | | |  |  | /  /          
                 / \  \   | |__| |  /  /\  \   | |_| |  |  |/  /          
                |  |  |   |  __  | /  /__\  \  |    /   |      \           
                |  |  |   | |  | | |   __   |  |    \   |  |\   \          
                \     /   | |  | | |  |  |  |  | |\  \  |  | \   \       
                 \___/    |_|  |_| |__|  |__|  |_| \__\ |__|  \__/        
                                                                              
                      - O R C A' S   B I G   F R I E N D -                    
                                      &                                       
                       - I N T E G R A L  F E E D E R -                       
                                                                              
 v1 FN, 2020, v2 2021, v3 2022-2024                                           
------------------------------------------------------------------------------


----------------------
SHARK INTEGRAL PACKAGE
----------------------

Number of atoms                             ...     19
Number of basis functions                   ...    239
Number of shells                            ...    105
Maximum angular momentum                    ...      2
Integral batch strategy                     ... SHARK/LIBINT Hybrid
RI-J (if used) integral strategy            ... SPLIT-RIJ (Revised 2003 algorithm where possible)
Printlevel                                  ...      1
Contraction scheme used                     ... SEGMENTED contraction
Prescreening option                         ... SCHWARTZ
   Thresh                                   ... 2.500e-11
   Tcut                                     ... 2.500e-12
   Tpresel                                  ... 2.500e-12 
Coulomb Range Separation                    ... NOT USED
Exchange Range Separation                   ... NOT USED
Multipole approximations                    ... NOT USED
Finite Nucleus Model                        ... NOT USED
CABS basis                                  ... NOT available
Auxiliary Coulomb fitting basis             ... AVAILABLE
   # of basis functions in Aux-J            ...    817
   # of shells in Aux-J                     ...    255
   Maximum angular momentum in Aux-J        ...      4
Auxiliary J/K fitting basis                 ... NOT available
Auxiliary Correlation fitting basis         ... NOT available
Auxiliary 'external' fitting basis          ... NOT available

Checking pre-screening integrals            ... done (  0.0 sec) Dimension = 105
   => SHARK Basis and OBASIS are compatible. Storing Pre-screening
Shell pair information
Shell pair cut-off parameter TPreSel        ...   2.5e-12
Total number of shell pairs                 ...      5565
Shell pairs after pre-screening             ...      4484
Total number of primitive shell pairs       ...     21745
Primitive shell pairs kept                  ...     11601
          la=0 lb=0:   1173 shell pairs
          la=1 lb=0:   1581 shell pairs
          la=1 lb=1:    559 shell pairs
          la=2 lb=0:    628 shell pairs
          la=2 lb=1:    450 shell pairs
          la=2 lb=2:     93 shell pairs

Checking whether 4 symmetric matrices of dimension 239 fit in memory
:Max Core in MB      =   2109.00
 MB in use           =      9.21
 MB left             =   2099.79
 MB needed           =      0.88
 Data fit in memory  = YES
Calculating RI/J V-Matrix + Cholesky decomp.... done (  0.5 sec)
Calculating Nuclear repulsion               ... done (  0.0 sec) ENN=   1099.572108659089 Eh

Diagonalization of the overlap matrix:
Smallest eigenvalue                        ... 1.789e-04
Time for diagonalization                   ...    0.009 sec
Threshold for overlap eigenvalues          ... 1.000e-07
Number of eigenvalues below threshold      ... 0
Time for construction of square roots      ...    0.029 sec
Total time needed                          ...    0.080 sec

-------------------
DFT GRID GENERATION
-------------------

General Integration Accuracy     IntAcc      ... 4.388
Radial Grid Type                 RadialGrid  ... OptM3 with GC (2021)
Angular Grid (max. ang.)         AngularGrid ... 4 (Lebedev-302)
Angular grid pruning method      GridPruning ... 4 (adaptive)
Weight generation scheme         WeightScheme... mBecke (2022)
Basis function cutoff            BFCut       ... 1.0000e-11
Integration weight cutoff        WCut        ... 1.0000e-14
Partially contracted basis set               ... off
Rotationally invariant grid construction     ... off
Angular grids for H and He will be reduced by one unit

Total number of grid points                  ...   106232
Total number of batches                      ...     1670
Average number of points per batch           ...       63
Average number of grid points per atom       ...     5591

--------------------
COSX GRID GENERATION
--------------------

GRIDX 1
-------
General Integration Accuracy     IntAcc      ... 3.816
Radial Grid Type                 RadialGrid  ... OptM3 with GC (2021)
Angular Grid (max. ang.)         AngularGrid ... 1 (Lebedev-50)
Angular grid pruning method      GridPruning ... 4 (adaptive)
Weight generation scheme         WeightScheme... mBecke (2022)
Basis function cutoff            BFCut       ... 1.0000e-11
Integration weight cutoff        WCut        ... 1.0000e-14
Partially contracted basis set               ... on
Rotationally invariant grid construction     ... off
Angular grids for H and He will be reduced by one unit

Total number of grid points                  ...    13422
Total number of batches                      ...      116
Average number of points per batch           ...      115
Average number of grid points per atom       ...      706
UseSFitting                                  ... on

GRIDX 2
-------
General Integration Accuracy     IntAcc      ... 4.020
Radial Grid Type                 RadialGrid  ... OptM3 with GC (2021)
Angular Grid (max. ang.)         AngularGrid ... 2 (Lebedev-110)
Angular grid pruning method      GridPruning ... 4 (adaptive)
Weight generation scheme         WeightScheme... mBecke (2022)
Basis function cutoff            BFCut       ... 1.0000e-11
Integration weight cutoff        WCut        ... 1.0000e-14
Partially contracted basis set               ... on
Rotationally invariant grid construction     ... off
Angular grids for H and He will be reduced by one unit

Total number of grid points                  ...    31061
Total number of batches                      ...      252
Average number of points per batch           ...      123
Average number of grid points per atom       ...     1635
UseSFitting                                  ... on

GRIDX 3
-------
General Integration Accuracy     IntAcc      ... 4.338
Radial Grid Type                 RadialGrid  ... OptM3 with GC (2021)
Angular Grid (max. ang.)         AngularGrid ... 3 (Lebedev-194)
Angular grid pruning method      GridPruning ... 4 (adaptive)
Weight generation scheme         WeightScheme... mBecke (2022)
Basis function cutoff            BFCut       ... 1.0000e-11
Integration weight cutoff        WCut        ... 1.0000e-14
Partially contracted basis set               ... on
Rotationally invariant grid construction     ... off
Angular grids for H and He will be reduced by one unit

Total number of grid points                  ...    68778
Total number of batches                      ...      546
Average number of points per batch           ...      125
Average number of grid points per atom       ...     3620
UseSFitting                                  ... on
Grids setup in   2.2 sec
Initializing property integral containers    ... done (  0.1 sec)

SHARK setup successfully completed in   4.2 seconds

Maximum memory used throughout the entire STARTUP-calculation: 26.1 MB


           ************************************************************
           *        Program running with 64 parallel MPI-processes    *
           *              working on a common directory               *
           ************************************************************
-------------------------------------------------------------------------------
                                 ORCA GUESS
                   Start orbitals & Density for SCF / CASSCF
-------------------------------------------------------------------------------

------------
SCF SETTINGS
------------
Hamiltonian:
 Density Functional     Method          .... DFT(GTOs)
 Exchange Functional    Exchange        .... M062X
 Correlation Functional Correlation     .... M062X
 Gradients option       PostSCFGGA      .... off
 Hybrid DFT is turned on
   Fraction HF Exchange ScalHFX         ....  0.540000
   Scaling of DF-GGA-X  ScalDFX         ....  0.460000
   Scaling of DF-GGA-C  ScalDFC         ....  1.000000
   Scaling of DF-LDA-C  ScalLDAC        ....  1.000000
   Perturbative correction              ....  0.000000
 RI-approximation to the Coulomb term is turned on
   Number of AuxJ basis functions       .... 817
   RIJ-COSX (HFX calculated with COS-X)).... on


General Settings:
 Integral files         IntName         .... /lustre/project/xlzhang/jingyi/chemsmart/test_pka/orca/pka_scale_frag1_pka_HA_opt
 Hartree-Fock type      HFTyp           .... RHF
 Total Charge           Charge          ....    0
 Multiplicity           Mult            ....    1
 Number of Electrons    NEL             ....  116
 Basis Dimension        Dim             ....  239
 Nuclear Repulsion      ENuc            ....   1099.5721086591 Eh

Convergence Acceleration:
 AO-DIIS                CNVDIIS         .... on
   Start iteration      DIISMaxIt       ....    12
   Startup error        DIISStart       ....  0.200000
   # of expansion vecs  DIISMaxEq       ....     5
   Bias factor          DIISBfac        ....   1.050
   Max. coefficient     DIISMaxC        ....  10.000
 MO-DIIS                CNVKDIIS        .... off
 Trust-Rad. Augm. Hess. CNVTRAH         .... auto
   Auto Start mean grad. ratio tolernc. ....  1.125000
   Auto Start start iteration           ....    50
   Auto Start num. interpolation iter.  ....    10
   Max. Number of Micro iterations      ....    24
   Max. Number of Macro iterations      .... Maxiter - #DIIS iter
   Number of Davidson start vectors     ....     2
   Converg. threshold    (grad. norm)   ....   1.000e-05
   Grad. Scal. Fac. for Micro threshold ....   0.100
   Minimum threshold for Micro iter.    ....   1.000e-02
   NR start threshold (gradient norm)   ....   1.000e-04
   Initial trust radius                 ....   0.400
   Minimum AH scaling param. (alpha)    ....   1.000
   Maximum AH scaling param. (alpha)    .... 1000.000
   Quad. conv. algorithm                .... NR
   White noise on init. David. guess    .... on
   Maximum white noise                  ....   0.010
   Pseudo random numbers                .... off
   Inactive MOs                         .... canonical
   Orbital update algorithm             .... Taylor
   Preconditioner                       .... Diag
   Full preconditioner red. dimension   ....   250
 SOSCF                 CNVSOSCF           .... on
   Start iteration     SOSCFMaxIt         ....   150
   Startup grad/error  SOSCFStart         ....  0.003300
   Hessian update      SOSCFHessUp        .... L-BFGS
   Autom. constraints  SOSCFAutoConstrain .... off
 Level Shifting         CNVShift        .... on
   Level shift para.    LevelShift      ....    0.2500
   Turn off err/grad.   ShiftErr        ....    0.0010
 Zerner damping         CNVZerner       .... off
 Static damping         CNVDamp         .... on
   Fraction old density DampFac         ....    0.7000
   Max. Damping (<1)    DampMax         ....    0.9800
   Min. Damping (>=0)   DampMin         ....    0.0000
   Turn off err/grad.   DampErr         ....    0.1000

SCF Procedure:
 Maximum # iterations   MaxIter         ....   125
 SCF integral mode      SCFMode         .... Direct
   Integral package                     .... SHARK and LIBINT hybrid scheme
 Reset frequency        DirectResetFreq ....    20
 Integral Threshold     Thresh          ....  2.500e-11 Eh
 Primitive CutOff       TCut            ....  2.500e-12 Eh

Convergence Tolerance:
 Convergence Check Mode ConvCheckMode   .... Total+1el-Energy
 Convergence forced     ConvForced      .... 0
 Energy Change          TolE            ....  1.000e-08 Eh
 1-El. energy change                    ....  1.000e-05 Eh
 Orbital Gradient       TolG            ....  1.000e-05
 Orbital Rotation angle TolX            ....  1.000e-05
 DIIS Error             TolErr          ....  5.000e-07

------------------------------
INITIAL GUESS: MODEL POTENTIAL
------------------------------
Loading Hartree-Fock densities                     ... done
Calculating cut-offs                               ... done
Initializing the effective Hamiltonian             ... done
Setting up the integral package (SHARK)            ... done
Starting the Coulomb interaction                   ... done (   0.6 sec)
Making the grid                                    ... done (   0.3 sec)
Mapping shells                                     ... done
Starting the XC term evaluation                    ... done (   0.2 sec)
  promolecular density results
     # of electrons  =    116.000283159
     EX              =   -108.220503637
     EC              =     -3.993095208
     EX+EC           =   -112.213598845
Transforming the Hamiltonian                       ... done (   0.1 sec)
Diagonalizing the Hamiltonian                      ... done (   0.0 sec)
Back transforming the eigenvectors                 ... done (   0.1 sec)
Now organizing SCF variables                       ... done
                      ------------------
                      INITIAL GUESS DONE (   1.3 sec)
                      ------------------
             **** ENERGY FILE WAS UPDATED (/lustre/project/xlzhang/jingyi/chemsmart/test_pka/orca/pka_scale_frag1_pka_HA_opt.en.tmp) ****
Finished Guess after   3.8 sec
Maximum memory used throughout the entire GUESS-calculation: 12.0 MB


           ************************************************************
           *        Program running with 64 parallel MPI-processes    *
           *              working on a common directory               *
           ************************************************************

-------------------------------------------------------------------------------------------
                                      ORCA LEAN-SCF
                              memory conserving SCF solver
-------------------------------------------------------------------------------------------

----------------------------------------D-I-I-S--------------------------------------------
Iteration    Energy (Eh)           Delta-E    RMSDP     MaxDP     DIISErr   Damp  Time(sec)
-------------------------------------------------------------------------------------------
               ***  Starting incremental Fock matrix formation  ***
    1    -919.4424699388905537     0.00e+00  3.04e-02  8.10e-02  2.55e-01  0.700   2.0
    2    -919.6549858826513173    -2.13e-01  1.89e-02  4.50e-02  9.43e-02  0.700   0.8
                               ***Turning on AO-DIIS***
    3    -919.7315700773665412    -7.66e-02  7.68e-03  1.59e-02  3.34e-02  0.700   0.7
    4    -919.7808073022702047    -4.92e-02  1.44e-02  3.32e-02  1.86e-02  0.000   0.8
    5    -919.8929706910082587    -1.12e-01  2.24e-03  5.63e-03  3.45e-03  0.000   0.6
                              *** Initializing SOSCF ***
---------------------------------------S-O-S-C-F--------------------------------------
Iteration    Energy (Eh)           Delta-E    RMSDP     MaxDP     MaxGrad    Time(sec)
--------------------------------------------------------------------------------------
    6    -919.8932366994768017    -2.66e-04  1.01e-03  3.29e-03  8.72e-04     0.6
               *** Restarting incremental Fock matrix formation ***
    7    -919.8932547440870167    -1.80e-05  6.11e-04  1.43e-03  5.41e-04     0.5
    8    -919.8932660075793137    -1.13e-05  5.41e-04  1.48e-03  7.01e-04     0.6
    9    -919.8932693933065821    -3.39e-06  2.29e-04  6.50e-04  4.17e-04     0.8
   10    -919.8932717186303307    -2.33e-06  1.52e-04  5.32e-04  7.85e-05     0.7
   11    -919.8932718317778381    -1.13e-07  6.99e-05  2.26e-04  7.33e-05     0.6
   12    -919.8932720257371329    -1.94e-07  2.82e-05  8.69e-05  1.65e-05     0.8
   13    -919.8932720175221220     8.22e-09  1.67e-05  5.05e-05  2.54e-05     0.6
                 **** Energy Check signals convergence ****

               *****************************************************
               *                     SUCCESS                       *
               *           SCF CONVERGED AFTER  13 CYCLES          *
               *****************************************************

Recomputing exchange energy using gridx3       ... done (    0.256 sec)
Old exchange energy                            :    -58.820432823 Eh
New exchange energy                            :    -58.820623775 Eh
Exchange energy change after final integration :     -0.000190952 Eh
Total energy after final integration           :   -919.893462991 Eh
             **** ENERGY FILE WAS UPDATED (/lustre/project/xlzhang/jingyi/chemsmart/test_pka/orca/pka_scale_frag1_pka_HA_opt.en.tmp) ****

----------------
TOTAL SCF ENERGY
----------------

Total Energy       :       -919.89346299111958 Eh          -25031.57371 eV

Components:
Nuclear Repulsion  :       1099.57210865908905 Eh           29920.87822 eV
Electronic Energy  :      -2019.46538069852159 Eh          -54952.44674 eV
One Electron Energy:      -3438.32783127985749 Eh          -93561.65687 eV
Two Electron Energy:       1418.86245058133591 Eh           38609.21013 eV

Virial components:
Potential Energy   :      -1832.53767016445136 Eh          -49865.88514 eV
Kinetic Energy     :        912.64420717333178 Eh           24834.31143 eV
Virial Ratio       :          2.00794313464197

DFT components:
N(Alpha)           :       57.999994822557 electrons
N(Beta)            :       57.999994822557 electrons
N(Total)           :      115.999989645115 electrons
E(XC)              :      -54.871505237461 Eh       

---------------
SCF CONVERGENCE
---------------

  Last Energy change         ...   -8.2150e-09  Tolerance :   1.0000e-08
  Last MAX-Density change    ...    5.0511e-05  Tolerance :   1.0000e-07
  Last RMS-Density change    ...    1.6725e-05  Tolerance :   5.0000e-09
  Last DIIS Error            ...    8.7195e-04  Tolerance :   5.0000e-07
  Last Orbital Gradient      ...    2.5368e-05  Tolerance :   1.0000e-05
  Last Orbital Rotation      ...    3.5634e-05  Tolerance :   1.0000e-05


----------------
ORBITAL ENERGIES
----------------

  NO   OCC          E(Eh)            E(eV) 
   0   2.0000     -19.726144      -536.7757 
   1   2.0000     -19.723528      -536.7045 
   2   2.0000     -19.722198      -536.6683 
   3   2.0000     -19.702746      -536.1390 
   4   2.0000     -19.702620      -536.1355 
   5   2.0000     -19.701839      -536.1143 
   6   2.0000     -19.701415      -536.1028 
   7   2.0000     -15.066090      -409.9691 
   8   2.0000     -15.043254      -409.3477 
   9   2.0000     -15.040475      -409.2721 
  10   2.0000     -10.725510      -291.8560 
  11   2.0000     -10.686933      -290.8062 
  12   2.0000     -10.678945      -290.5889 
  13   2.0000     -10.677597      -290.5522 
  14   2.0000     -10.660518      -290.0874 
  15   2.0000     -10.659921      -290.0712 
  16   2.0000      -1.395809       -37.9819 
  17   2.0000      -1.373351       -37.3708 
  18   2.0000      -1.373105       -37.3641 
  19   2.0000      -1.232210       -33.5301 
  20   2.0000      -1.209596       -32.9148 
  21   2.0000      -1.191023       -32.4094 
  22   2.0000      -1.190980       -32.4082 
  23   2.0000      -1.059808       -28.8388 
  24   2.0000      -0.984555       -26.7911 
  25   2.0000      -0.971153       -26.4264 
  26   2.0000      -0.868341       -23.6288 
  27   2.0000      -0.850170       -23.1343 
  28   2.0000      -0.842996       -22.9391 
  29   2.0000      -0.753480       -20.5032 
  30   2.0000      -0.712149       -19.3786 
  31   2.0000      -0.698538       -19.0082 
  32   2.0000      -0.682598       -18.5744 
  33   2.0000      -0.680004       -18.5039 
  34   2.0000      -0.676241       -18.4015 
  35   2.0000      -0.659988       -17.9592 
  36   2.0000      -0.655330       -17.8324 
  37   2.0000      -0.654055       -17.7977 
  38   2.0000      -0.638407       -17.3720 
  39   2.0000      -0.627393       -17.0722 
  40   2.0000      -0.622678       -16.9439 
  41   2.0000      -0.604223       -16.4418 
  42   2.0000      -0.566900       -15.4261 
  43   2.0000      -0.562247       -15.2995 
  44   2.0000      -0.540451       -14.7064 
  45   2.0000      -0.511392       -13.9157 
  46   2.0000      -0.488500       -13.2928 
  47   2.0000      -0.446414       -12.1475 
  48   2.0000      -0.435917       -11.8619 
  49   2.0000      -0.433533       -11.7970 
  50   2.0000      -0.428656       -11.6643 
  51   2.0000      -0.426126       -11.5955 
  52   2.0000      -0.416853       -11.3432 
  53   2.0000      -0.412331       -11.2201 
  54   2.0000      -0.405859       -11.0440 
  55   2.0000      -0.402452       -10.9513 
  56   2.0000      -0.389787       -10.6066 
  57   2.0000      -0.363130        -9.8813 
  58   0.0000      -0.113366        -3.0849 
  59   0.0000      -0.094951        -2.5837 
  60   0.0000      -0.062640        -1.7045 
  61   0.0000      -0.033686        -0.9166 
  62   0.0000       0.006007         0.1635 
  63   0.0000       0.055694         1.5155 
  64   0.0000       0.097183         2.6445 
  65   0.0000       0.116905         3.1811 
  66   0.0000       0.138174         3.7599 
  67   0.0000       0.145086         3.9480 
  68   0.0000       0.161983         4.4078 
*Only the first 10 virtual orbitals were printed.

                    ********************************
                    * MULLIKEN POPULATION ANALYSIS *
                    ********************************

-----------------------
MULLIKEN ATOMIC CHARGES
-----------------------
   0 C :   -0.027886
   1 C :    0.238516
   2 C :    0.067986
   3 C :    0.025039
   4 C :    0.118023
   5 C :    0.097570
   6 N :    0.231419
   7 O :   -0.237936
   8 O :   -0.238533
   9 N :    0.236719
  10 O :   -0.224315
  11 O :   -0.230496
  12 N :    0.253455
  13 O :   -0.282971
  14 O :   -0.212364
  15 O :   -0.206670
  16 H :    0.078961
  17 H :    0.070892
  18 H :    0.242593
Sum of atomic charges:   -0.0000000

--------------------------------
MULLIKEN REDUCED ORBITAL CHARGES
--------------------------------
  0 C s       :     3.026443  s :     3.026443
      pz      :     1.089169  p :     2.959247
      px      :     0.860410
      py      :     1.009668
      dz2     :     0.005133  d :     0.042196
      dxz     :     0.005457
      dyz     :     0.005926
      dx2y2   :     0.015667
      dxy     :     0.010012

  1 C s       :     3.010367  s :     3.010367
      pz      :     0.915187  p :     2.678232
      px      :     0.864722
      py      :     0.898323
      dz2     :     0.007232  d :     0.072886
      dxz     :     0.013387
      dyz     :     0.012755
      dx2y2   :     0.021148
      dxy     :     0.018364

  2 C s       :     3.026961  s :     3.026961
      pz      :     1.119383  p :     2.863978
      px      :     0.895837
      py      :     0.848758
      dz2     :     0.004173  d :     0.041075
      dxz     :     0.006445
      dyz     :     0.006248
      dx2y2   :     0.013233
      dxy     :     0.010976

  3 C s       :     3.348968  s :     3.348968
      pz      :     0.873921  p :     2.595279
      px      :     0.778872
      py      :     0.942486
      dz2     :     0.003688  d :     0.030714
      dxz     :     0.003791
      dyz     :     0.006640
      dx2y2   :     0.007622
      dxy     :     0.008973

  4 C s       :     3.002129  s :     3.002129
      pz      :     1.076336  p :     2.836680
      px      :     0.870254
      py      :     0.890089
      dz2     :     0.004845  d :     0.043169
      dxz     :     0.006666
      dyz     :     0.005216
      dx2y2   :     0.010152
      dxy     :     0.016289

  5 C s       :     3.304977  s :     3.304977
      pz      :     0.872672  p :     2.565721
      px      :     0.907323
      py      :     0.785726
      dz2     :     0.002856  d :     0.031733
      dxz     :     0.007380
      dyz     :     0.003937
      dx2y2   :     0.008812
      dxy     :     0.008748

  6 N s       :     3.314313  s :     3.314313
      pz      :     1.144298  p :     3.341362
      px      :     1.085317
      py      :     1.111747
      dz2     :     0.010879  d :     0.112906
      dxz     :     0.021769
      dyz     :     0.013074
      dx2y2   :     0.028824
      dxy     :     0.038359

  7 O s       :     3.875815  s :     3.875815
      pz      :     1.446342  p :     4.339274
      px      :     1.115276
      py      :     1.777656
      dz2     :     0.002880  d :     0.022847
      dxz     :     0.006984
      dyz     :     0.000252
      dx2y2   :     0.007864
      dxy     :     0.004867

  8 O s       :     3.875281  s :     3.875281
      pz      :     1.375400  p :     4.340417
      px      :     1.722480
      py      :     1.242537
      dz2     :     0.003400  d :     0.022835
      dxz     :     0.001669
      dyz     :     0.006591
      dx2y2   :     0.005254
      dxy     :     0.005920

  9 N s       :     3.342942  s :     3.342942
      pz      :     1.045305  p :     3.306128
      px      :     1.123071
      py      :     1.137751
      dz2     :     0.034911  d :     0.114212
      dxz     :     0.027401
      dyz     :     0.022173
      dx2y2   :     0.018516
      dxy     :     0.011210

 10 O s       :     3.883361  s :     3.883361
      pz      :     1.177148  p :     4.317881
      px      :     1.725495
      py      :     1.415238
      dz2     :     0.008244  d :     0.023073
      dxz     :     0.005319
      dyz     :     0.006187
      dx2y2   :     0.001358
      dxy     :     0.001966

 11 O s       :     3.883857  s :     3.883857
      pz      :     1.387528  p :     4.323612
      px      :     1.632725
      py      :     1.303359
      dz2     :     0.004478  d :     0.023028
      dxz     :     0.005755
      dyz     :     0.005680
      dx2y2   :     0.003355
      dxy     :     0.003760

 12 N s       :     3.314215  s :     3.314215
      pz      :     1.148631  p :     3.319893
      px      :     1.044333
      py      :     1.126928
      dz2     :     0.006497  d :     0.112437
      dxz     :     0.025967
      dyz     :     0.011005
      dx2y2   :     0.033537
      dxy     :     0.035431

 13 O s       :     3.871124  s :     3.871124
      pz      :     1.499334  p :     4.389886
      px      :     1.493152
      py      :     1.397400
      dz2     :     0.002806  d :     0.021961
      dxz     :     0.002704
      dyz     :     0.004089
      dx2y2   :     0.004163
      dxy     :     0.008201

 14 O s       :     3.880851  s :     3.880851
      pz      :     1.430830  p :     4.308365
      px      :     1.083325
      py      :     1.794210
      dz2     :     0.002913  d :     0.023149
      dxz     :     0.007017
      dyz     :     0.000207
      dx2y2   :     0.008555
      dxy     :     0.004457

 15 O s       :     3.680767  s :     3.680767
      pz      :     1.723308  p :     4.511980
      px      :     1.538831
      py      :     1.249841
      dz2     :     0.001841  d :     0.013923
      dxz     :     0.002612
      dyz     :     0.001130
      dx2y2   :     0.002025
      dxy     :     0.006315

 16 H s       :     0.897329  s :     0.897329
      pz      :     0.003189  p :     0.023710
      px      :     0.017825
      py      :     0.002696

 17 H s       :     0.905647  s :     0.905647
      pz      :     0.004633  p :     0.023462
      px      :     0.004118
      py      :     0.014710

 18 H s       :     0.685254  s :     0.685254
      pz      :     0.018757  p :     0.072153
      px      :     0.019417
      py      :     0.033979



                     *******************************
                     * LOEWDIN POPULATION ANALYSIS *
                     *******************************

----------------------
LOEWDIN ATOMIC CHARGES
----------------------
   0 C :   -0.030472
   1 C :    0.108521
   2 C :   -0.059557
   3 C :    0.046946
   4 C :   -0.034608
   5 C :    0.050699
   6 N :    0.301634
   7 O :   -0.206720
   8 O :   -0.207687
   9 N :    0.300564
  10 O :   -0.188537
  11 O :   -0.193342
  12 N :    0.314293
  13 O :   -0.210195
  14 O :   -0.179918
  15 O :   -0.043127
  16 H :    0.070299
  17 H :    0.071106
  18 H :    0.090103

-------------------------------
LOEWDIN REDUCED ORBITAL CHARGES
-------------------------------
  0 C s       :     2.851635  s :     2.851635
      pz      :     1.063284  p :     3.063527
      px      :     0.924356
      py      :     1.075888
      dz2     :     0.011409  d :     0.115310
      dxz     :     0.013863
      dyz     :     0.013483
      dx2y2   :     0.045157
      dxy     :     0.031398

  1 C s       :     2.838544  s :     2.838544
      pz      :     0.918577  p :     2.882553
      px      :     1.003287
      py      :     0.960689
      dz2     :     0.015429  d :     0.170382
      dxz     :     0.027617
      dyz     :     0.025776
      dx2y2   :     0.052799
      dxy     :     0.048761

  2 C s       :     2.855439  s :     2.855439
      pz      :     1.087335  p :     3.091256
      px      :     1.054797
      py      :     0.949124
      dz2     :     0.009388  d :     0.112862
      dxz     :     0.014704
      dyz     :     0.014528
      dx2y2   :     0.039185
      dxy     :     0.035057

  3 C s       :     2.870239  s :     2.870239
      pz      :     0.901122  p :     2.999092
      px      :     1.070778
      py      :     1.027191
      dz2     :     0.008388  d :     0.083723
      dxz     :     0.007886
      dyz     :     0.015996
      dx2y2   :     0.024755
      dxy     :     0.026698

  4 C s       :     2.855753  s :     2.855753
      pz      :     1.065845  p :     3.062495
      px      :     1.014363
      py      :     0.982287
      dz2     :     0.010892  d :     0.116360
      dxz     :     0.015144
      dyz     :     0.012230
      dx2y2   :     0.032125
      dxy     :     0.045970

  5 C s       :     2.865236  s :     2.865236
      pz      :     0.910970  p :     2.997277
      px      :     1.044708
      py      :     1.041599
      dz2     :     0.006691  d :     0.086788
      dxz     :     0.016881
      dyz     :     0.008285
      dx2y2   :     0.027237
      dxy     :     0.027694

  6 N s       :     3.060309  s :     3.060309
      pz      :     1.112066  p :     3.406836
      px      :     1.144673
      py      :     1.150097
      dz2     :     0.020060  d :     0.231220
      dxz     :     0.040170
      dyz     :     0.025146
      dx2y2   :     0.063788
      dxy     :     0.082057

  7 O s       :     3.632758  s :     3.632758
      pz      :     1.460818  p :     4.531832
      px      :     1.290627
      py      :     1.780386
      dz2     :     0.006016  d :     0.042130
      dxz     :     0.010291
      dyz     :     0.000465
      dx2y2   :     0.017705
      dxy     :     0.007654

  8 O s       :     3.632874  s :     3.632874
      pz      :     1.407909  p :     4.532708
      px      :     1.745541
      py      :     1.379258
      dz2     :     0.005463  d :     0.042105
      dxz     :     0.002982
      dyz     :     0.011776
      dx2y2   :     0.010532
      dxy     :     0.011352

  9 N s       :     3.055294  s :     3.055294
      pz      :     1.128393  p :     3.408919
      px      :     1.162365
      py      :     1.118161
      dz2     :     0.069915  d :     0.235223
      dxz     :     0.058398
      dyz     :     0.047904
      dx2y2   :     0.035558
      dxy     :     0.023447

 10 O s       :     3.637765  s :     3.637765
      pz      :     1.314471  p :     4.508346
      px      :     1.747943
      py      :     1.445932
      dz2     :     0.015033  d :     0.042425
      dxz     :     0.011058
      dyz     :     0.011246
      dx2y2   :     0.002001
      dxy     :     0.003088

 11 O s       :     3.637978  s :     3.637978
      pz      :     1.473282  p :     4.513006
      px      :     1.676644
      py      :     1.363080
      dz2     :     0.006789  d :     0.042358
      dxz     :     0.011719
      dyz     :     0.011801
      dx2y2   :     0.004533
      dxy     :     0.007516

 12 N s       :     3.059261  s :     3.059261
      pz      :     1.110396  p :     3.395738
      px      :     1.130312
      py      :     1.155029
      dz2     :     0.014610  d :     0.230708
      dxz     :     0.045093
      dyz     :     0.019577
      dx2y2   :     0.073922
      dxy     :     0.077506

 13 O s       :     3.613686  s :     3.613686
      pz      :     1.507113  p :     4.555648
      px      :     1.552372
      py      :     1.496163
      dz2     :     0.005988  d :     0.040861
      dxz     :     0.004167
      dyz     :     0.005789
      dx2y2   :     0.006876
      dxy     :     0.018042

 14 O s       :     3.633078  s :     3.633078
      pz      :     1.445439  p :     4.504381
      px      :     1.264131
      py      :     1.794811
      dz2     :     0.006179  d :     0.042459
      dxz     :     0.010051
      dyz     :     0.000261
      dx2y2   :     0.019058
      dxy     :     0.006909

 15 O s       :     3.417563  s :     3.417563
      pz      :     1.704282  p :     4.600817
      px      :     1.591640
      py      :     1.304895
      dz2     :     0.003029  d :     0.024748
      dxz     :     0.003141
      dyz     :     0.002593
      dx2y2   :     0.003751
      dxy     :     0.012233

 16 H s       :     0.853846  s :     0.853846
      pz      :     0.011950  p :     0.075855
      px      :     0.051627
      py      :     0.012278

 17 H s       :     0.856120  s :     0.856120
      pz      :     0.015562  p :     0.072774
      px      :     0.015078
      py      :     0.042134

 18 H s       :     0.707165  s :     0.707165
      pz      :     0.051258  p :     0.202732
      px      :     0.064087
      py      :     0.087387



                      *****************************
                      * MAYER POPULATION ANALYSIS *
                      *****************************

  NA   - Mulliken gross atomic population
  ZA   - Total nuclear charge
  QA   - Mulliken gross atomic charge
  VA   - Mayer's total valence
  BVA  - Mayer's bonded valence
  FA   - Mayer's free valence

  ATOM       NA         ZA         QA         VA         BVA        FA
  0 C      6.0279     6.0000    -0.0279     3.8996     3.8996     0.0000
  1 C      5.7615     6.0000     0.2385     4.1030     4.1030    -0.0000
  2 C      5.9320     6.0000     0.0680     3.6630     3.6630    -0.0000
  3 C      5.9750     6.0000     0.0250     3.8331     3.8331    -0.0000
  4 C      5.8820     6.0000     0.1180     3.7239     3.7239    -0.0000
  5 C      5.9024     6.0000     0.0976     3.8834     3.8834    -0.0000
  6 N      6.7686     7.0000     0.2314     3.9385     3.9385    -0.0000
  7 O      8.2379     8.0000    -0.2379     1.9279     1.9279    -0.0000
  8 O      8.2385     8.0000    -0.2385     1.9280     1.9280     0.0000
  9 N      6.7633     7.0000     0.2367     3.8951     3.8951     0.0000
 10 O      8.2243     8.0000    -0.2243     1.9169     1.9169    -0.0000
 11 O      8.2305     8.0000    -0.2305     1.9099     1.9099    -0.0000
 12 N      6.7465     7.0000     0.2535     3.9166     3.9166    -0.0000
 13 O      8.2830     8.0000    -0.2830     1.8871     1.8871     0.0000
 14 O      8.2124     8.0000    -0.2124     1.9647     1.9647    -0.0000
 15 O      8.2067     8.0000    -0.2067     2.3074     2.3074     0.0000
 16 H      0.9210     1.0000     0.0790     1.0350     1.0350    -0.0000
 17 H      0.9291     1.0000     0.0709     1.0145     1.0145    -0.0000
 18 H      0.7574     1.0000     0.2426     1.0234     1.0234    -0.0000

  Mayer bond orders larger than 0.100000
B(  0-C ,  1-C ) :   1.3516 B(  0-C ,  5-C ) :   1.4336 B(  0-C ,  9-N ) :   0.8079 
B(  1-C ,  2-C ) :   1.2241 B(  1-C , 15-O ) :   1.3922 B(  2-C ,  3-C ) :   1.3494 
B(  2-C , 12-N ) :   0.8496 B(  3-C ,  4-C ) :   1.3571 B(  3-C , 16-H ) :   0.9846 
B(  4-C ,  5-C ) :   1.3206 B(  4-C ,  6-N ) :   0.8335 B(  5-C , 17-H ) :   0.9910 
B(  6-N ,  7-O ) :   1.5388 B(  6-N ,  8-O ) :   1.5392 B(  7-O ,  8-O ) :   0.2766 
B(  9-N , 10-O ) :   1.5327 B(  9-N , 11-O ) :   1.5261 B( 10-O , 11-O ) :   0.3085 
B( 12-N , 13-O ) :   1.4403 B( 12-N , 14-O ) :   1.5781 B( 13-O , 14-O ) :   0.2622 
B( 15-O , 18-H ) :   0.8755 

-------
TIMINGS
-------

Total SCF time: 0 days 0 hours 0 min 14 sec 

Total time                  ....      14.471 sec
Sum of individual times     ....      13.771 sec  ( 95.2%)

SCF preparation             ....       3.299 sec  ( 22.8%)
Fock matrix formation       ....       9.379 sec  ( 64.8%)
  Startup                   ....       0.047 sec  (  0.5% of F)
  Split-RI-J                ....       1.504 sec  ( 16.0% of F)
  Chain of spheres X        ....       2.538 sec  ( 27.1% of F)
  XC integration            ....       4.302 sec  ( 45.9% of F)
    XC Preparation          ....       0.000 sec  (  0.0% of XC)
    Basis function eval.    ....       0.055 sec  (  1.3% of XC)
    Density eval.           ....       0.142 sec  (  3.3% of XC)
    XC-Functional eval.     ....       0.032 sec  (  0.7% of XC)
    XC-Potential eval.      ....       0.116 sec  (  2.7% of XC)
Diagonalization             ....       0.000 sec  (  0.0%)
Density matrix formation    ....       0.180 sec  (  1.2%)
Total Energy calculation    ....       0.134 sec  (  0.9%)
Population analysis         ....       0.100 sec  (  0.7%)
Orbital Transformation      ....       0.110 sec  (  0.8%)
Orbital Orthonormalization  ....       0.000 sec  (  0.0%)
DIIS solution               ....       0.323 sec  (  2.2%)
SOSCF solution              ....       0.247 sec  (  1.7%)
Finished LeanSCF after  14.7 sec

Maximum memory used throughout the entire LEANSCF-calculation: 19.2 MB


           ************************************************************
           *        Program running with 64 parallel MPI-processes    *
           *              working on a common directory               *
           ************************************************************

------------------------------------------------------------------------------
                         ORCA PROPERTY INTEGRAL CALCULATIONS
------------------------------------------------------------------------------

GBWName                                   ... /lustre/project/xlzhang/jingyi/chemsmart/test_pka/orca/pka_scale_frag1_pka_HA_opt.gbw
Number of atoms                           ...     19
Number of basis functions                 ...    239
Max core memory                           ...   2109 MB

Dipole integrals                          ... YES
Quadrupole integrals                      ...  NO
Linear momentum integrals                 ...  NO
Angular momentum integrals                ...  NO
Higher moments length integrals           ...  NO
Higher moments velocity integrals         ...  NO
Kinetic energy integrals                  ...  NO
GIAO right hand sides                     ...  NO
GIAO dipole derivative integrals          ...  NO
SOC integrals                             ...  NO
EPR diamagnetic integrals (GIAO)          ...  NO
EPR gauge integrals                       ...  NO
Field gradient integrals                  ...  NO (   0 nuclei)
Spin-dipole/Fermi contact integrals       ...  NO (   0 nuclei)
Contact density integrals                 ...  NO (   0 nuclei)
Nucleus-orbit integrals                   ...  NO (   0 nuclei)
Geometric perturbations                   ...  NO (  19 nuclei)

Choice of electric origin   ... Center of mass
Position of electric origin ... (  0.0642,  0.0296,  0.0180) 
Choice of magnetic origin   ... GIAO
Position of magnetic origin ... (  0.0000,  0.0000,  0.0000) 

Calculating integrals                     ... Electric Dipole (Length)     done (  0.0 sec)

Property integrals calculated in   0.0 sec

Maximum memory used throughout the entire PROPINT-calculation: 12.5 MB

-------------------------   --------------------
FINAL SINGLE POINT ENERGY      -919.893462991120
-------------------------   --------------------



           ************************************************************
           *        Program running with 64 parallel MPI-processes    *
           *              working on a common directory               *
           ************************************************************
------------------------------------------------------------------------------
                         ORCA SCF GRADIENT CALCULATION
------------------------------------------------------------------------------

Nuc. rep. gradient        (SHARK) ... done (  0.0 sec)
HCore & Overlap gradient  (SHARK) ... done (  0.1 sec)
Split-RIJ-J gradient      (SHARK) ... done (  2.4 sec)
done (  1.3 sec)
XC gradient                       ... done (  0.3 sec)

------------------
CARTESIAN GRADIENT
------------------

   1   C   :    0.022688915   -0.015142522   -0.002286325
   2   C   :   -0.033875165    0.045656960    0.010500832
   3   C   :    0.016597435   -0.015138290   -0.003062926
   4   C   :   -0.006317080   -0.003510740   -0.001734645
   5   C   :   -0.000579685    0.016559951    0.004886290
   6   C   :   -0.007303944    0.012385885    0.004856764
   7   N   :    0.027467136   -0.030817121   -0.007206661
   8   O   :   -0.047675092   -0.004884043   -0.008903346
   9   O   :    0.015892596    0.042636845    0.017822841
  10   N   :   -0.053064663   -0.011245301   -0.013115743
  11   O   :    0.018478956   -0.015114115    0.046440494
  12   O   :    0.024913177    0.027451317   -0.034159677
  13   N   :    0.028715247    0.018348135    0.010158317
  14   O   :    0.026595336   -0.022782173   -0.004118867
  15   O   :   -0.057137690   -0.001988743   -0.008460759
  16   O   :    0.019057965   -0.032590693   -0.009755953
  17   H   :   -0.000948896    0.000627483    0.000162419
  18   H   :    0.001565089   -0.001389925   -0.000056555
  19   H   :    0.004930363   -0.009062911   -0.001966503

Difference to translation invariance:
           :    0.0000000001   -0.0000000000   -0.0000000001

Difference to rotation invariance:
           :    0.0000010103   -0.0005731037    0.0001252292

Norm of the Cartesian gradient     ...    0.1660619556
RMS gradient                       ...    0.0219954433
MAX gradient                       ...    0.0571376901

-------
TIMINGS
-------

Total SCF gradient time     ....        4.083 sec

Densities                   ....       0.014 sec  (  0.3%)
One electron gradient       ....       0.060 sec  (  1.5%)
RI-J Coulomb gradient       ....       2.423 sec  ( 59.3%)
COSX gradient               ....       1.262 sec  ( 30.9%)
XC gradient                 ....       0.255 sec  (  6.2%)

Maximum memory used throughout the entire SCFGRAD-calculation: 24.1 MB
------------------------------------------------------------------------------
                         ORCA GEOMETRY RELAXATION STEP
------------------------------------------------------------------------------

Reading the OPT-File                    .... done
Getting information on internals        .... done
Copying old internal coords+grads       .... done
Making the new internal coordinates     .... (2022 redundants) done
Validating the new internal coordinates .... (2022 redundants) done
Calculating the B-matrix                .... done
Calculating the G,G- and P matrices     .... done
Transforming gradient to internals      .... done
Projecting the internal gradient        .... done
Number of atoms                         ....  19
Number of internal coordinates          ....  87
Current Energy                          ....  -919.893462991 Eh
Current gradient norm                   ....     0.166061956 Eh/bohr
Maximum allowed component of the step   ....  0.300
Current trust radius                    ....  0.300
Evaluating the initial hessian          ....  (Almloef) done
Projecting the Hessian                  .... done
Forming the augmented Hessian           .... done
Diagonalizing the augmented Hessian     .... done
Last element of RFO vector              ....  0.974290284
Lowest eigenvalues of augmented Hessian:
 -0.024543808  0.013682743  0.013684973  0.014984921  0.014989550
Length of the computed step             ....  0.231241497
The final length of the internal step   ....  0.231241497
Converting the step to Cartesian space:
 Initial RMS(Int)=    0.0247916908
Transforming coordinates:
 Iter   0:  RMS(Cart)=    0.0468523426 RMS(Int)=    0.9526446865
 Iter   5:  RMS(Cart)=    0.0000000422 RMS(Int)=    0.0000000332
done
Storing new coordinates                 .... done

                                .--------------------.
          ----------------------|Geometry convergence|-------------------------
          Item                value                   Tolerance       Converged
          ---------------------------------------------------------------------
          RMS gradient        0.0145958336            0.0001000000      NO
          MAX gradient        0.0577816915            0.0003000000      NO
          RMS step            0.0247916908            0.0020000000      NO
          MAX step            0.0909619116            0.0040000000      NO
          -------------------------------------------------------------------------
          ........................................................
          Max(Bonds)      0.0398      Max(Angles)    2.31
          Max(Dihed)        5.21      Max(Improp)    0.00
          ---------------------------------------------------------------------

The optimization has not yet converged - more geometry cycles are needed


    ---------------------------------------------------------------------------
                         Redundant Internal Coordinates
                            (Angstroem and degrees)

        Definition                    Value    dE/dq     Step     New-Value
    ----------------------------------------------------------------------------
     1. B(C   1,C   0)                1.4002  0.001590 -0.0012    1.3990   
     2. B(C   2,C   1)                1.4047 -0.007396  0.0054    1.4101   
     3. B(C   3,C   2)                1.4097  0.018865 -0.0163    1.3935   
     4. B(C   4,C   3)                1.4041  0.019816 -0.0171    1.3870   
     5. B(C   5,C   4)                1.3976  0.003985 -0.0037    1.3939   
     6. B(C   5,C   0)                1.4001  0.018056 -0.0155    1.3846   
     7. B(N   6,C   4)                1.4703  0.008263 -0.0099    1.4604   
     8. B(O   7,N   6)                1.2370  0.048664 -0.0285    1.2085   
     9. B(O   8,N   6)                1.2372  0.048770 -0.0286    1.2086   
    10. B(N   9,C   0)                1.4470 -0.009422  0.0104    1.4574   
[...]
      9      -0.003004   0.086575   0.001080
     10      -0.000265   0.011776  -0.000027
     11      -0.000405   0.013654   0.000135
     12       0.003870  -0.002170   0.001307
     13       0.001458  -0.003415   0.000008
     14       0.000936  -0.001316   0.000145
     15      -0.031216  -0.001513  -0.001556
     16      -0.078397  -0.003300   0.001017
     17      -0.026588  -0.001122   0.000128
     18      -0.000715   0.000820  -0.000421
     19      -0.000764   0.000398   0.000477
     20      -0.000329   0.000223   0.000092
     21      -0.000024  -0.000029   0.000251
     22       0.000119  -0.000620  -0.000074
     23       0.000035  -0.000182   0.000011
     24       0.000630  -0.000050   0.000055
     25      -0.000070   0.000050  -0.000145
     26       0.000072   0.000012  -0.000038
     27      -0.000061   0.000204   0.000411
     28      -0.000938  -0.000008   0.000859
     29      -0.000106   0.000041   0.000028
     30       0.000057  -0.000069  -0.000122
     31       0.000067   0.000019  -0.000341
     32       0.000067  -0.000007  -0.000117
     33      -0.000433  -0.000082  -0.000167
     34       0.000354  -0.000019  -0.000355
     35      -0.000029  -0.000010   0.000023
     36      -0.000125   0.001094   0.003723
     37      -0.000222  -0.000148  -0.008329
     38      -0.000086   0.000081  -0.002367
     39      -0.000020  -0.000011  -0.003951
     40       0.000085  -0.000113   0.005164
     41       0.000027  -0.000041   0.001306
     42       0.000051  -0.000303  -0.002307
     43       0.000032   0.000672   0.001521
     44       0.000018   0.000175   0.000285
     45       0.000169  -0.000278   0.030787
     46       0.000141  -0.000472   0.049040
     47       0.000074  -0.000192   0.020543
     48       0.037928  -0.975009  -0.007312
     49       0.005636  -0.128900  -0.004142
     50       0.006105  -0.152755  -0.002049
     51       0.353462   0.013047  -0.000572
     52       0.882034   0.034110  -0.002564
     53       0.296116   0.011359  -0.000714
     54      -0.001247   0.003600  -0.421984
     55      -0.002837   0.007121  -0.838638
     56      -0.001099   0.002882  -0.338385


-----------
IR SPECTRUM
-----------

 Mode   freq       eps      Int      T**2         TX        TY        TZ
       cm**-1   L/(mol*cm) km/mol    a.u.
----------------------------------------------------------------------------
  6:     56.19   0.000049    0.25  0.000274  ( 0.008978  0.009717  0.009929)
  7:     60.70   0.000150    0.76  0.000774  (-0.007955 -0.014083  0.022628)
  8:     67.94   0.000002    0.01  0.000011  ( 0.000209  0.000703  0.003247)
  9:     97.04   0.000674    3.40  0.002166  ( 0.008503  0.013461 -0.043732)
 10:    128.81   0.001359    6.87  0.003293  (-0.004204 -0.008753  0.056558)
 11:    159.84   0.000554    2.80  0.001081  (-0.020371 -0.024198 -0.008968)
 12:    191.67   0.000906    4.58  0.001475  (-0.034277  0.017153  0.002477)
 13:    205.76   0.000054    0.27  0.000082  (-0.004834 -0.005364  0.005445)
 14:    325.10   0.000072    0.36  0.000069  ( 0.004785 -0.003853  0.005590)
 15:    333.25   0.000783    3.96  0.000733  ( 0.026653 -0.004795  0.000321)
 16:    351.05   0.000121    0.61  0.000107  (-0.010020  0.002304 -0.001226)
 17:    357.69   0.000274    1.38  0.000239  ( 0.013137 -0.008038 -0.001365)
 18:    381.55   0.001638    8.28  0.001340  (-0.035838  0.007298 -0.001480)
 19:    412.30   0.000403    2.04  0.000305  (-0.015273  0.008446  0.000452)
 20:    460.82   0.000485    2.45  0.000328  ( 0.011867 -0.013507 -0.002209)
 21:    523.49   0.000148    0.75  0.000088  ( 0.005052 -0.003278  0.007206)
 22:    555.22   0.001155    5.84  0.000649  ( 0.002362  0.000787 -0.025357)
 23:    565.74   0.000494    2.49  0.000272  ( 0.010501  0.012604 -0.001761)
 24:    669.87   0.002481   12.54  0.001156  ( 0.029332 -0.007530 -0.015451)
 25:    726.75   0.000652    3.30  0.000280  (-0.000932  0.010317  0.013144)
 26:    749.91   0.011708   59.17  0.004872  ( 0.050534 -0.047581 -0.007373)
 27:    764.50   0.005402   27.30  0.002205  ( 0.003213  0.010190 -0.045725)
 28:    770.64   0.011486   58.05  0.004651  (-0.049342 -0.045103 -0.013496)
 29:    782.49   0.002638   13.33  0.001052  (-0.007130  0.012727 -0.028972)
 30:    810.45   0.017484   88.36  0.006732  (-0.008953 -0.024433  0.077815)
 31:    816.55   0.004979   25.16  0.001903  (-0.000181 -0.017285  0.040050)
 32:    862.34   0.000207    1.05  0.000075  ( 0.005820 -0.006348 -0.000877)
 33:    891.09   0.000282    1.42  0.000099  (-0.002201  0.008663  0.004331)
 34:    977.95   0.018163   91.79  0.005796  ( 0.071445  0.022013  0.014380)
 35:    980.91   0.002972   15.02  0.000946  (-0.006093 -0.004999  0.029723)
 36:    993.14   0.005847   29.55  0.001837  (-0.022822  0.034986  0.009615)
 37:    995.02   0.000357    1.80  0.000112  ( 0.002217  0.009656  0.003703)
 38:   1096.65   0.020027  101.21  0.005699  ( 0.039568 -0.063571 -0.009597)
 39:   1164.20   0.007150   36.13  0.001917  ( 0.009026  0.039183  0.017315)
 40:   1242.04   0.002848   14.39  0.000716  ( 0.025928 -0.006556 -0.000593)
 41:   1310.48   0.029173  147.43  0.006947  (-0.074350  0.037228  0.005744)
 42:   1375.50   0.003590   18.14  0.000814  ( 0.023917  0.015071  0.003915)
 43:   1410.19   0.022685  114.64  0.005020  (-0.000758 -0.067444 -0.021697)
 44:   1476.05   0.010251   51.80  0.002167  ( 0.018930  0.039757  0.015109)
 45:   1500.27   0.009392   47.46  0.001954  (-0.043224 -0.002357 -0.008927)
 46:   1505.82   0.090497  457.33  0.018754  (-0.115999  0.071695  0.012588)
 47:   1511.94   0.054555  275.70  0.011260  (-0.065254 -0.078452 -0.029110)
 48:   1580.98   0.026016  131.48  0.005135  ( 0.025390 -0.062625 -0.023848)
 49:   1678.96   0.006187   31.27  0.001150  ( 0.033650 -0.003560  0.002234)
 50:   1700.73   0.006996   35.36  0.001284  (-0.002269 -0.027545 -0.022800)
 51:   1787.07   0.017595   88.92  0.003073  ( 0.035814  0.033041 -0.026422)
 52:   1804.88   0.081120  409.95  0.014026  (-0.105822 -0.046417 -0.025937)
 53:   1811.54   0.090353  456.60  0.015565  (-0.056801  0.110550 -0.010808)
 54:   3265.75   0.008197   41.43  0.000783  ( 0.010060  0.024813  0.008148)
 55:   3273.29   0.008148   41.18  0.000777  (-0.027567 -0.001671 -0.003754)
 56:   3419.55   0.107316  542.33  0.009794  (-0.039422 -0.085078 -0.031641)

* The epsilon (eps) is given for a Dirac delta lineshape.
** The dipole moment derivative (T) already includes vibrational overlap.

The first frequency considered to be a vibration is 6
The total number of vibrations considered is 51


--------------------------
THERMOCHEMISTRY AT 298.15K
--------------------------

Temperature         ...   298.15 K
Pressure            ...     1.00 atm
Total Mass          ...   229.10 AMU
Quasi RRHO          ...     True
Cut-Off Frequency   ...     1.00 cm^-1

Throughout the following assumptions are being made:
  (1) The electronic state is orbitally nondegenerate
  (2) There are no thermally accessible electronically excited states
  (3) Hindered rotations indicated by low frequency modes are not
      treated as such but are treated as vibrations and this may
      cause some error
  (4) All equations used are the standard statistical mechanics
      equations for an ideal gas
  (5) All vibrations are strictly harmonic

freq.      56.19  E(vib)   ...       0.52 
freq.      60.70  E(vib)   ...       0.51 
freq.      67.94  E(vib)   ...       0.50 
freq.      97.04  E(vib)   ...       0.46 
freq.     128.81  E(vib)   ...       0.43 
freq.     159.84  E(vib)   ...       0.39 
freq.     191.67  E(vib)   ...       0.36 
freq.     205.76  E(vib)   ...       0.35 
freq.     325.10  E(vib)   ...       0.24 
freq.     333.25  E(vib)   ...       0.24 
freq.     351.05  E(vib)   ...       0.23 
freq.     357.69  E(vib)   ...       0.22 
freq.     381.55  E(vib)   ...       0.21 
freq.     412.30  E(vib)   ...       0.19 
freq.     460.82  E(vib)   ...       0.16 
freq.     523.49  E(vib)   ...       0.13 
freq.     555.22  E(vib)   ...       0.12 
freq.     565.74  E(vib)   ...       0.11 
freq.     669.87  E(vib)   ...       0.08 
freq.     726.75  E(vib)   ...       0.06 
freq.     749.91  E(vib)   ...       0.06 
freq.     764.50  E(vib)   ...       0.06 
freq.     770.64  E(vib)   ...       0.05 
freq.     782.49  E(vib)   ...       0.05 
freq.     810.45  E(vib)   ...       0.05 
freq.     816.55  E(vib)   ...       0.05 
freq.     862.34  E(vib)   ...       0.04 
freq.     891.09  E(vib)   ...       0.04 
freq.     977.95  E(vib)   ...       0.03 
freq.     980.91  E(vib)   ...       0.02 
freq.     993.14  E(vib)   ...       0.02 
freq.     995.02  E(vib)   ...       0.02 
freq.    1096.65  E(vib)   ...       0.02 
freq.    1164.20  E(vib)   ...       0.01 
freq.    1242.04  E(vib)   ...       0.01 
freq.    1310.48  E(vib)   ...       0.01 
freq.    1375.50  E(vib)   ...       0.01 
freq.    1410.19  E(vib)   ...       0.00 
freq.    1476.05  E(vib)   ...       0.00 
freq.    1500.27  E(vib)   ...       0.00 
freq.    1505.82  E(vib)   ...       0.00 
freq.    1511.94  E(vib)   ...       0.00 
freq.    1580.98  E(vib)   ...       0.00 
freq.    1678.96  E(vib)   ...       0.00 
freq.    1700.73  E(vib)   ...       0.00 
freq.    1787.07  E(vib)   ...       0.00 
freq.    1804.88  E(vib)   ...       0.00 
freq.    1811.54  E(vib)   ...       0.00 
freq.    3265.75  E(vib)   ...       0.00 
freq.    3273.29  E(vib)   ...       0.00 
freq.    3419.55  E(vib)   ...       0.00 

------------
INNER ENERGY
------------

The inner energy is: U= E(el) + E(ZPE) + E(vib) + E(rot) + E(trans)
    E(el)   - is the total energy from the electronic structure calculation
              = E(kin-el) + E(nuc-el) + E(el-el) + E(nuc-nuc)
    E(ZPE)  - the the zero temperature vibrational energy from the frequency calculation
    E(vib)  - the the finite temperature correction to E(ZPE) due to population
              of excited vibrational states
    E(rot)  - is the rotational thermal energy
    E(trans)- is the translational thermal energy

Summary of contributions to the inner energy U:
Electronic energy                ...   -919.91307429 Eh
Zero point energy                ...      0.11605371 Eh      72.82 kcal/mol
Thermal vibrational correction   ...      0.00966384 Eh       6.06 kcal/mol
Thermal rotational correction    ...      0.00141627 Eh       0.89 kcal/mol
Thermal translational correction ...      0.00141627 Eh       0.89 kcal/mol
-----------------------------------------------------------------------
Total thermal energy                   -919.78452420 Eh


Summary of corrections to the electronic energy:
(perhaps to be used in another calculation)
Total thermal correction                  0.01249638 Eh       7.84 kcal/mol
Non-thermal (ZPE) correction              0.11605371 Eh      72.82 kcal/mol
-----------------------------------------------------------------------
Total correction                          0.12855009 Eh      80.67 kcal/mol


--------
ENTHALPY
--------

The enthalpy is H = U + kB*T
                kB is Boltzmann's constant
Total thermal energy              ...   -919.78452420 Eh 
Thermal Enthalpy correction       ...      0.00094421 Eh       0.59 kcal/mol
-----------------------------------------------------------------------
Total Enthalpy                    ...   -919.78357999 Eh


Note: Only C1 symmetry has been detected, increase convergence thresholds 
      if your molecule has a higher symmetry. Symmetry factor of 1.0 is   
      used for the rotational entropy correction. 
 

Note: Rotational entropy computed according to Herzberg 
Infrared and Raman Spectra, Chapter V,1, Van Nostrand Reinhold, 1945 
Point Group:  C1, Symmetry Number:   1  
Rotational constants in cm-1:     0.018938     0.017557     0.009204 

Vibrational entropy computed according to the QRRHO of S. Grimme
Chem.Eur.J. 2012 18 9955 using a reference frequency of 100.0 cm-1


-------
ENTROPY
-------

The entropy contributions are T*S = T*(S(el)+S(vib)+S(rot)+S(trans))
     S(el)   - electronic entropy
     S(vib)  - vibrational entropy
     S(rot)  - rotational entropy
     S(trans)- translational entropy
The entropies will be listed as multiplied by the temperature to get
units of energy

Electronic entropy                ...      0.00000000 Eh      0.00 kcal/mol
Vibrational entropy               ...      0.01684305 Eh     10.57 kcal/mol
Rotational entropy                ...      0.01550498 Eh      9.73 kcal/mol
Translational entropy             ...      0.02004534 Eh     12.58 kcal/mol
-----------------------------------------------------------------------
Final entropy term                ...      0.05239337 Eh     32.88 kcal/mol

In case the symmetry of your molecule has not been determined correctly
or in case you have a reason to use a different symmetry number we print 
out the resulting rotational entropy values for sn=1,12:

 non-linear molecules -----------------------------------
|  sn= 1 | S(rot)=       0.01550498 Eh      9.73 kcal/mol|
|  sn= 2 | S(rot)=       0.01485052 Eh      9.32 kcal/mol|
|  sn= 3 | S(rot)=       0.01446769 Eh      9.08 kcal/mol|
|  sn= 4 | S(rot)=       0.01419607 Eh      8.91 kcal/mol|
|  sn= 5 | S(rot)=       0.01398538 Eh      8.78 kcal/mol|
|  sn= 6 | S(rot)=       0.01381323 Eh      8.67 kcal/mol|
|  sn= 7 | S(rot)=       0.01366769 Eh      8.58 kcal/mol|
|  sn= 8 | S(rot)=       0.01354161 Eh      8.50 kcal/mol|
|  sn= 9 | S(rot)=       0.01343040 Eh      8.43 kcal/mol|
|  sn=10 | S(rot)=       0.01333092 Eh      8.37 kcal/mol|
|  sn=11 | S(rot)=       0.01324093 Eh      8.31 kcal/mol|
|  sn=12 | S(rot)=       0.01315878 Eh      8.26 kcal/mol|
 linear molecules ---------------------------------------
|  Dinfh | S(rot)=       0.00975227 Eh      6.12 kcal/mol|
|  Cinfv | S(rot)=       0.01040673 Eh      6.53 kcal/mol|
 --------------------------------------------------------


-------------------
GIBBS FREE ENERGY
-------------------

The Gibbs free energy is G = H - T*S

Total enthalpy                    ...   -919.78357999 Eh 
Total entropy correction          ...     -0.05239337 Eh    -32.88 kcal/mol
-----------------------------------------------------------------------
Final Gibbs free energy         ...   -919.83597336 Eh

For completeness - the Gibbs free energy minus the electronic energy
G-E(el)                           ...      0.07710092 Eh     48.38 kcal/mol


Maximum memory used throughout the entire PROP-calculation: 75.8 MB

--------------------------------
SUGGESTED CITATIONS FOR THIS RUN
--------------------------------

Below you find a list of papers that are relevant to this ORCA run
We neither can nor want to force you to cite these papers, but we appreciate if you do
You receive ORCA, which is the product of decades of hard work by many enthusiastic individuals, for free
The only thing we kindly ask in return is that you cite our papers,
We deeply appreciate it, if you show your appreciation for ORCA by not just citing the generic ORCA reference.

Please note that relegating all ORCA citations to the supporting information does *not* help us.
SI sections are not indexed - citations you put there will not count into any citation statistics
But we need these citations in order to attract the funding resources that allow us to do what we are doing

Therefore, if you are a happy ORCA user, please consider citing a few of the papers listed below in the main body of your paper

In addition to the list printed below, the program has created the file /lustre/project/xlzhang/jingyi/chemsmart/test_pka/orca/pka_scale_frag1_pka_HA_opt.bibtex that contains the list in bibtex format
You can import this file easily into all common literature databanks and citation aid programs


List of essential papers. We consider these as the minimum necessary citations

  1. Neese, F.
     Software update: the ORCA program system, version 6.0
     WIRES Comput. Molec. Sci. 2025 15(1), e70019
     doi.org/10.1002/wcms.7019

List of papers to cite with high priority. The work reported in these papers was absolutely
necessary for this run to complete.
Our perspective: the developers of density functionals and basis sets usually get cited in chemistry papers
Good! But without the algorithms to do something with them, the functionals or basis sets would not do anything.
Hence, in our opinion, the algorithm design and method developments papers are equally worthy of getting cited

  1. Neese, F.
     An improvement of the resolution of the identity approximation for the formation of the Coulomb matrix
     J. Comp. Chem. 2003 24(14), 1740-1747
     doi.org/10.1002/jcc.10318
  2. Neese, F.; Wennmohs, F.; Hansen, A.; Becker, U.
     Efficient, approximate and parallel Hartree-Fock and hybrid DFT calculations. A 'chain-of-spheres' algorithm for the Hartree-Fock exchange
     Chem. Phys. 2009 356(1-3), 98-109
     doi.org/10.1016/j.chemphys.2008.10.036
  3. Bykov, D.; Petrenko, T.; Izsak, R.; Kossmann, S.; Becker, U.; Valeev, E.; Neese, F.
     Efficient implementation of the analytic second derivatives of Hartree-Fock and hybrid DFT energies: a detailed analysis of different approximations
     Molec. Phys. 2015 113 , 1961-1977
     doi.org/10.1080/00268976.2015.1025114
  4. Helmich-Paris, B.; de Souza, B.; Neese, F.; Izsák, R.
     An improved chain of spheres for exchange algorithm
     J. Chem. Phys. 2021 155(10), 104109
     doi.org/10.1063/5.0058766
  5. Neese, F.
     The SHARK Integral Generation and Digestion System
     J. Comp. Chem. 2022 44(3), 381
     doi.org/10.1002/jcc.26942

List of suggested additional citations. These are papers that are important in the 'surrounding' of 
of this run, or papers that preceded the highly important papers. If you like your results we are grateful for a citation.

  1. Izsak, R.; Neese, F.
     An overlap fitted chain of spheres exchange method
     J. Chem. Phys. 2011 135 , 144105
     doi.org/10.1063/1.3646921
  2. Izsak, R.; Hansen, A.; Neese, F.
     The resolution of identity and chain of spheres approximations for the LPNO-CCSD singles Fock term
     Molec. Phys. 2012 110 , 2413-2417
     doi.org/10.1080/00268976.2012.687466
  3. Neese, F.
     The ORCA program system
     WIRES Comput. Molec. Sci. 2012 2(1), 73-78
     doi.org/10.1002/wcms.81
  4. Izsak, R.; Neese, F.; Klopper, W.
     Robust fitting techniques in the chain of spheres approximation to the Fock exchange: The role of the complementary space
     J. Chem. Phys. 2013 139 , 
     doi.org/10.1063/1.4819264
  5. Neese, F.
     Software update: the ORCA program system, version 4.0
     WIRES Comput. Molec. Sci. 2018 8(1), 1-6
     doi.org/10.1002/wcms.1327
  6. Neese, F.; Wennmohs, F.; Becker, U.; Riplinger, C.
     The ORCA quantum chemistry program package
     J. Chem. Phys. 2020 152(22), 224108
     doi.org/10.1063/5.0004608
  7. Neese, F.
     Software update: The ORCA program system—Version 5.0
     WIRES Comput. Molec. Sci. 2022 12(1), e1606
     doi.org/10.1002/wcms.1606

List of optional additional citations

  1. Neese, F.
     Approximate second-order SCF convergence for spin unrestricted wavefunctions
     Chem. Phys. Lett. 2000 325(1-3), 93-98
     doi.org/10.1016/s0009-2614(00)00662-x

Timings for individual modules:

Sum of individual times          ...      477.405 sec (=   7.957 min)
Startup calculation              ...       82.870 sec (=   1.381 min)  17.4 %
SCF iterations                   ...      235.434 sec (=   3.924 min)  49.3 %
Property integrals               ...       56.170 sec (=   0.936 min)  11.8 %
SCF Response                     ...       23.978 sec (=   0.400 min)   5.0 %
Property calculations            ...       14.215 sec (=   0.237 min)   3.0 %
SCF Gradient evaluation          ...       64.244 sec (=   1.071 min)  13.5 %
Geometry relaxation              ...        0.495 sec (=   0.008 min)   0.1 %
                             ****ORCA TERMINATED NORMALLY****
TOTAL RUN TIME: 0 days 0 hours 10 minutes 47 seconds 779 msec
