
                                 *****************
                                 * O   R   C   A *
                                 *****************

                                            #,                                       
                                            ###                                      
                                            ####                                     
                                            #####                                    
                                            ######                                   
                                           ########,                                 
                                     ,,################,,,,,                         
                               ,,#################################,,                 
                          ,,##########################################,,             
                       ,#########################################, ''#####,          
                    ,#############################################,,   '####,        
                  ,##################################################,,,,####,       
                ,###########''''           ''''###############################       
              ,#####''   ,,,,##########,,,,          '''####'''          '####       
            ,##' ,,,,###########################,,,                        '##       
           ' ,,###''''                  '''############,,,                           
         ,,##''                                '''############,,,,        ,,,,,,###''
      ,#''                                            '''#######################'''  
     '                                                          ''''####''''         
             ,#######,   #######,   ,#######,      ##                                
            ,#'     '#,  ##    ##  ,#'     '#,    #''#        ,####,    ,#,          
            ##       ##  ##   ,#'  ##            #'  '#       #'       ,# #          
            ##       ##  #######   ##           ,######,      #####,      #          
            '#,     ,#'  ##    ##  '#,     ,#' ,#      #,     #,   #      #          
             '#######'   ##     ##  '#######'  #'      '#     '####' #    #          



                #########################################################
                #                        -***-                          #
                #          Department of theory and spectroscopy        #
                #                                                       #
                #                      Frank Neese                      #
                #                                                       #
                #     Directorship, Architecture, Infrastructure        #
                #                    SHARK, DRIVERS                     #
                #        Core code/Algorithms in most modules           #
                #                                                       #
                #        Max Planck Institute fuer Kohlenforschung      #
                #                Kaiser Wilhelm Platz 1                 #
                #                 D-45470 Muelheim/Ruhr                 #
                #                      Germany                          #
                #                                                       #
                #                  All rights reserved                  #
                #                        -***-                          #
                #########################################################


                         Program Version 6.1.0  -  RELEASE   -
                                (GIT: $679e74b$)
                          ($2025-06-10 18:02:51 +0200$)


 With contributions from (in alphabetic order):
[Max-Planck-Institut fuer Kohlenforschung]                               
  Daniel Aravena         : Magnetic Suceptibility                        
  Michael Atanasov       : Ab Initio Ligand Field Theory (pilot matlab implementation)
  Alexander A. Auer      : GIAO ZORA, VPT2 properties, NMR spectrum      
  Ute Becker             : All parallelization in ORCA, NUMFREQ, NUMCALC 
  Giovanni Bistoni       : ED, misc. LED, open-shell LED, HFLD           
  Dmytro Bykov           : pre 5.0 version of the SCF Hessian            
  Marcos Casanova-Páez   : Triplet and SCS-CIS(D). UHF-(DLPNO)-IP/EA/STEOM-CCSD. UHF-CVS-IP/STEOM-CCSD   
  Vijay G. Chilkuri      : MRCI spin determinant printing, contributions to CSF-ICE 
  Pauline Colinet        : FMM embedding                                 
  Dipayan Datta          : RHF DLPNO-CCSD density                        
  Achintya Kumar Dutta   : EOM-CC, STEOM-CC                              
  Nicolas Foglia         : Exact transition moments, OPA infrastructure, MCD improvements    
  Dmitry Ganyushin       : Spin-Orbit,Spin-Spin,Magnetic field MRCI      
  Miquel Garcia-Rates    : C-PCM and meta-GGA Hessian, CCSD/C-PCM, Gaussian charge scheme 
  Tiago L. C. Gouveia    : GS-ROHF, GS-ROCIS                             
  Yang Guo               : DLPNO-NEVPT2, F12-NEVPT2, CIM, IAO-localization        
  Andreas Hansen         : Spin unrestricted coupled pair/coupled cluster methods 
  Ingolf Harden          : AUTO-CI MPn and infrastructure                
  Benjamin Helmich-Paris : MC-RPA, TRAH-(SCF,CASSCF), AVAS, COSX integrals, SCF dyn. polar., MC-PDFT, srDFT 
  Lee Huntington         : MR-EOM, pCC                                   
  Robert Izsak           : Overlap fitted RIJCOSX, COSX-SCS-MP3, EOM     
  Riya Kayal             : Wick's Theorem for AUTO-CI, AUTO-CI UHF-CCSDT 
  Emily Kempfer          : AUTO-CI RHF CISDT and CCSDT, approximate NEVPT4
  Christian Kollmar      : KDIIS, OOCD, Brueckner-CCSD(T), CCSD density, CASPT2, CASPT2-K, improved NEVPT2 
  Axel Koslowski         : Symmetry handling                             
  Simone Kossmann        : meta-GGA functionals, TD-DFT gradient, OOMP2, (MP2 Hessian; deprecated post 5.0) 
  Lucas Lang             : DCDCAS, Hyperfine gauge corrections, ICE-SOC+SSC
  Marvin Lechner         : AUTO-CI (C++ implementation), FIC-MRCC        
  Spencer Leger          : CASSCF response                               
  Dagmar Lenk            : GEPOL surface, SMD, ORCA-2-JSON               
  Dimitrios Liakos       : Extrapolation schemes; Compound Job, Property file
  Dimitrios Manganas     : Further ROCIS development; embedding schemes. LFT, Crystal Embedding 
  Dimitrios Pantazis     : SARC Basis sets                               
  Anastasios Papadopoulos: AUTO-CI, single reference methods and gradients 
  Taras Petrenko         : pre 6.0 DFT Hessian and TD-DFT gradient,  ECA, NRVS 
  Petra Pikulova         : Analytic Raman intensities                    
  Peter Pinski           : DLPNO-MP2, DLPNO-MP2 Gradient                 
  Shashank Vittal Rao    : ES-AILFT, MagRelax                            
  Christoph Reimann      : Effective Core Potentials                     
  Marius Retegan         : Local ZFS, SOC                                
  Christoph Riplinger    : Optimizer, TS searches, QM/MM, DLPNO-CCSD(T), (RO)-DLPNO pert. Triples 
  Michael Roemelt        : Original ROCIS implementation, recursive CI coupling coefficients
  Masaaki Saitow         : Open-shell DLPNO-CCSD energy and density      
  Barbara Sandhoefer     : DKH picture change effects                    
  Yorick L. A. Schmerwitz: GMF and freeze-and-release deltaSCF, NEB S-IDPP initial path                    
  Kantharuban Sivalingam : CASSCF convergence/infrastructure, NEVPT2, NEVPT3, NEVPT4(SD), FIC-MRCI and CEPA variants
  Bernardo de Souza      : ESD, SOC TD-DFT                               
  Georgi L. Stoychev     : AutoAux, RI-MP2 NMR, DLPNO-MP2 response, X2C  
  Van Anh Tran           : RI-MP2 g-tensors                              
  Willem Van den Heuvel  : Paramagnetic NMR                              
  Zikuan Wang            : NOTCH, Electric field optimization            
  Frank Wennmohs         : Technical directorship and infrastructure     
  Hang Xu                : AUTO-CI-Response properties                   
                                                                         
[FACCTs GmbH]                                                            
  Markus Bursch, Nicolas Foglia, Miquel Garcia-Rates, Ingolf Harden, Hagen Neugebauer, Anastasios Papadopoulos, 
  Christoph Riplinger, Bernardo de Souza, Georgi L. Stoychev                                                    
                                                                 
  APM, various basis sets, CI-OPT, improved COSX, DLPNO-Multilevel,           
  DOCKER, DRACO, updates on ESD, Fragmentator, GOAT, IRC, LR-CPCM, L-BFGS, MBIS, meta-GGA TD-DFT gradient, ML-optimized integration grids, 
  MM, NACMEs, nearIR, NEB, NEB-TS, NL-DFT gradient (VV10), 2- and 3-layer-ONIOM, interface openCOSMO-RS, QMMM,   
  Crystal-QMMM, RESP, rigid body optimization, SF, symmetry and pop. for TD-DFT, various functionals, SOLVATOR                                   
                                                                         
[Other institutions]                                                     
  V. Asgeirsson          : NEB                                           
  Christoph Bannwarth    : sTDA-DFT, sTD-DFT, PBEh-3c, B97-3c, D3        
  Giovanni Bistoni       : ETS/NOCV, ADLD/ADEX, COVALED                  
  Martin Brehm           : Molecular dynamics                            
  Ronald Cardenas        : ETS/NOCV                                      
  Martina Colucci        : COVALED                                       
  Sebastian Ehlert       : rSCAN, r2SCAN, r2SCAN-3c, D4, dhf basis sets  
  Marvin Friede          : D4 for Fr, Ra, Ac-Lr                          
  Lars Goerigk           : TD-DFT with DH, B97 family of functionals     
  Stefan Grimme          : VdW corrections, initial TS optimization, DFT functionals, gCP, sTDA/sTD-DF 
  Waldemar Hujo          : DFT-NL                                        
  H. Jonsson             : NEB                                           
  Holger Kruse           : gCP                                           
  Marcel Mueller         : wB97X-3c, vDZP basis set                      
  Hagen Neugebauer       : wr2SCAN, Native XTB                           
  Gianluca Regni         : ADLD/ADEX                                     
  Tobias Risthaus        : pre 6.0 range-separated hybrid DFT and stability analysis
  Lukas Wittmann         : regularized MP2, r2SCAN double-hybrids, wr2SCAN        
                                                                         
We gratefully acknowledge several colleagues who have allowed us to      
interface, adapt or use parts of their codes:                            
  Ed Valeev, F. Pavosevic, A. Kumar             : LibInt (2-el integral package), F12 methods 
  Garnet Chan, S. Sharma, J. Yang, R. Olivares  : DMRG                   
  Ulf Ekstrom                                   : XCFun DFT Library      
  Mihaly Kallay                                 : mrcc  (arbitrary order and MRCC methods)
  Frank Weinhold                                : gennbo (NPA and NBO analysis)           
  Simon Mueller                                 : openCOSMO-RS                            
  Christopher J. Cramer and Donald G. Truhlar   : smd solvation model                     
  S Lehtola, MJT Oliveira, MAL Marques          : LibXC Library                           
  Liviu Ungur et al                             : ANISO software                          


 Your calculation uses the libint2 library for the computation of 2-el integrals
 For citations please refer to: http://libint.valeyev.net

 Your ORCA version has been built with support for libXC version: 7.0.0
 For citations please refer to: https://libxc.gitlab.io

 This ORCA versions uses:
   CBLAS   interface :  Fast vector & matrix operations
   LAPACKE interface :  Fast linear algebra routines
   SCALAPACK package :  Parallel linear algebra routines
   Shared memory     :  Shared parallel matrices
   BLAS/LAPACK       :  OpenBLAS 0.3.29  USE64BITINT DYNAMIC_ARCH NO_AFFINITY Cooperlake SINGLE_THREADED
        Core in use  :  Cooperlake
   Copyright (c) 2011-2014, The OpenBLAS Project


  ***********************************
  * Starting time: Wed Jun 10 15:59:28 2026
  * Host name:     chpc-cn081.rc.cuhk.edu.hk
  * Process ID:    237885
  * Working dir.:  /lustre/project/xlzhang/jingyi/chemsmart/test_pka/orca
  ***********************************

NOTE: MaxCore=2109 MB was set to SCF,MP2,MDCI,CIPSI,MRCI,RASCI and CIS
      => If you want to overwrite this, your respective input block should be placed after the MaxCore statement
XCFun DFT library Copyright 2009-2010 Ulf Ekstrom and contributors.
See http://admol.org/xcfun for more information.
This is free software; see the source code for copying conditions.
There is ABSOLUTELY NO WARRANTY; not even for MERCHANTABILITY or FITNESS FOR A PARTICULAR PURPOSE.
For details see the documentation.
Scientific users of this library should cite U. Ekstrom, L. Visscher, R. Bast, A. J. Thorvaldsen and K. Ruud;
J.Chem.Theor.Comp. 2010, DOI: 10.1021/ct100117s
XCFun Version 0.99 

Warning: RI is on but no J-basis has been assigned. Assigning Def2/J (nothing to worry about!)
================================================================================

----- Orbital basis set information -----
Your calculation utilizes the basis: def2-SVP
   F. Weigend and R. Ahlrichs, Phys. Chem. Chem. Phys. 7, 3297 (2005).

----- AuxJ basis set information -----
Your calculation utilizes the auxiliary basis: def2/J
   H-Rn: F. Weigend, Phys. Chem. Chem. Phys. 8, 1057 (2006).
   Fr-Lr: K. Eichkorn, F. Weigend, O. Treutler, R. Ahlrichs; Theor. Chem. Acc. 97, 119 (1997).

================================================================================
                                        WARNINGS
                       Please study these warnings very carefully!
================================================================================

WARNING: Functional chosen is sensitive to the integration grid.
         DEFGRID3 seems to be a minimum grid for robust results!

WARNING: Geometry Optimization
  ===> : Switching off AutoStart
         For restart on a previous wavefunction, please use MOREAD

================================================================================
                                       INPUT FILE
================================================================================
NAME = /lustre/project/xlzhang/jingyi/chemsmart/test_pka/orca/pka_scale_frag5_pka_HA_opt.inp
|  1> ! Opt Freq M062X def2-SVP defgrid2
|  2> # Number of processors
|  3> %pal nprocs 64 end
|  4> # Memory per core
|  5> %maxcore 2109
|  6> * xyz 0 1
|  7> C        0.6109501300   -0.3649491095    0.1240781533
|  8> C        0.3232402482    0.9820407658    0.3869514549
|  9> C       -0.9920315298    1.4472165889    0.3032859762
| 10> C       -2.0247034670    0.5727612155   -0.0330444774
| 11> C       -1.7492833905   -0.7710364332   -0.2788627554
| 12> C       -0.4371376899   -1.2403672118   -0.1958933541
| 13> C        1.9857614979   -0.9305507654    0.1989676629
| 14> O        2.1651552062   -2.1133947981    0.4567257707
| 15> S        3.3493145558    0.1236185132   -0.1422040028
| 16> H        1.0996375836    1.6828989483    0.6818644982
| 17> H       -1.2137397885    2.4918383324    0.5102745082
| 18> H       -3.0477287059    0.9370116506   -0.0938738067
| 19> H       -2.5558698848   -1.4556330056   -0.5305929306
| 20> H       -0.2344942625   -2.2939086294   -0.3832049645
| 21> H        2.7209294972    0.9324539382   -1.0044717328
| 22> *
| 23> 
| 24>                          ****END OF INPUT****
================================================================================

                       *****************************
                       * Geometry Optimization Run *
                       *****************************

Geometry optimization settings:
Update method            Update   .... BFGS
Choice of coordinates    CoordSys .... (2022) Redundant Internals
Initial Hessian          InHess   .... Almloef's Model
Max. no of cycles        MaxIter  .... 50

Convergence Tolerances:
Energy Change            TolE     ....  5.0000e-06 Eh
Max. Gradient            TolMAXG  ....  3.0000e-04 Eh/bohr
RMS Gradient             TolRMSG  ....  1.0000e-04 Eh/bohr
Max. Displacement        TolMAXD  ....  4.0000e-03 bohr
RMS Displacement         TolRMSD  ....  2.0000e-03 bohr
Strict Convergence                .... False

------------------------------------------------------------------------------
                        ORCA OPTIMIZATION COORDINATE SETUP
------------------------------------------------------------------------------

The optimization will be done in redundant internal coordinates (2022)
Making redundant internal coordinates   ...  (2022 redundants) done
Evaluating the initial hessian          ...  (Almloef) done
Evaluating the coordinates              ...  done
Calculating the B-matrix                .... done
Calculating the G-matrix                .... done
The number of degrees of freedom        ....   67

    -----------------------------------------------------------------
                    Redundant Internal Coordinates


    -----------------------------------------------------------------
         Definition                    Initial Value    Approx d2E/dq
    -----------------------------------------------------------------
      1. B(C   1,C   0)                  1.4022         0.597337   
      2. B(C   2,C   1)                  1.3976         0.607560   
      3. B(C   3,C   2)                  1.3943         0.614900   
      4. B(C   4,C   3)                  1.3936         0.616625   
      5. B(C   5,C   4)                  1.3960         0.611123   
      6. B(C   5,C   0)                  1.4026         0.596582   
      7. B(C   6,C   0)                  1.4885         0.435106   
      8. B(O   7,C   6)                  1.2238         1.030389   
      9. B(S   8,C   6)                  1.7570         0.437549   
     10. B(H   9,C   1)                  1.0867         0.364460   
     11. B(H  10,C   2)                  1.0878         0.363068   
     12. B(H  11,C   3)                  1.0876         0.363237   
     13. B(H  12,C   4)                  1.0875         0.363443   
     14. B(H  13,C   5)                  1.0891         0.361317   
     15. B(H  14,S   8)                  1.3389         0.389158   
     16. A(C   5,C   0,C   6)          117.6777         0.404724   
     17. A(C   1,C   0,C   5)          119.2752         0.428201   
     18. A(C   1,C   0,C   6)          123.0307         0.404814   
     19. A(C   0,C   1,H   9)          121.5879         0.351408   
     20. A(C   2,C   1,H   9)          118.2901         0.352418   
     21. A(C   0,C   1,C   2)          120.1053         0.429604   
     22. A(C   1,C   2,H  10)          120.0036         0.352190   
     23. A(C   1,C   2,C   3)          120.1777         0.431845   
     24. A(C   3,C   2,H  10)          119.8160         0.352906   
     25. A(C   2,C   3,C   4)          120.0606         0.432996   
     26. A(C   4,C   3,H  11)          119.9315         0.353101   
     27. A(C   2,C   3,H  11)          120.0050         0.352934   
     28. A(C   3,C   4,C   5)          119.9641         0.432517   
     29. A(C   5,C   4,H  12)          119.9506         0.352600   
     30. A(C   3,C   4,H  12)          120.0847         0.353135   
     31. A(C   0,C   5,C   4)          120.4034         0.429957   
     32. A(C   0,C   5,H  13)          120.2634         0.350819   
     33. A(C   4,C   5,H  13)          119.3331         0.352250   
     34. A(O   7,C   6,S   8)          120.4668         0.468711   
     35. A(C   0,C   6,S   8)          118.6235         0.403992   
     36. A(C   0,C   6,O   7)          120.8802         0.443353   
     37. A(C   6,S   8,H  14)           97.0813         0.380512   
     38. D(H   9,C   1,C   0,C   5)    177.2191         0.024586   
     39. D(C   2,C   1,C   0,C   5)     -1.2699         0.024586   
     40. D(C   2,C   1,C   0,C   6)   -179.7624         0.024586   
     41. D(H   9,C   1,C   0,C   6)     -1.2734         0.024586   
     42. D(C   3,C   2,C   1,C   0)      0.4261         0.025482   
     43. D(C   3,C   2,C   1,H   9)   -178.1121         0.025482   
     44. D(H  10,C   2,C   1,H   9)      1.2901         0.025482   
     45. D(H  10,C   2,C   1,C   0)    179.8284         0.025482   
     46. D(H  11,C   3,C   2,H  10)      0.3779         0.026138   
     47. D(H  11,C   3,C   2,C   1)    179.7813         0.026138   
     48. D(C   4,C   3,C   2,H  10)   -179.0003         0.026138   
     49. D(C   4,C   3,C   2,C   1)      0.4031         0.026138   
     50. D(H  12,C   4,C   3,C   2)    179.3335         0.026293   
     51. D(C   5,C   4,C   3,H  11)   -179.7518         0.026293   
     52. D(C   5,C   4,C   3,C   2)     -0.3732         0.026293   
     53. D(H  12,C   4,C   3,H  11)     -0.0452         0.026293   
     54. D(H  13,C   5,C   4,H  12)     -0.1315         0.025799   
     55. D(C   0,C   5,C   4,H  12)    179.8065         0.025799   
     56. D(C   0,C   5,C   4,C   3)     -0.4865         0.025799   
     57. D(H  13,C   5,C   0,C   6)     -0.1869         0.024521   
     58. D(H  13,C   5,C   0,C   1)   -178.7597         0.024521   
     59. D(H  13,C   5,C   4,C   3)    179.5755         0.025799   
     60. D(C   4,C   5,C   0,C   6)    179.8757         0.024521   
     61. D(C   4,C   5,C   0,C   1)      1.3029         0.024521   
     62. D(S   8,C   6,C   0,C   5)    152.1961         0.012926   
     63. D(S   8,C   6,C   0,C   1)    -29.2888         0.012926   
     64. D(O   7,C   6,C   0,C   5)    -25.8363         0.012926   
     65. D(O   7,C   6,C   0,C   1)    152.6788         0.012926   
     66. D(H  14,S   8,C   6,O   7)    148.0562         0.010000   
     67. D(H  14,S   8,C   6,C   0)    -29.9846         0.010000   
    -----------------------------------------------------------------

Number of atoms                         .... 15
Number of degrees of freedom            .... 67


         *************************************************************
         *                GEOMETRY OPTIMIZATION CYCLE   1            *
         *************************************************************
---------------------------------
CARTESIAN COORDINATES (ANGSTROEM)
---------------------------------
  C      0.610950   -0.364949    0.124078
  C      0.323240    0.982041    0.386951
  C     -0.992032    1.447217    0.303286
  C     -2.024703    0.572761   -0.033044
  C     -1.749283   -0.771036   -0.278863
  C     -0.437138   -1.240367   -0.195893
  C      1.985761   -0.930551    0.198968
  O      2.165155   -2.113395    0.456726
  S      3.349315    0.123619   -0.142204
  H      1.099638    1.682899    0.681864
  H     -1.213740    2.491838    0.510275
  H     -3.047729    0.937012   -0.093874
  H     -2.555870   -1.455633   -0.530593
  H     -0.234494   -2.293909   -0.383205
  H      2.720929    0.932454   -1.004472

----------------------------
CARTESIAN COORDINATES (A.U.)
----------------------------
  NO LB      ZA    FRAG     MASS         X           Y           Z
   0 C     6.0000    0    12.011    1.154528   -0.689654    0.234474
   1 C     6.0000    0    12.011    0.610836    1.855788    0.731232
   2 C     6.0000    0    12.011   -1.874668    2.734843    0.573127
   3 C     6.0000    0    12.011   -3.826135    1.082362   -0.062445
   4 C     6.0000    0    12.011   -3.305667   -1.457048   -0.526974
   5 C     6.0000    0    12.011   -0.826071   -2.343954   -0.370185
   6 C     6.0000    0    12.011    3.752545   -1.758486    0.375994
   7 O     8.0000    0    15.999    4.091550   -3.993737    0.863087
   8 S    16.0000    0    32.060    6.329287    0.233605   -0.268727
   9 H     1.0000    0     1.008    2.078014    3.180218    1.288537
  10 H     1.0000    0     1.008   -2.293636    4.708892    0.964279
  11 H     1.0000    0     1.008   -5.759373    1.770695   -0.177396
  12 H     1.0000    0     1.008   -4.829894   -2.750748   -1.002675
  13 H     1.0000    0     1.008   -0.443130   -4.334859   -0.724152
  14 H     1.0000    0     1.008    5.141812    1.762083   -1.898176

--------------------------------
INTERNAL COORDINATES (ANGSTROEM)
--------------------------------
 C      0   0   0     0.000000000000     0.00000000     0.00000000
 C      1   0   0     1.402234314564     0.00000000     0.00000000
 C      2   1   0     1.397615221986   120.10532793     0.00000000
 C      3   2   1     1.394346335731   120.17765331     0.42612534
 C      4   3   2     1.393583497674   120.06061131     0.40310214
 C      5   4   3     1.396023510152   119.96408873   359.62679958
 C      1   2   3     1.488495874738   123.03072643   180.23764859
 O      7   1   2     1.223822434182   120.88019443   152.67880598
 S      7   1   2     1.756971233438   118.62350743   330.71119861
 H      2   1   3     1.086723846017   121.58786106   178.48897244
 H      3   2   1     1.087765319979   120.00360840   179.82837745
 H      4   3   2     1.087639290482   120.00499657   179.78128974
 H      5   4   3     1.087484400272   120.08467797   179.33345382
 H      6   5   4     1.089081960487   119.33313811   179.57552255
 H      9   7   1     1.338875709245    97.08130900   330.01536870

---------------------------
INTERNAL COORDINATES (A.U.)
---------------------------
 C      0   0   0     0.000000000000     0.00000000     0.00000000
 C      1   0   0     2.649838830112     0.00000000     0.00000000
 C      2   1   0     2.641110010153   120.10532793     0.00000000
 C      3   2   1     2.634932710369   120.17765331     0.42612534
 C      4   3   2     2.633491155356   120.06061131     0.40310214
 C      5   4   3     2.638102110702   119.96408873   359.62679958
 C      1   2   3     2.812849554726   123.03072643   180.23764859
 O      7   1   2     2.312689237154   120.88019443   152.67880598
 S      7   1   2     3.320194456376   118.62350743   330.71119861
 H      2   1   3     2.053610452174   121.58786106   178.48897244
 H      3   2   1     2.055578552737   120.00360840   179.82837745
 H      4   3   2     2.055340391503   120.00499657   179.78128974
 H      5   4   3     2.055047691426   120.08467797   179.33345382
 H      6   5   4     2.058066642714   119.33313811   179.57552255
 H      9   7   1     2.530108417832    97.08130900   330.01536870

---------------------
BASIS SET INFORMATION
---------------------
There are 4 groups of distinct atoms

 Group   1 Type C   : 7s4p1d contracted to 3s2p1d pattern {511/31/1}
 Group   2 Type O   : 7s4p1d contracted to 3s2p1d pattern {511/31/1}
 Group   3 Type S   : 10s7p1d contracted to 4s3p1d pattern {5311/511/1}
 Group   4 Type H   : 4s1p contracted to 2s1p pattern {31/1}

Atom   0C    basis set group =>   1
Atom   1C    basis set group =>   1
Atom   2C    basis set group =>   1
Atom   3C    basis set group =>   1
Atom   4C    basis set group =>   1
Atom   5C    basis set group =>   1
Atom   6C    basis set group =>   1
Atom   7O    basis set group =>   2
Atom   8S    basis set group =>   3
Atom   9H    basis set group =>   4
Atom  10H    basis set group =>   4
Atom  11H    basis set group =>   4
Atom  12H    basis set group =>   4
Atom  13H    basis set group =>   4
Atom  14H    basis set group =>   4
---------------------------------
AUXILIARY/J BASIS SET INFORMATION
---------------------------------
There are 4 groups of distinct atoms

 Group   1 Type C   : 12s5p4d2f1g contracted to 6s4p3d1f1g pattern {711111/2111/211/2/1}
 Group   2 Type O   : 12s5p4d2f1g contracted to 6s4p3d1f1g pattern {711111/2111/211/2/1}
 Group   3 Type S   : 14s5p5d2f1g contracted to 8s4p3d1f1g pattern {71111111/2111/311/2/1}
 Group   4 Type H   : 5s2p1d contracted to 3s1p1d pattern {311/2/1}

Atom   0C    basis set group =>   1
Atom   1C    basis set group =>   1
Atom   2C    basis set group =>   1
Atom   3C    basis set group =>   1
Atom   4C    basis set group =>   1
Atom   5C    basis set group =>   1
Atom   6C    basis set group =>   1
Atom   7O    basis set group =>   2
Atom   8S    basis set group =>   3
Atom   9H    basis set group =>   4
Atom  10H    basis set group =>   4
Atom  11H    basis set group =>   4
Atom  12H    basis set group =>   4
Atom  13H    basis set group =>   4
Atom  14H    basis set group =>   4


           ************************************************************
           *        Program running with 64 parallel MPI-processes    *
           *              working on a common directory               *
           ************************************************************
------------------------------------------------------------------------------
                             ORCA STARTUP CALCULATIONS
                           -- RI-GTO INTEGRALS CHOSEN --
------------------------------------------------------------------------------
------------------------------------------------------------------------------
                   ___                                                        
                  /   \      - P O W E R E D   B Y -                         
                 /     \                                                     
                 |  |  |   _    _      __       _____    __    __             
                 |  |  |  | |  | |    /  \     |  _  \  |  |  /  |          
                  \  \/   | |  | |   /    \    | | | |  |  | /  /          
                 / \  \   | |__| |  /  /\  \   | |_| |  |  |/  /          
                |  |  |   |  __  | /  /__\  \  |    /   |      \           
                |  |  |   | |  | | |   __   |  |    \   |  |\   \          
                \     /   | |  | | |  |  |  |  | |\  \  |  | \   \       
                 \___/    |_|  |_| |__|  |__|  |_| \__\ |__|  \__/        
                                                                              
                      - O R C A' S   B I G   F R I E N D -                    
                                      &                                       
                       - I N T E G R A L  F E E D E R -                       
                                                                              
 v1 FN, 2020, v2 2021, v3 2022-2024                                           
------------------------------------------------------------------------------


----------------------
SHARK INTEGRAL PACKAGE
----------------------

Number of atoms                             ...     15
Number of basis functions                   ...    160
Number of shells                            ...     74
Maximum angular momentum                    ...      2
Integral batch strategy                     ... SHARK/LIBINT Hybrid
RI-J (if used) integral strategy            ... SPLIT-RIJ (Revised 2003 algorithm where possible)
Printlevel                                  ...      1
Contraction scheme used                     ... SEGMENTED contraction
Prescreening option                         ... SCHWARTZ
   Thresh                                   ... 2.500e-11
   Tcut                                     ... 2.500e-12
   Tpresel                                  ... 2.500e-12 
Coulomb Range Separation                    ... NOT USED
Exchange Range Separation                   ... NOT USED
Multipole approximations                    ... NOT USED
Finite Nucleus Model                        ... NOT USED
CABS basis                                  ... NOT available
Auxiliary Coulomb fitting basis             ... AVAILABLE
   # of basis functions in Aux-J            ...    509
   # of shells in Aux-J                     ...    167
   Maximum angular momentum in Aux-J        ...      4
Auxiliary J/K fitting basis                 ... NOT available
Auxiliary Correlation fitting basis         ... NOT available
Auxiliary 'external' fitting basis          ... NOT available

Checking pre-screening integrals            ... done (  0.1 sec) Dimension = 74
   => SHARK Basis and OBASIS are compatible. Storing Pre-screening
Shell pair information
Shell pair cut-off parameter TPreSel        ...   2.5e-12
Total number of shell pairs                 ...      2775
Shell pairs after pre-screening             ...      2564
Total number of primitive shell pairs       ...     10585
Primitive shell pairs kept                  ...      6997
          la=0 lb=0:    751 shell pairs
          la=1 lb=0:    929 shell pairs
          la=1 lb=1:    306 shell pairs
          la=2 lb=0:    328 shell pairs
          la=2 lb=1:    208 shell pairs
          la=2 lb=2:     42 shell pairs

Checking whether 4 symmetric matrices of dimension 160 fit in memory
:Max Core in MB      =   2109.00
 MB in use           =      6.67
 MB left             =   2102.33
 MB needed           =      0.39
 Data fit in memory  = YES
Calculating RI/J V-Matrix + Cholesky decomp.... done (  0.6 sec)
Calculating Nuclear repulsion               ... done (  0.0 sec) ENN=    465.637005717741 Eh

Diagonalization of the overlap matrix:
Smallest eigenvalue                        ... 3.001e-04
Time for diagonalization                   ...    0.004 sec
Threshold for overlap eigenvalues          ... 1.000e-07
Number of eigenvalues below threshold      ... 0
Time for construction of square roots      ...    0.008 sec
Total time needed                          ...    0.102 sec

-------------------
DFT GRID GENERATION
-------------------

General Integration Accuracy     IntAcc      ... 4.388
Radial Grid Type                 RadialGrid  ... OptM3 with GC (2021)
Angular Grid (max. ang.)         AngularGrid ... 4 (Lebedev-302)
Angular grid pruning method      GridPruning ... 4 (adaptive)
Weight generation scheme         WeightScheme... mBecke (2022)
Basis function cutoff            BFCut       ... 1.0000e-11
Integration weight cutoff        WCut        ... 1.0000e-14
Partially contracted basis set               ... off
Rotationally invariant grid construction     ... off
Angular grids for H and He will be reduced by one unit

Total number of grid points                  ...    74839
Total number of batches                      ...     1176
Average number of points per batch           ...       63
Average number of grid points per atom       ...     4989

--------------------
COSX GRID GENERATION
--------------------

GRIDX 1
-------
General Integration Accuracy     IntAcc      ... 3.816
Radial Grid Type                 RadialGrid  ... OptM3 with GC (2021)
Angular Grid (max. ang.)         AngularGrid ... 1 (Lebedev-50)
Angular grid pruning method      GridPruning ... 4 (adaptive)
Weight generation scheme         WeightScheme... mBecke (2022)
Basis function cutoff            BFCut       ... 1.0000e-11
Integration weight cutoff        WCut        ... 1.0000e-14
Partially contracted basis set               ... on
Rotationally invariant grid construction     ... off
Angular grids for H and He will be reduced by one unit

Total number of grid points                  ...    10575
Total number of batches                      ...       88
Average number of points per batch           ...      120
Average number of grid points per atom       ...      705
UseSFitting                                  ... on

GRIDX 2
-------
General Integration Accuracy     IntAcc      ... 4.020
Radial Grid Type                 RadialGrid  ... OptM3 with GC (2021)
Angular Grid (max. ang.)         AngularGrid ... 2 (Lebedev-110)
Angular grid pruning method      GridPruning ... 4 (adaptive)
Weight generation scheme         WeightScheme... mBecke (2022)
Basis function cutoff            BFCut       ... 1.0000e-11
Integration weight cutoff        WCut        ... 1.0000e-14
Partially contracted basis set               ... on
Rotationally invariant grid construction     ... off
Angular grids for H and He will be reduced by one unit

Total number of grid points                  ...    20924
Total number of batches                      ...      170
Average number of points per batch           ...      123
Average number of grid points per atom       ...     1395
UseSFitting                                  ... on

GRIDX 3
-------
General Integration Accuracy     IntAcc      ... 4.338
Radial Grid Type                 RadialGrid  ... OptM3 with GC (2021)
Angular Grid (max. ang.)         AngularGrid ... 3 (Lebedev-194)
Angular grid pruning method      GridPruning ... 4 (adaptive)
Weight generation scheme         WeightScheme... mBecke (2022)
Basis function cutoff            BFCut       ... 1.0000e-11
Integration weight cutoff        WCut        ... 1.0000e-14
Partially contracted basis set               ... on
Rotationally invariant grid construction     ... off
Angular grids for H and He will be reduced by one unit

Total number of grid points                  ...    46676
Total number of batches                      ...      372
Average number of points per batch           ...      125
Average number of grid points per atom       ...     3112
UseSFitting                                  ... on
Grids setup in   2.4 sec
Initializing property integral containers    ... done (  0.2 sec)

SHARK setup successfully completed in   3.8 seconds

Maximum memory used throughout the entire STARTUP-calculation: 19.7 MB


           ************************************************************
           *        Program running with 64 parallel MPI-processes    *
           *              working on a common directory               *
           ************************************************************
-------------------------------------------------------------------------------
                                 ORCA GUESS
                   Start orbitals & Density for SCF / CASSCF
-------------------------------------------------------------------------------

------------
SCF SETTINGS
------------
Hamiltonian:
 Density Functional     Method          .... DFT(GTOs)
 Exchange Functional    Exchange        .... M062X
 Correlation Functional Correlation     .... M062X
 Gradients option       PostSCFGGA      .... off
 Hybrid DFT is turned on
   Fraction HF Exchange ScalHFX         ....  0.540000
   Scaling of DF-GGA-X  ScalDFX         ....  0.460000
   Scaling of DF-GGA-C  ScalDFC         ....  1.000000
   Scaling of DF-LDA-C  ScalLDAC        ....  1.000000
   Perturbative correction              ....  0.000000
 RI-approximation to the Coulomb term is turned on
   Number of AuxJ basis functions       .... 509
   RIJ-COSX (HFX calculated with COS-X)).... on


General Settings:
 Integral files         IntName         .... /lustre/project/xlzhang/jingyi/chemsmart/test_pka/orca/pka_scale_frag5_pka_HA_opt
 Hartree-Fock type      HFTyp           .... RHF
 Total Charge           Charge          ....    0
 Multiplicity           Mult            ....    1
 Number of Electrons    NEL             ....   72
 Basis Dimension        Dim             ....  160
 Nuclear Repulsion      ENuc            ....    465.6370057177 Eh

Convergence Acceleration:
 AO-DIIS                CNVDIIS         .... on
   Start iteration      DIISMaxIt       ....    12
   Startup error        DIISStart       ....  0.200000
   # of expansion vecs  DIISMaxEq       ....     5
   Bias factor          DIISBfac        ....   1.050
   Max. coefficient     DIISMaxC        ....  10.000
 MO-DIIS                CNVKDIIS        .... off
 Trust-Rad. Augm. Hess. CNVTRAH         .... auto
   Auto Start mean grad. ratio tolernc. ....  1.125000
   Auto Start start iteration           ....    50
   Auto Start num. interpolation iter.  ....    10
   Max. Number of Micro iterations      ....    24
   Max. Number of Macro iterations      .... Maxiter - #DIIS iter
   Number of Davidson start vectors     ....     2
   Converg. threshold    (grad. norm)   ....   1.000e-05
   Grad. Scal. Fac. for Micro threshold ....   0.100
   Minimum threshold for Micro iter.    ....   1.000e-02
   NR start threshold (gradient norm)   ....   1.000e-04
   Initial trust radius                 ....   0.400
   Minimum AH scaling param. (alpha)    ....   1.000
   Maximum AH scaling param. (alpha)    .... 1000.000
   Quad. conv. algorithm                .... NR
   White noise on init. David. guess    .... on
   Maximum white noise                  ....   0.010
   Pseudo random numbers                .... off
   Inactive MOs                         .... canonical
   Orbital update algorithm             .... Taylor
   Preconditioner                       .... Diag
   Full preconditioner red. dimension   ....   250
 SOSCF                 CNVSOSCF           .... on
   Start iteration     SOSCFMaxIt         ....   150
   Startup grad/error  SOSCFStart         ....  0.003300
   Hessian update      SOSCFHessUp        .... L-BFGS
   Autom. constraints  SOSCFAutoConstrain .... off
 Level Shifting         CNVShift        .... on
   Level shift para.    LevelShift      ....    0.2500
   Turn off err/grad.   ShiftErr        ....    0.0010
 Zerner damping         CNVZerner       .... off
 Static damping         CNVDamp         .... on
   Fraction old density DampFac         ....    0.7000
   Max. Damping (<1)    DampMax         ....    0.9800
   Min. Damping (>=0)   DampMin         ....    0.0000
   Turn off err/grad.   DampErr         ....    0.1000

SCF Procedure:
 Maximum # iterations   MaxIter         ....   125
 SCF integral mode      SCFMode         .... Direct
   Integral package                     .... SHARK and LIBINT hybrid scheme
 Reset frequency        DirectResetFreq ....    20
 Integral Threshold     Thresh          ....  2.500e-11 Eh
 Primitive CutOff       TCut            ....  2.500e-12 Eh

Convergence Tolerance:
 Convergence Check Mode ConvCheckMode   .... Total+1el-Energy
 Convergence forced     ConvForced      .... 0
 Energy Change          TolE            ....  1.000e-08 Eh
 1-El. energy change                    ....  1.000e-05 Eh
 Orbital Gradient       TolG            ....  1.000e-05
 Orbital Rotation angle TolX            ....  1.000e-05
 DIIS Error             TolErr          ....  5.000e-07

------------------------------
INITIAL GUESS: MODEL POTENTIAL
------------------------------
Loading Hartree-Fock densities                     ... done
Calculating cut-offs                               ... done
Initializing the effective Hamiltonian             ... done
Setting up the integral package (SHARK)            ... done
Starting the Coulomb interaction                   ... done (   0.3 sec)
Making the grid                                    ... done (   0.6 sec)
Mapping shells                                     ... done
Starting the XC term evaluation                    ... done (   0.0 sec)
  promolecular density results
     # of electrons  =     72.000069225
     EX              =    -70.585767230
     EC              =     -2.480122765
     EX+EC           =    -73.065889995
Transforming the Hamiltonian                       ... done (   0.2 sec)
Diagonalizing the Hamiltonian                      ... done (   0.0 sec)
Back transforming the eigenvectors                 ... done (   0.3 sec)
Now organizing SCF variables                       ... done
                      ------------------
                      INITIAL GUESS DONE (   1.8 sec)
                      ------------------
             **** ENERGY FILE WAS UPDATED (/lustre/project/xlzhang/jingyi/chemsmart/test_pka/orca/pka_scale_frag5_pka_HA_opt.en.tmp) ****
Finished Guess after   4.3 sec
Maximum memory used throughout the entire GUESS-calculation: 9.1 MB


           ************************************************************
           *        Program running with 64 parallel MPI-processes    *
           *              working on a common directory               *
           ************************************************************

-------------------------------------------------------------------------------------------
                                      ORCA LEAN-SCF
                              memory conserving SCF solver
-------------------------------------------------------------------------------------------

----------------------------------------D-I-I-S--------------------------------------------
Iteration    Energy (Eh)           Delta-E    RMSDP     MaxDP     DIISErr   Damp  Time(sec)
-------------------------------------------------------------------------------------------
               ***  Starting incremental Fock matrix formation  ***
    1    -743.0216557304659091     0.00e+00  2.97e-02  9.06e-02  2.54e-01  0.700   1.6
    2    -743.1116547688018272    -9.00e-02  2.02e-02  5.72e-02  1.12e-01  0.700   1.2
                               ***Turning on AO-DIIS***
    3    -743.1508364245439680    -3.92e-02  8.70e-03  2.57e-02  3.45e-02  0.700   1.0
    4    -743.1748981613720844    -2.41e-02  1.70e-02  6.34e-02  2.46e-02  0.000   0.8
    5    -743.2279070115937429    -5.30e-02  2.44e-03  5.84e-03  6.96e-03  0.000   0.8
                              *** Initializing SOSCF ***
---------------------------------------S-O-S-C-F--------------------------------------
Iteration    Energy (Eh)           Delta-E    RMSDP     MaxDP     MaxGrad    Time(sec)
--------------------------------------------------------------------------------------
    6    -743.2281574839132645    -2.50e-04  1.27e-03  3.68e-03  2.66e-03     1.1
               *** Restarting incremental Fock matrix formation ***
    7    -743.2282651748118951    -1.08e-04  1.08e-03  2.76e-03  7.87e-04     0.8
    8    -743.2282889439482005    -2.38e-05  1.30e-03  3.81e-03  3.72e-04     1.0
    9    -743.2282897732791298    -8.29e-07  5.73e-04  1.66e-03  4.37e-04     0.8
   10    -743.2282952527841644    -5.48e-06  6.62e-05  1.01e-04  2.81e-05     0.7
   11    -743.2282952711400412    -1.84e-08  2.97e-05  4.49e-05  3.15e-05     1.0
   12    -743.2282953093149445    -3.82e-08  1.09e-05  2.86e-05  6.63e-06     1.0
   13    -743.2282953070400708     2.27e-09  5.31e-06  1.22e-05  4.61e-06     0.8
                 **** Energy Check signals convergence ****

               *****************************************************
               *                     SUCCESS                       *
               *           SCF CONVERGED AFTER  13 CYCLES          *
               *****************************************************

Recomputing exchange energy using gridx3       ... done (    0.188 sec)
Old exchange energy                            :    -38.643025613 Eh
New exchange energy                            :    -38.642938127 Eh
Exchange energy change after final integration :      0.000087486 Eh
Total energy after final integration           :   -743.228207825 Eh
             **** ENERGY FILE WAS UPDATED (/lustre/project/xlzhang/jingyi/chemsmart/test_pka/orca/pka_scale_frag5_pka_HA_opt.en.tmp) ****

----------------
TOTAL SCF ENERGY
----------------

Total Energy       :       -743.22820782473821 Eh          -20224.26772 eV

Components:
Nuclear Repulsion  :        465.63700571774081 Eh           12670.62709 eV
Electronic Energy  :      -1208.86530102866891 Eh          -32894.89719 eV
One Electron Energy:      -1940.27549215156978 Eh          -52797.58032 eV
Two Electron Energy:        731.41019112290098 Eh           19902.68313 eV

Virial components:
Potential Energy   :      -1482.37346167975375 Eh          -40337.43261 eV
Kinetic Energy     :        739.14525385501543 Eh           20113.16489 eV
Virial Ratio       :          2.00552388579704

DFT components:
N(Alpha)           :       35.999970596508 electrons
N(Beta)            :       35.999970596508 electrons
N(Total)           :       71.999941193017 electrons
E(XC)              :      -35.598305900775 Eh       

---------------
SCF CONVERGENCE
---------------

  Last Energy change         ...   -2.2749e-09  Tolerance :   1.0000e-08
  Last MAX-Density change    ...    1.2168e-05  Tolerance :   1.0000e-07
  Last RMS-Density change    ...    5.3148e-06  Tolerance :   5.0000e-09
  Last DIIS Error            ...    2.6553e-03  Tolerance :   5.0000e-07
  Last Orbital Gradient      ...    4.6124e-06  Tolerance :   1.0000e-05
  Last Orbital Rotation      ...    1.1301e-05  Tolerance :   1.0000e-05


----------------
ORBITAL ENERGIES
----------------

  NO   OCC          E(Eh)            E(eV) 
   0   2.0000     -89.916902     -2446.7633 
   1   2.0000     -19.636945      -534.3485 
   2   2.0000     -10.673647      -290.4447 
   3   2.0000     -10.583758      -287.9987 
   4   2.0000     -10.581828      -287.9462 
   5   2.0000     -10.577574      -287.8304 
   6   2.0000     -10.577425      -287.8264 
   7   2.0000     -10.575856      -287.7837 
   8   2.0000     -10.574126      -287.7366 
   9   2.0000      -8.284056      -225.4206 
  10   2.0000      -6.206871      -168.8975 
  11   2.0000      -6.204520      -168.8336 
  12   2.0000      -6.201279      -168.7454 
  13   2.0000      -1.160533       -31.5797 
  14   2.0000      -0.972158       -26.4538 
  15   2.0000      -0.890032       -24.2190 
  16   2.0000      -0.852589       -23.2001 
  17   2.0000      -0.844417       -22.9778 
  18   2.0000      -0.724722       -19.7207 
  19   2.0000      -0.698972       -19.0200 
  20   2.0000      -0.642772       -17.4907 
  21   2.0000      -0.603037       -16.4095 
  22   2.0000      -0.560050       -15.2397 
  23   2.0000      -0.544567       -14.8184 
  24   2.0000      -0.524405       -14.2698 
  25   2.0000      -0.510602       -13.8942 
  26   2.0000      -0.505582       -13.7576 
  27   2.0000      -0.499969       -13.6048 
  28   2.0000      -0.447296       -12.1716 
  29   2.0000      -0.439675       -11.9642 
  30   2.0000      -0.427775       -11.6403 
  31   2.0000      -0.419813       -11.4237 
  32   2.0000      -0.341502        -9.2928 
  33   2.0000      -0.327807        -8.9201 
  34   2.0000      -0.325808        -8.8657 
  35   2.0000      -0.322730        -8.7819 
  36   0.0000      -0.033177        -0.9028 
  37   0.0000       0.006847         0.1863 
  38   0.0000       0.054086         1.4718 
  39   0.0000       0.074686         2.0323 
  40   0.0000       0.093676         2.5491 
  41   0.0000       0.123840         3.3699 
  42   0.0000       0.133144         3.6230 
  43   0.0000       0.153137         4.1671 
  44   0.0000       0.176839         4.8120 
  45   0.0000       0.186935         5.0868 
  46   0.0000       0.191757         5.2180 
*Only the first 10 virtual orbitals were printed.

                    ********************************
                    * MULLIKEN POPULATION ANALYSIS *
                    ********************************

-----------------------
MULLIKEN ATOMIC CHARGES
-----------------------
   0 C :   -0.025843
   1 C :   -0.022611
   2 C :   -0.017815
   3 C :   -0.003463
   4 C :   -0.017493
   5 C :   -0.001575
   6 C :    0.087889
   7 O :   -0.226458
   8 S :   -0.007841
   9 H :    0.019998
  10 H :    0.027455
  11 H :    0.029455
  12 H :    0.029844
  13 H :    0.040156
  14 H :    0.088301
Sum of atomic charges:    0.0000000

--------------------------------
MULLIKEN REDUCED ORBITAL CHARGES
--------------------------------
  0 C s       :     3.037048  s :     3.037048
      pz      :     1.034981  p :     2.952224
      px      :     0.959864
      py      :     0.957379
      dz2     :     0.003674  d :     0.036571
      dxz     :     0.003707
      dyz     :     0.006183
      dx2y2   :     0.011887
      dxy     :     0.011121

  1 C s       :     3.204101  s :     3.204101
      pz      :     0.961654  p :     2.786412
      px      :     0.901917
      py      :     0.922841
      dz2     :     0.002509  d :     0.032099
      dxz     :     0.004615
      dyz     :     0.004904
      dx2y2   :     0.009473
      dxy     :     0.010596

  2 C s       :     3.156757  s :     3.156757
      pz      :     0.980849  p :     2.828642
      px      :     0.964262
      py      :     0.883531
      dz2     :     0.002663  d :     0.032415
      dxz     :     0.006021
      dyz     :     0.002860
      dx2y2   :     0.011042
      dxy     :     0.009829

  3 C s       :     3.158625  s :     3.158625
      pz      :     0.960374  p :     2.811838
      px      :     0.889415
      py      :     0.962049
      dz2     :     0.002881  d :     0.033001
      dxz     :     0.003151
      dyz     :     0.005865
      dx2y2   :     0.010734
      dxy     :     0.010369

  4 C s       :     3.159194  s :     3.159194
      pz      :     0.977347  p :     2.825770
      px      :     0.918612
      py      :     0.929811
      dz2     :     0.002467  d :     0.032529
      dxz     :     0.004309
      dyz     :     0.004583
      dx2y2   :     0.009833
      dxy     :     0.011338

  5 C s       :     3.220329  s :     3.220329
      pz      :     0.944057  p :     2.749183
      px      :     0.934044
      py      :     0.871083
      dz2     :     0.002603  d :     0.032062
      dxz     :     0.006262
      dyz     :     0.002870
      dx2y2   :     0.010290
      dxy     :     0.010038

  6 C s       :     3.136759  s :     3.136759
      pz      :     0.836688  p :     2.678467
      px      :     0.933415
      py      :     0.908364
      dz2     :     0.006688  d :     0.096885
      dxz     :     0.007888
      dyz     :     0.018895
      dx2y2   :     0.022074
      dxy     :     0.041340

  7 O s       :     3.776930  s :     3.776930
      pz      :     1.334952  p :     4.430415
      px      :     1.773686
      py      :     1.321777
      dz2     :     0.002362  d :     0.019113
      dxz     :     0.000364
      dyz     :     0.006130
      dx2y2   :     0.006218
      dxy     :     0.004038

  8 S s       :     5.830195  s :     5.830195
      pz      :     3.488465  p :    10.109726
      px      :     3.334275
      py      :     3.286986
      dz2     :     0.006735  d :     0.067919
      dxz     :     0.014691
      dyz     :     0.011200
      dx2y2   :     0.008132
      dxy     :     0.027161

  9 H s       :     0.957568  s :     0.957568
      pz      :     0.004713  p :     0.022434
      px      :     0.009757
      py      :     0.007964

 10 H s       :     0.950457  s :     0.950457
      pz      :     0.004170  p :     0.022088
      px      :     0.003233
      py      :     0.014685

 11 H s       :     0.948577  s :     0.948577
      pz      :     0.003578  p :     0.021968
      px      :     0.014230
      py      :     0.004160

 12 H s       :     0.948094  s :     0.948094
      pz      :     0.004339  p :     0.022062
      px      :     0.009814
      py      :     0.007910

 13 H s       :     0.937351  s :     0.937351
      pz      :     0.003714  p :     0.022493
      px      :     0.003268
      py      :     0.015511

 14 H s       :     0.881360  s :     0.881360
      pz      :     0.012460  p :     0.030338
      px      :     0.007090
      py      :     0.010788



                     *******************************
                     * LOEWDIN POPULATION ANALYSIS *
                     *******************************

----------------------
LOEWDIN ATOMIC CHARGES
----------------------
   0 C :   -0.094166
   1 C :   -0.021001
   2 C :   -0.028038
   3 C :   -0.013099
   4 C :   -0.026056
   5 C :    0.009669
   6 C :   -0.051991
   7 O :   -0.170033
   8 S :    0.223218
   9 H :    0.029262
  10 H :    0.036633
  11 H :    0.036801
  12 H :    0.037684
  13 H :    0.043515
  14 H :   -0.012398

-------------------------------
LOEWDIN REDUCED ORBITAL CHARGES
-------------------------------
  0 C s       :     2.862812  s :     2.862812
      pz      :     1.007095  p :     3.128525
      px      :     1.047580
      py      :     1.073850
      dz2     :     0.009092  d :     0.102829
      dxz     :     0.008360
      dyz     :     0.013892
      dx2y2   :     0.036443
      dxy     :     0.035042

  1 C s       :     2.860834  s :     2.860834
      pz      :     0.963676  p :     3.072118
      px      :     1.064364
      py      :     1.044077
      dz2     :     0.006046  d :     0.088049
      dxz     :     0.009974
      dyz     :     0.010950
      dx2y2   :     0.028233
      dxy     :     0.032846

  2 C s       :     2.858777  s :     2.858777
      pz      :     0.972886  p :     3.081030
      px      :     1.065103
      py      :     1.043041
      dz2     :     0.006398  d :     0.088231
      dxz     :     0.013728
      dyz     :     0.005816
      dx2y2   :     0.032872
      dxy     :     0.029417

  3 C s       :     2.860995  s :     2.860995
      pz      :     0.949558  p :     3.062936
      px      :     1.047660
      py      :     1.065719
      dz2     :     0.006876  d :     0.089167
      dxz     :     0.006456
      dyz     :     0.013379
      dx2y2   :     0.031733
      dxy     :     0.030723

  4 C s       :     2.858722  s :     2.858722
      pz      :     0.968156  p :     3.078968
      px      :     1.054311
      py      :     1.056501
      dz2     :     0.005958  d :     0.088366
      dxz     :     0.009184
      dyz     :     0.010053
      dx2y2   :     0.029337
      dxy     :     0.033833

  5 C s       :     2.860592  s :     2.860592
      pz      :     0.941092  p :     3.042273
      px      :     1.054508
      py      :     1.046673
      dz2     :     0.006305  d :     0.087466
      dxz     :     0.014035
      dyz     :     0.005718
      dx2y2   :     0.031657
      dxy     :     0.029751

  6 C s       :     2.929695  s :     2.929695
      pz      :     0.842403  p :     2.905434
      px      :     1.042780
      py      :     1.020251
      dz2     :     0.014809  d :     0.216863
      dxz     :     0.015735
      dyz     :     0.034965
      dx2y2   :     0.057496
      dxy     :     0.093858

  7 O s       :     3.562836  s :     3.562836
      pz      :     1.344257  p :     4.575862
      px      :     1.778337
      py      :     1.453268
      dz2     :     0.004189  d :     0.031334
      dxz     :     0.000497
      dyz     :     0.008179
      dx2y2   :     0.011839
      dxy     :     0.006630

  8 S s       :     5.548478  s :     5.548478
      pz      :     3.474385  p :    10.139612
      px      :     3.388867
      py      :     3.276359
      dz2     :     0.008897  d :     0.088692
      dxz     :     0.017383
      dyz     :     0.016552
      dx2y2   :     0.010061
      dxy     :     0.035799

  9 H s       :     0.900605  s :     0.900605
      pz      :     0.015923  p :     0.070133
      px      :     0.029193
      py      :     0.025017

 10 H s       :     0.896043  s :     0.896043
      pz      :     0.014548  p :     0.067324
      px      :     0.012297
      py      :     0.040479

 11 H s       :     0.895994  s :     0.895994
      pz      :     0.012998  p :     0.067205
      px      :     0.039416
      py      :     0.014791

 12 H s       :     0.894943  s :     0.894943
      pz      :     0.015001  p :     0.067373
      px      :     0.028520
      py      :     0.023852

 13 H s       :     0.887255  s :     0.887255
      pz      :     0.013386  p :     0.069230
      px      :     0.012541
      py      :     0.043303

 14 H s       :     0.932603  s :     0.932603
      pz      :     0.031926  p :     0.079796
      px      :     0.021073
      py      :     0.026796



                      *****************************
                      * MAYER POPULATION ANALYSIS *
                      *****************************

  NA   - Mulliken gross atomic population
  ZA   - Total nuclear charge
  QA   - Mulliken gross atomic charge
  VA   - Mayer's total valence
  BVA  - Mayer's bonded valence
  FA   - Mayer's free valence

  ATOM       NA         ZA         QA         VA         BVA        FA
  0 C      6.0258     6.0000    -0.0258     3.6658     3.6658     0.0000
  1 C      6.0226     6.0000    -0.0226     3.8718     3.8718     0.0000
  2 C      6.0178     6.0000    -0.0178     3.8920     3.8920     0.0000
  3 C      6.0035     6.0000    -0.0035     3.8463     3.8463     0.0000
  4 C      6.0175     6.0000    -0.0175     3.8580     3.8580     0.0000
  5 C      6.0016     6.0000    -0.0016     3.9202     3.9202     0.0000
  6 C      5.9121     6.0000     0.0879     4.0828     4.0828    -0.0000
  7 O      8.2265     8.0000    -0.2265     2.2531     2.2531    -0.0000
  8 S     16.0078    16.0000    -0.0078     2.1812     2.1812    -0.0000
  9 H      0.9800     1.0000     0.0200     1.0075     1.0075     0.0000
 10 H      0.9725     1.0000     0.0275     0.9776     0.9776     0.0000
 11 H      0.9705     1.0000     0.0295     0.9770     0.9770     0.0000
 12 H      0.9702     1.0000     0.0298     0.9776     0.9776     0.0000
 13 H      0.9598     1.0000     0.0402     0.9961     0.9961    -0.0000
 14 H      0.9117     1.0000     0.0883     0.9795     0.9795     0.0000

  Mayer bond orders larger than 0.100000
B(  0-C ,  1-C ) :   1.3551 B(  0-C ,  5-C ) :   1.3849 B(  0-C ,  6-C ) :   0.9009 
B(  1-C ,  2-C ) :   1.4122 B(  1-C ,  9-H ) :   0.9828 B(  2-C ,  3-C ) :   1.3951 
B(  2-C , 10-H ) :   0.9858 B(  3-C ,  4-C ) :   1.3823 B(  3-C , 11-H ) :   0.9877 
B(  4-C ,  5-C ) :   1.4012 B(  4-C , 12-H ) :   0.9880 B(  5-C , 13-H ) :   0.9906 
B(  6-C ,  7-O ) :   2.0843 B(  6-C ,  8-S ) :   1.0878 B(  7-O ,  8-S ) :   0.1036 
B(  8-S , 14-H ) :   0.9467 

-------
TIMINGS
-------

Total SCF time: 0 days 0 hours 0 min 17 sec 

Total time                  ....      17.146 sec
Sum of individual times     ....      16.226 sec  ( 94.6%)

SCF preparation             ....       3.017 sec  ( 17.6%)
Fock matrix formation       ....      11.729 sec  ( 68.4%)
  Startup                   ....       0.206 sec  (  1.8% of F)
  Split-RI-J                ....       1.309 sec  ( 11.2% of F)
  Chain of spheres X        ....       1.612 sec  ( 13.7% of F)
  XC integration            ....       4.578 sec  ( 39.0% of F)
    XC Preparation          ....       0.000 sec  (  0.0% of XC)
    Basis function eval.    ....       0.035 sec  (  0.8% of XC)
    Density eval.           ....       0.054 sec  (  1.2% of XC)
    XC-Functional eval.     ....       0.015 sec  (  0.3% of XC)
    XC-Potential eval.      ....       0.059 sec  (  1.3% of XC)
Diagonalization             ....       0.000 sec  (  0.0%)
Density matrix formation    ....       0.287 sec  (  1.7%)
Total Energy calculation    ....       0.070 sec  (  0.4%)
Population analysis         ....       0.218 sec  (  1.3%)
Orbital Transformation      ....       0.253 sec  (  1.5%)
Orbital Orthonormalization  ....       0.000 sec  (  0.0%)
DIIS solution               ....       0.395 sec  (  2.3%)
SOSCF solution              ....       0.256 sec  (  1.5%)
Finished LeanSCF after  17.4 sec

Maximum memory used throughout the entire LEANSCF-calculation: 13.1 MB


           ************************************************************
           *        Program running with 64 parallel MPI-processes    *
           *              working on a common directory               *
           ************************************************************

------------------------------------------------------------------------------
                         ORCA PROPERTY INTEGRAL CALCULATIONS
------------------------------------------------------------------------------

GBWName                                   ... /lustre/project/xlzhang/jingyi/chemsmart/test_pka/orca/pka_scale_frag5_pka_HA_opt.gbw
Number of atoms                           ...     15
Number of basis functions                 ...    160
Max core memory                           ...   2109 MB

Dipole integrals                          ... YES
Quadrupole integrals                      ...  NO
Linear momentum integrals                 ...  NO
Angular momentum integrals                ...  NO
Higher moments length integrals           ...  NO
Higher moments velocity integrals         ...  NO
Kinetic energy integrals                  ...  NO
GIAO right hand sides                     ...  NO
GIAO dipole derivative integrals          ...  NO
SOC integrals                             ...  NO
EPR diamagnetic integrals (GIAO)          ...  NO
EPR gauge integrals                       ...  NO
Field gradient integrals                  ...  NO (   0 nuclei)
Spin-dipole/Fermi contact integrals       ...  NO (   0 nuclei)
Contact density integrals                 ...  NO (   0 nuclei)
Nucleus-orbit integrals                   ...  NO (   0 nuclei)
Geometric perturbations                   ...  NO (  15 nuclei)

Choice of electric origin   ... Center of mass
Position of electric origin ... (  1.5226, -0.4266,  0.1093) 
Choice of magnetic origin   ... GIAO
Position of magnetic origin ... (  0.0000,  0.0000,  0.0000) 

Calculating integrals                     ... Electric Dipole (Length)     done (  0.1 sec)

Property integrals calculated in   0.2 sec

Maximum memory used throughout the entire PROPINT-calculation: 9.4 MB

-------------------------   --------------------
FINAL SINGLE POINT ENERGY      -743.228207824738
-------------------------   --------------------



           ************************************************************
           *        Program running with 64 parallel MPI-processes    *
           *              working on a common directory               *
           ************************************************************
------------------------------------------------------------------------------
                         ORCA SCF GRADIENT CALCULATION
------------------------------------------------------------------------------

Nuc. rep. gradient        (SHARK) ... done (  0.0 sec)
HCore & Overlap gradient  (SHARK) ... done (  0.0 sec)
Split-RIJ-J gradient      (SHARK) ... done (  0.1 sec)
done (  0.5 sec)
XC gradient                       ... done (  0.4 sec)

------------------
CARTESIAN GRADIENT
------------------

   1   C   :    0.007625387   -0.005574400    0.001050898
   2   C   :    0.007808894   -0.000491929    0.001989988
   3   C   :   -0.002470262    0.004383450   -0.000005497
   4   C   :   -0.001684940   -0.000282955   -0.000432654
   5   C   :   -0.006484411   -0.000481342   -0.001105627
   6   C   :    0.005451920   -0.001260725   -0.000457855
   7   C   :    0.008750064    0.048354555   -0.005500977
   8   O   :    0.000839418   -0.036085690    0.004322708
   9   S   :   -0.018127709   -0.004259558    0.000670795
  10   H   :   -0.004967891    0.000500267    0.000086907
  11   H   :   -0.000291803   -0.002136872   -0.000826916
  12   H   :    0.002268474   -0.001106428    0.000317420
  13   H   :    0.001418138    0.001676930    0.000819575
  14   H   :   -0.003967276    0.000536049   -0.000369458
  15   H   :    0.003831996   -0.003771352   -0.000559307

Difference to translation invariance:
           :   -0.0000000000   -0.0000000003    0.0000000000

Difference to rotation invariance:
           :   -0.0005920722    0.0005686689   -0.0010486928

Norm of the Cartesian gradient     ...    0.0667857581
RMS gradient                       ...    0.0099558330
MAX gradient                       ...    0.0483545554

-------
TIMINGS
-------

Total SCF gradient time     ....        1.087 sec

Densities                   ....       0.002 sec  (  0.2%)
One electron gradient       ....       0.022 sec  (  2.0%)
RI-J Coulomb gradient       ....       0.116 sec  ( 10.7%)
COSX gradient               ....       0.517 sec  ( 47.6%)
XC gradient                 ....       0.428 sec  ( 39.3%)

Maximum memory used throughout the entire SCFGRAD-calculation: 16.7 MB
------------------------------------------------------------------------------
                         ORCA GEOMETRY RELAXATION STEP
------------------------------------------------------------------------------

Reading the OPT-File                    .... done
Getting information on internals        .... done
Copying old internal coords+grads       .... done
Making the new internal coordinates     .... (2022 redundants) done
Validating the new internal coordinates .... (2022 redundants) done
Calculating the B-matrix                .... done
Calculating the G,G- and P matrices     .... done
Transforming gradient to internals      .... done
Projecting the internal gradient        .... done
Number of atoms                         ....  15
Number of internal coordinates          ....  67
Current Energy                          ....  -743.228207825 Eh
Current gradient norm                   ....     0.066785758 Eh/bohr
Maximum allowed component of the step   ....  0.300
Current trust radius                    ....  0.300
Evaluating the initial hessian          ....  (Almloef) done
Projecting the Hessian                  .... done
Forming the augmented Hessian           .... done
Diagonalizing the augmented Hessian     .... done
Last element of RFO vector              ....  0.903132006
Lowest eigenvalues of augmented Hessian:
 -0.006172568  0.011215678  0.012740696  0.014667235  0.021038400
Length of the computed step             ....  0.475415544
Warning: the length of the step is outside the trust region - taking restricted step instead
The input lambda is                     ....     0.009000
   iter:   5  x=    0.001986  g=  655.282141 f(x)=     1.762166
   iter:  10  x=   -0.016275  g=    7.248045 f(x)=     0.007551
The output lambda is                    ....    -0.016342 (14 iterations)
The final length of the internal step   ....  0.300000000
Converting the step to Cartesian space:
 Initial RMS(Int)=    0.0366508333
Transforming coordinates:
 Iter   0:  RMS(Cart)=    0.0836692795 RMS(Int)=    0.7676360325
 Iter   5:  RMS(Cart)=    0.0000035618 RMS(Int)=    0.0000028089
done
Storing new coordinates                 .... done

                                .--------------------.
          ----------------------|Geometry convergence|-------------------------
          Item                value                   Tolerance       Converged
          ---------------------------------------------------------------------
          RMS gradient        0.0052833338            0.0001000000      NO
          MAX gradient        0.0359014519            0.0003000000      NO
          RMS step            0.0366508333            0.0020000000      NO
          MAX step            0.2315082299            0.0040000000      NO
          -------------------------------------------------------------------------
          ........................................................
          Max(Bonds)      0.0186      Max(Angles)    0.68
          Max(Dihed)       13.26      Max(Improp)    0.00
          ---------------------------------------------------------------------

The optimization has not yet converged - more geometry cycles are needed


    ---------------------------------------------------------------------------
                         Redundant Internal Coordinates
                            (Angstroem and degrees)

        Definition                    Value    dE/dq     Step     New-Value
    ----------------------------------------------------------------------------
     1. B(C   1,C   0)                1.4022  0.002874 -0.0026    1.3997   
     2. B(C   2,C   1)                1.3976  0.003683 -0.0031    1.3945   
     3. B(C   3,C   2)                1.3943 -0.000222  0.0003    1.3946   
     4. B(C   4,C   3)                1.3936 -0.001995  0.0018    1.3953   
     5. B(C   5,C   4)                1.3960  0.003880 -0.0033    1.3928   
     6. B(C   5,C   0)                1.4026  0.003336 -0.0030    1.3996   
     7. B(C   6,C   0)                1.4885 -0.006022  0.0071    1.4956   
     8. B(O   7,C   6)                1.2238  0.035901 -0.0182    1.2057   
     9. B(S   8,C   6)                1.7570 -0.015913  0.0186    1.7755   
    10. B(H   9,C   1)                1.0867 -0.003207  0.0045    1.0912   
    11. B(H  10,C   2)                1.0878 -0.002155  0.0030    1.0908   
    12. B(H  11,C   3)                1.0876 -0.002523  0.0035    1.0912   
    13. B(H  12,C   4)                1.0875 -0.002293  0.0032    1.0907   
    14. B(H  13,C   5)                1.0891 -0.001188  0.0017    1.0907   
    15. B(H  14,S   8)                1.3389 -0.003716  0.0048    1.3437   
    16. A(C   5,C   0,C   6)          117.68  0.002191   -0.28    117.40   
    17. A(C   1,C   0,C   5)          119.28 -0.002213    0.26    119.54   
    18. A(C   1,C   0,C   6)          123.03  0.000027    0.01    123.04   
    19. A(C   0,C   1,H   9)          121.59  0.003866   -0.60    120.99   
    20. A(C   2,C   1,H   9)          118.29 -0.003871    0.61    118.90   
    21. A(C   0,C   1,C   2)          120.11  0.000006   -0.01    120.09   
    22. A(C   1,C   2,H  10)          120.00  0.000492   -0.09    119.91   
    23. A(C   1,C   2,C   3)          120.18  0.000682   -0.08    120.10   
    24. A(C   3,C   2,H  10)          119.82 -0.001175    0.17    119.98   
    25. A(C   2,C   3,C   4)          120.06  0.000639   -0.05    120.01   
    26. A(C   4,C   3,H  11)          119.93 -0.000577    0.07    120.00   
    27. A(C   2,C   3,H  11)          120.00 -0.000063   -0.01    119.99   
    28. A(C   3,C   4,C   5)          119.96 -0.000010    0.02    119.98   
    29. A(C   5,C   4,H  12)          119.95  0.000377   -0.07    119.88   
    30. A(C   3,C   4,H  12)          120.08 -0.000367    0.05    120.13   
    31. A(C   0,C   5,C   4)          120.40  0.000893   -0.13    120.27   
    32. A(C   0,C   5,H  13)          120.26  0.003491   -0.55    119.72   
    33. A(C   4,C   5,H  13)          119.33 -0.004384    0.68    120.01   
    34. A(O   7,C   6,S   8)          120.47  0.005244   -0.58    119.89   
    35. A(C   0,C   6,S   8)          118.62 -0.000825    0.16    118.79   
    36. A(C   0,C   6,O   7)          120.88 -0.004516    0.61    121.49   
    37. A(C   6,S   8,H  14)           97.08  0.003288   -0.47     96.61   
    38. D(H   9,C   1,C   0,C   5)    177.22 -0.000317    0.39    177.61   
    39. D(C   2,C   1,C   0,C   5)     -1.27 -0.000292    0.42     -0.85   
    40. D(C   2,C   1,C   0,C   6)   -179.76 -0.000568    0.80   -178.96   
    41. D(H   9,C   1,C   0,C   6)     -1.27 -0.000593    0.78     -0.50   
    42. D(C   3,C   2,C   1,C   0)      0.43  0.000397   -0.52     -0.09   
    43. D(C   3,C   2,C   1,H   9)   -178.11  0.000307   -0.47   -178.59   
    44. D(H  10,C   2,C   1,H   9)      1.29  0.000133   -0.24      1.06   
    45. D(H  10,C   2,C   1,C   0)    179.83  0.000223   -0.28    179.55   
    46. D(H  11,C   3,C   2,H  10)      0.38 -0.000126    0.15      0.53   
    47. D(H  11,C   3,C   2,C   1)    179.78 -0.000290    0.39    180.17   
    48. D(C   4,C   3,C   2,H  10)   -179.00  0.000006   -0.02   -179.02   
    49. D(C   4,C   3,C   2,C   1)      0.40 -0.000158    0.22      0.62   
    50. D(H  12,C   4,C   3,C   2)    179.33 -0.000122    0.15    179.49   
    51. D(C   5,C   4,C   3,H  11)   -179.75 -0.000002   -0.00   -179.75   
    52. D(C   5,C   4,C   3,C   2)     -0.37 -0.000130    0.17     -0.20   
    53. D(H  12,C   4,C   3,H  11)     -0.05  0.000006   -0.02     -0.06   
    54. D(H  13,C   5,C   4,H  12)     -0.13  0.000137   -0.20     -0.33   
    55. D(C   0,C   5,C   4,H  12)    179.81  0.000177   -0.25    179.56   
    56. D(C   0,C   5,C   4,C   3)     -0.49  0.000182   -0.26     -0.75   
    57. D(H  13,C   5,C   0,C   6)     -0.19  0.000282   -0.43     -0.62   
    58. D(H  13,C   5,C   0,C   1)   -178.76  0.000049   -0.07   -178.83   
    59. D(H  13,C   5,C   4,C   3)    179.58  0.000142   -0.22    179.36   
    60. D(C   4,C   5,C   0,C   6)    179.88  0.000247   -0.39    179.49   
    61. D(C   4,C   5,C   0,C   1)      1.30  0.000013   -0.03      1.27   
    62. D(S   8,C   6,C   0,C   5)    152.20 -0.002691    5.41    157.61   
    63. D(S   8,C   6,C   0,C   1)    -29.29 -0.002481    5.04    -24.25   
    64. D(O   7,C   6,C   0,C   5)    -25.84  0.000454   -1.07    -26.91   
    65. D(O   7,C   6,C   0,C   1)    152.68  0.000664   -1.44    151.24   
    66. D(H  14,S   8,C   6,O   7)    148.06 -0.006275   13.26    161.32   
    67. D(H  14,S   8,C   6,C   0)    -29.98 -0.002945    6.79    -23.20   
    ----------------------------------------------------------------------------

Geometry step timings:
Preparation and reading OPT file:      0.000 s ( 0.842 %)
Internal coordinates            :      0.000 s ( 0.472 %)
B/P matrices and projection     :      0.000 s ( 6.317 %)
Hessian update/contruction      :      0.005 s (60.043 %)
Making the step                 :      0.001 s (10.541 %)
Converting the step to Cartesian:      0.000 s ( 1.123 %)
Storing new data                :      0.000 s ( 1.365 %)
Checking convergence            :      0.000 s ( 0.523 %)
Final printing                  :      0.001 s (18.683 %)
Total time                      :      0.008 s

Time for energy+gradient        :     35.276 s
Time for complete geometry iter :     42.596 s

         *************************************************************
         *                GEOMETRY OPTIMIZATION CYCLE   2            *
         *************************************************************
---------------------------------
CARTESIAN COORDINATES (ANGSTROEM)
---------------------------------
  C      0.602184   -0.379625    0.079938
  C      0.332803    0.971795    0.325174
  C     -0.978497    1.443582    0.275184
  C     -2.025051    0.570726   -0.021145
  C     -1.762464   -0.779516   -0.255419
  C     -0.454494   -1.254512   -0.197387
  C      1.979139   -0.960363    0.138445
  O      2.161491   -2.115250    0.432774
  S      3.368915    0.114865   -0.116290
  H      1.133886    1.666859    0.581742
  H     -1.185958    2.495823    0.474004
  H     -3.050136    0.942350   -0.062582
  H     -2.580314   -1.465564   -0.479116
  H     -0.249877   -2.311884   -0.370085
  H      2.708371    1.060713   -0.805236

----------------------------
CARTESIAN COORDINATES (A.U.)
----------------------------
  NO LB      ZA    FRAG     MASS         X           Y           Z
   0 C     6.0000    0    12.011    1.137963   -0.717388    0.151060
   1 C     6.0000    0    12.011    0.628907    1.836427    0.614489
   2 C     6.0000    0    12.011   -1.849090    2.727974    0.520022
   3 C     6.0000    0    12.011   -3.826792    1.078515   -0.039959
   4 C     6.0000    0    12.011   -3.330573   -1.473072   -0.482672
   5 C     6.0000    0    12.011   -0.858869   -2.370684   -0.373008
   6 C     6.0000    0    12.011    3.740030   -1.814823    0.261623
   7 O     8.0000    0    15.999    4.084625   -3.997244    0.817824
   8 S    16.0000    0    32.060    6.366327    0.217063   -0.219756
   9 H     1.0000    0     1.008    2.142734    3.149907    1.099332
  10 H     1.0000    0     1.008   -2.241135    4.716422    0.895738
  11 H     1.0000    0     1.008   -5.763922    1.780784   -0.118263
  12 H     1.0000    0     1.008   -4.876086   -2.769514   -0.905398
  13 H     1.0000    0     1.008   -0.472198   -4.368827   -0.699359
  14 H     1.0000    0     1.008    5.118080    2.004458   -1.521676

--------------------------------
INTERNAL COORDINATES (ANGSTROEM)
--------------------------------
 C      0   0   0     0.000000000000     0.00000000     0.00000000
 C      1   0   0     1.399658928864     0.00000000     0.00000000
 C      2   1   0     1.394484893384   120.09021697     0.00000000
 C      3   2   1     1.394619960993   120.10109273   359.90899302
 C      4   3   2     1.395345612277   120.00640414     0.62134341
 C      5   4   3     1.392757502754   119.98403789   359.79844323
 C      1   2   3     1.495554389835   123.04322111   181.04152655
[...]
     26      -0.000693   0.000156   0.000355  -0.012533   0.000050  -0.000091
     27       0.278985  -0.175842  -0.029083   0.002472   0.242889  -0.443449
     28      -0.089085   0.309426  -0.010761   0.005830   0.207173  -0.376647
     29      -0.000213   0.056048  -0.004650   0.006101   0.076661  -0.139464
     30       0.237870   0.273569  -0.023168  -0.000034   0.104125  -0.081332
     31      -0.140678   0.147355  -0.000150  -0.000643  -0.522869   0.425057
     32       0.001766   0.064603  -0.002862  -0.000041  -0.097947   0.079922
     33      -0.130395   0.175222   0.000573  -0.000098  -0.579461  -0.232591
     34      -0.423656  -0.049994   0.017075  -0.000027   0.208789   0.080113
     35      -0.100098   0.009665   0.000137  -0.000141  -0.025499  -0.010895
     36      -0.232871   0.139361   0.028369  -0.000023   0.325757   0.429872
     37      -0.011183  -0.300202  -0.009420   0.000078   0.273096   0.362072
     38      -0.025637  -0.039114   0.002211  -0.000186   0.088116   0.116579
     39      -0.257975  -0.314648   0.066809  -0.000228   0.029368   0.044726
     40       0.082166  -0.171077  -0.020045   0.000188  -0.146041  -0.218210
     41      -0.011813  -0.063695  -0.011493   0.000130  -0.022445  -0.033281
     42       0.005210   0.013505   0.144313   0.507914  -0.002063   0.003478
     43       0.005255   0.003981   0.060001  -0.765915   0.002356  -0.004033
     44       0.010219  -0.008908  -0.009226   0.392864  -0.000388   0.000795
                 42         43         44    
      0      -0.001278  -0.000842  -0.002176
      1       0.001636  -0.002890  -0.001163
      2       0.000163  -0.000609  -0.000431
      3      -0.038338   0.030086  -0.009204
      4      -0.031940   0.022237  -0.006800
      5      -0.011956   0.008699  -0.002677
      6       0.008578  -0.010395   0.003587
      7      -0.022115   0.053407  -0.023519
      8      -0.003685   0.010042  -0.004517
      9      -0.040340  -0.038896   0.029264
     10       0.017488   0.011222  -0.011720
     11      -0.001252  -0.002290   0.001055
     12      -0.029369   0.001345   0.036043
     13      -0.028855  -0.004060   0.028208
     14      -0.008753  -0.000635   0.009335
     15      -0.004082  -0.009102  -0.015602
     16       0.029938   0.042771   0.063855
     17       0.004871   0.006608   0.009624
     18      -0.000385   0.000224  -0.000236
     19       0.000097   0.000683   0.000721
     20      -0.000109   0.000034  -0.000067
     21       0.000023  -0.000241  -0.000123
     22      -0.000206  -0.000182  -0.000383
     23       0.000030  -0.000009   0.000038
     24       0.000034   0.000011   0.000056
     25      -0.000006   0.000009   0.000014
     26       0.000079  -0.000069   0.000002
     27       0.429048  -0.315252   0.092994
     28       0.361814  -0.262868   0.077424
     29       0.134093  -0.097880   0.028679
     30      -0.054499   0.114798  -0.048446
     31       0.254822  -0.583534   0.251327
     32       0.047555  -0.109630   0.047401
     33       0.460928   0.416554  -0.315952
     34      -0.168997  -0.147037   0.114780
     35       0.019705   0.018978  -0.013650
     36       0.349940   0.011478  -0.376095
     37       0.299135   0.014612  -0.315946
     38       0.095723   0.004165  -0.101636
     39       0.070076   0.102230   0.151824
     40      -0.344647  -0.486069  -0.713335
     41      -0.052756  -0.074000  -0.108489
     42      -0.003260   0.002305  -0.000730
     43       0.003523  -0.002576   0.000566
     44      -0.000417   0.000343   0.000190


-----------
IR SPECTRUM
-----------

 Mode   freq       eps      Int      T**2         TX        TY        TZ
       cm**-1   L/(mol*cm) km/mol    a.u.
----------------------------------------------------------------------------
  6:     63.16   0.000228    1.15  0.001126  ( 0.000500  0.008316  0.032499)
  7:    142.42   0.000281    1.42  0.000616  (-0.020010  0.005475  0.013635)
  8:    181.30   0.000872    4.41  0.001500  (-0.021393 -0.021879 -0.023751)
  9:    310.17   0.000406    2.05  0.000408  ( 0.019403 -0.000902 -0.005551)
 10:    362.87   0.003285   16.60  0.002825  ( 0.012201 -0.034288 -0.038734)
 11:    410.02   0.000550    2.78  0.000418  ( 0.015261  0.001340  0.013550)
 12:    421.85   0.000237    1.20  0.000175  (-0.003762  0.009351  0.008566)
 13:    461.22   0.000567    2.86  0.000384  ( 0.006013  0.013200 -0.013158)
 14:    498.69   0.000558    2.82  0.000349  (-0.005384  0.005685 -0.016976)
 15:    625.45   0.000137    0.69  0.000068  ( 0.008039  0.000121  0.001889)
 16:    668.56   0.005594   28.27  0.002611  ( 0.025122  0.009121 -0.043552)
 17:    704.38   0.005485   27.72  0.002430  (-0.047744 -0.012276  0.000049)
 18:    720.54   0.008366   42.28  0.003623  ( 0.007459  0.013640 -0.058151)
 19:    799.52   0.003018   15.25  0.001178  ( 0.013682  0.006702 -0.030757)
 20:    859.22   0.010733   54.24  0.003898  (-0.062198  0.002290 -0.004925)
 21:    884.22   0.001006    5.08  0.000355  (-0.018627 -0.000987 -0.002658)
 22:    973.52   0.001012    5.11  0.000324  ( 0.008393  0.009657 -0.012674)
 23:    993.80   0.015652   79.10  0.004915  ( 0.061418  0.030586 -0.014393)
 24:   1022.02   0.002836   14.33  0.000866  (-0.024236 -0.015298  0.006669)
 25:   1026.93   0.000059    0.30  0.000018  ( 0.000553 -0.002224  0.003572)
 26:   1048.98   0.000129    0.65  0.000038  (-0.006094 -0.000879  0.000587)
 27:   1065.00   0.000561    2.83  0.000164  ( 0.000268 -0.012506  0.002796)
 28:   1112.77   0.001169    5.91  0.000328  (-0.001729 -0.017694 -0.003411)
 29:   1166.12   0.000039    0.20  0.000010  (-0.000536 -0.002793 -0.001497)
 30:   1187.76   0.002610   13.19  0.000686  (-0.025910  0.001747  0.003375)
 31:   1254.47   0.032301  163.24  0.008035  ( 0.088551  0.008524 -0.011013)
 32:   1325.22   0.000988    4.99  0.000233  (-0.012939 -0.008032  0.000867)
 33:   1369.10   0.000577    2.91  0.000131  (-0.000644  0.010945  0.003350)
 34:   1490.58   0.003718   18.79  0.000778  (-0.018286 -0.020632 -0.004269)
 35:   1535.03   0.000276    1.39  0.000056  ( 0.000057  0.007317 -0.001581)
 36:   1677.54   0.000830    4.20  0.000154  ( 0.007547 -0.009868 -0.000366)
 37:   1696.04   0.001854    9.37  0.000341  ( 0.016712 -0.007748  0.001373)
 38:   1870.78   0.054171  273.76  0.009036  (-0.001095 -0.091701  0.025020)
 39:   2745.06   0.000051    0.26  0.000006  (-0.000854  0.002143 -0.000646)
 40:   3220.02   0.000012    0.06  0.000001  (-0.000809 -0.000648  0.000295)
 41:   3228.32   0.000456    2.30  0.000044  ( 0.002044 -0.006204 -0.001186)
 42:   3234.56   0.000592    2.99  0.000057  (-0.006170 -0.004223 -0.001085)
 43:   3241.48   0.000197    1.00  0.000019  (-0.001625  0.003958  0.000814)
 44:   3246.19   0.000854    4.32  0.000082  ( 0.008564 -0.002890  0.000637)

* The epsilon (eps) is given for a Dirac delta lineshape.
** The dipole moment derivative (T) already includes vibrational overlap.

The first frequency considered to be a vibration is 6
The total number of vibrations considered is 39


--------------------------
THERMOCHEMISTRY AT 298.15K
--------------------------

Temperature         ...   298.15 K
Pressure            ...     1.00 atm
Total Mass          ...   138.18 AMU
Quasi RRHO          ...     True
Cut-Off Frequency   ...     1.00 cm^-1

Throughout the following assumptions are being made:
  (1) The electronic state is orbitally nondegenerate
  (2) There are no thermally accessible electronically excited states
  (3) Hindered rotations indicated by low frequency modes are not
      treated as such but are treated as vibrations and this may
      cause some error
  (4) All equations used are the standard statistical mechanics
      equations for an ideal gas
  (5) All vibrations are strictly harmonic

freq.      63.16  E(vib)   ...       0.51 
freq.     142.42  E(vib)   ...       0.41 
freq.     181.30  E(vib)   ...       0.37 
freq.     310.17  E(vib)   ...       0.26 
freq.     362.87  E(vib)   ...       0.22 
freq.     410.02  E(vib)   ...       0.19 
freq.     421.85  E(vib)   ...       0.18 
freq.     461.22  E(vib)   ...       0.16 
freq.     498.69  E(vib)   ...       0.14 
freq.     625.45  E(vib)   ...       0.09 
freq.     668.56  E(vib)   ...       0.08 
freq.     704.38  E(vib)   ...       0.07 
freq.     720.54  E(vib)   ...       0.07 
freq.     799.52  E(vib)   ...       0.05 
freq.     859.22  E(vib)   ...       0.04 
freq.     884.22  E(vib)   ...       0.04 
freq.     973.52  E(vib)   ...       0.03 
freq.     993.80  E(vib)   ...       0.02 
freq.    1022.02  E(vib)   ...       0.02 
freq.    1026.93  E(vib)   ...       0.02 
freq.    1048.98  E(vib)   ...       0.02 
freq.    1065.00  E(vib)   ...       0.02 
freq.    1112.77  E(vib)   ...       0.01 
freq.    1166.12  E(vib)   ...       0.01 
freq.    1187.76  E(vib)   ...       0.01 
freq.    1254.47  E(vib)   ...       0.01 
freq.    1325.22  E(vib)   ...       0.01 
freq.    1369.10  E(vib)   ...       0.01 
freq.    1490.58  E(vib)   ...       0.00 
freq.    1535.03  E(vib)   ...       0.00 
freq.    1677.54  E(vib)   ...       0.00 
freq.    1696.04  E(vib)   ...       0.00 
freq.    1870.78  E(vib)   ...       0.00 
freq.    2745.06  E(vib)   ...       0.00 
freq.    3220.02  E(vib)   ...       0.00 
freq.    3228.32  E(vib)   ...       0.00 
freq.    3234.56  E(vib)   ...       0.00 
freq.    3241.48  E(vib)   ...       0.00 
freq.    3246.19  E(vib)   ...       0.00 

------------
INNER ENERGY
------------

The inner energy is: U= E(el) + E(ZPE) + E(vib) + E(rot) + E(trans)
    E(el)   - is the total energy from the electronic structure calculation
              = E(kin-el) + E(nuc-el) + E(el-el) + E(nuc-nuc)
    E(ZPE)  - the the zero temperature vibrational energy from the frequency calculation
    E(vib)  - the the finite temperature correction to E(ZPE) due to population
              of excited vibrational states
    E(rot)  - is the rotational thermal energy
    E(trans)- is the translational thermal energy

Summary of contributions to the inner energy U:
Electronic energy                ...   -743.23182186 Eh
Zero point energy                ...      0.11127675 Eh      69.83 kcal/mol
Thermal vibrational correction   ...      0.00487673 Eh       3.06 kcal/mol
Thermal rotational correction    ...      0.00141627 Eh       0.89 kcal/mol
Thermal translational correction ...      0.00141627 Eh       0.89 kcal/mol
-----------------------------------------------------------------------
Total thermal energy                   -743.11283584 Eh


Summary of corrections to the electronic energy:
(perhaps to be used in another calculation)
Total thermal correction                  0.00770927 Eh       4.84 kcal/mol
Non-thermal (ZPE) correction              0.11127675 Eh      69.83 kcal/mol
-----------------------------------------------------------------------
Total correction                          0.11898602 Eh      74.66 kcal/mol


--------
ENTHALPY
--------

The enthalpy is H = U + kB*T
                kB is Boltzmann's constant
Total thermal energy              ...   -743.11283584 Eh 
Thermal Enthalpy correction       ...      0.00094421 Eh       0.59 kcal/mol
-----------------------------------------------------------------------
Total Enthalpy                    ...   -743.11189163 Eh


Note: Only C1 symmetry has been detected, increase convergence thresholds 
      if your molecule has a higher symmetry. Symmetry factor of 1.0 is   
      used for the rotational entropy correction. 
 

Note: Rotational entropy computed according to Herzberg 
Infrared and Raman Spectra, Chapter V,1, Van Nostrand Reinhold, 1945 
Point Group:  C1, Symmetry Number:   1  
Rotational constants in cm-1:     0.104787     0.030510     0.024225 

Vibrational entropy computed according to the QRRHO of S. Grimme
Chem.Eur.J. 2012 18 9955 using a reference frequency of 100.0 cm-1


-------
ENTROPY
-------

The entropy contributions are T*S = T*(S(el)+S(vib)+S(rot)+S(trans))
     S(el)   - electronic entropy
     S(vib)  - vibrational entropy
     S(rot)  - rotational entropy
     S(trans)- translational entropy
The entropies will be listed as multiplied by the temperature to get
units of energy

Electronic entropy                ...      0.00000000 Eh      0.00 kcal/mol
Vibrational entropy               ...      0.00800393 Eh      5.02 kcal/mol
Rotational entropy                ...      0.01397958 Eh      8.77 kcal/mol
Translational entropy             ...      0.01932929 Eh     12.13 kcal/mol
-----------------------------------------------------------------------
Final entropy term                ...      0.04131279 Eh     25.92 kcal/mol

In case the symmetry of your molecule has not been determined correctly
or in case you have a reason to use a different symmetry number we print 
out the resulting rotational entropy values for sn=1,12:

 non-linear molecules -----------------------------------
|  sn= 1 | S(rot)=       0.01397958 Eh      8.77 kcal/mol|
|  sn= 2 | S(rot)=       0.01332512 Eh      8.36 kcal/mol|
|  sn= 3 | S(rot)=       0.01294229 Eh      8.12 kcal/mol|
|  sn= 4 | S(rot)=       0.01267066 Eh      7.95 kcal/mol|
|  sn= 5 | S(rot)=       0.01245998 Eh      7.82 kcal/mol|
|  sn= 6 | S(rot)=       0.01228783 Eh      7.71 kcal/mol|
|  sn= 7 | S(rot)=       0.01214229 Eh      7.62 kcal/mol|
|  sn= 8 | S(rot)=       0.01201621 Eh      7.54 kcal/mol|
|  sn= 9 | S(rot)=       0.01190500 Eh      7.47 kcal/mol|
|  sn=10 | S(rot)=       0.01180552 Eh      7.41 kcal/mol|
|  sn=11 | S(rot)=       0.01171553 Eh      7.35 kcal/mol|
|  sn=12 | S(rot)=       0.01163338 Eh      7.30 kcal/mol|
 linear molecules ---------------------------------------
|  Dinfh | S(rot)=       0.00883851 Eh      5.55 kcal/mol|
|  Cinfv | S(rot)=       0.00949297 Eh      5.96 kcal/mol|
 --------------------------------------------------------


-------------------
GIBBS FREE ENERGY
-------------------

The Gibbs free energy is G = H - T*S

Total enthalpy                    ...   -743.11189163 Eh 
Total entropy correction          ...     -0.04131279 Eh    -25.92 kcal/mol
-----------------------------------------------------------------------
Final Gibbs free energy         ...   -743.15320442 Eh

For completeness - the Gibbs free energy minus the electronic energy
G-E(el)                           ...      0.07861744 Eh     49.33 kcal/mol


Maximum memory used throughout the entire PROP-calculation: 43.9 MB

--------------------------------
SUGGESTED CITATIONS FOR THIS RUN
--------------------------------

Below you find a list of papers that are relevant to this ORCA run
We neither can nor want to force you to cite these papers, but we appreciate if you do
You receive ORCA, which is the product of decades of hard work by many enthusiastic individuals, for free
The only thing we kindly ask in return is that you cite our papers,
We deeply appreciate it, if you show your appreciation for ORCA by not just citing the generic ORCA reference.

Please note that relegating all ORCA citations to the supporting information does *not* help us.
SI sections are not indexed - citations you put there will not count into any citation statistics
But we need these citations in order to attract the funding resources that allow us to do what we are doing

Therefore, if you are a happy ORCA user, please consider citing a few of the papers listed below in the main body of your paper

In addition to the list printed below, the program has created the file /lustre/project/xlzhang/jingyi/chemsmart/test_pka/orca/pka_scale_frag5_pka_HA_opt.bibtex that contains the list in bibtex format
You can import this file easily into all common literature databanks and citation aid programs


List of essential papers. We consider these as the minimum necessary citations

  1. Neese, F.
     Software update: the ORCA program system, version 6.0
     WIRES Comput. Molec. Sci. 2025 15(1), e70019
     doi.org/10.1002/wcms.7019

List of papers to cite with high priority. The work reported in these papers was absolutely
necessary for this run to complete.
Our perspective: the developers of density functionals and basis sets usually get cited in chemistry papers
Good! But without the algorithms to do something with them, the functionals or basis sets would not do anything.
Hence, in our opinion, the algorithm design and method developments papers are equally worthy of getting cited

  1. Neese, F.
     An improvement of the resolution of the identity approximation for the formation of the Coulomb matrix
     J. Comp. Chem. 2003 24(14), 1740-1747
     doi.org/10.1002/jcc.10318
  2. Neese, F.; Wennmohs, F.; Hansen, A.; Becker, U.
     Efficient, approximate and parallel Hartree-Fock and hybrid DFT calculations. A 'chain-of-spheres' algorithm for the Hartree-Fock exchange
     Chem. Phys. 2009 356(1-3), 98-109
     doi.org/10.1016/j.chemphys.2008.10.036
  3. Bykov, D.; Petrenko, T.; Izsak, R.; Kossmann, S.; Becker, U.; Valeev, E.; Neese, F.
     Efficient implementation of the analytic second derivatives of Hartree-Fock and hybrid DFT energies: a detailed analysis of different approximations
     Molec. Phys. 2015 113 , 1961-1977
     doi.org/10.1080/00268976.2015.1025114
  4. Helmich-Paris, B.; de Souza, B.; Neese, F.; Izsák, R.
     An improved chain of spheres for exchange algorithm
     J. Chem. Phys. 2021 155(10), 104109
     doi.org/10.1063/5.0058766
  5. Neese, F.
     The SHARK Integral Generation and Digestion System
     J. Comp. Chem. 2022 44(3), 381
     doi.org/10.1002/jcc.26942

List of suggested additional citations. These are papers that are important in the 'surrounding' of 
of this run, or papers that preceded the highly important papers. If you like your results we are grateful for a citation.

  1. Izsak, R.; Neese, F.
     An overlap fitted chain of spheres exchange method
     J. Chem. Phys. 2011 135 , 144105
     doi.org/10.1063/1.3646921
  2. Izsak, R.; Hansen, A.; Neese, F.
     The resolution of identity and chain of spheres approximations for the LPNO-CCSD singles Fock term
     Molec. Phys. 2012 110 , 2413-2417
     doi.org/10.1080/00268976.2012.687466
  3. Neese, F.
     The ORCA program system
     WIRES Comput. Molec. Sci. 2012 2(1), 73-78
     doi.org/10.1002/wcms.81
  4. Izsak, R.; Neese, F.; Klopper, W.
     Robust fitting techniques in the chain of spheres approximation to the Fock exchange: The role of the complementary space
     J. Chem. Phys. 2013 139 , 
     doi.org/10.1063/1.4819264
  5. Neese, F.
     Software update: the ORCA program system, version 4.0
     WIRES Comput. Molec. Sci. 2018 8(1), 1-6
     doi.org/10.1002/wcms.1327
  6. Neese, F.; Wennmohs, F.; Becker, U.; Riplinger, C.
     The ORCA quantum chemistry program package
     J. Chem. Phys. 2020 152(22), 224108
     doi.org/10.1063/5.0004608
  7. Neese, F.
     Software update: The ORCA program system—Version 5.0
     WIRES Comput. Molec. Sci. 2022 12(1), e1606
     doi.org/10.1002/wcms.1606

List of optional additional citations

  1. Neese, F.
     Approximate second-order SCF convergence for spin unrestricted wavefunctions
     Chem. Phys. Lett. 2000 325(1-3), 93-98
     doi.org/10.1016/s0009-2614(00)00662-x

Timings for individual modules:

Sum of individual times          ...      259.946 sec (=   4.332 min)
Startup calculation              ...       42.539 sec (=   0.709 min)  16.4 %
SCF iterations                   ...      137.733 sec (=   2.296 min)  53.0 %
Property integrals               ...       25.222 sec (=   0.420 min)   9.7 %
SCF Response                     ...       21.317 sec (=   0.355 min)   8.2 %
Property calculations            ...       10.468 sec (=   0.174 min)   4.0 %
SCF Gradient evaluation          ...       22.617 sec (=   0.377 min)   8.7 %
Geometry relaxation              ...        0.050 sec (=   0.001 min)   0.0 %
                             ****ORCA TERMINATED NORMALLY****
TOTAL RUN TIME: 0 days 0 hours 5 minutes 11 seconds 549 msec
