 Entering Gaussian System, Link 0=/project/xlzhang/shared/bin/g16/g16
 Input=/lustre/project/xlzhang/jingyi/chemsmart/test_pka/gaussian/pka_scale_frag3_pka_A_opt.com
 Output=/lustre/project/xlzhang/jingyi/chemsmart/test_pka/gaussian/pka_scale_frag3_pka_A_opt.log
 Initial command:
 /project/xlzhang/shared/bin/g16/l1.exe "/lustre/project/xlzhang/jingyi/chemsmart/test_pka/gaussian/Gau-774445.inp" -scrdir="/lustre/project/xlzhang/jingyi/chemsmart/test_pka/gaussian/"
 Entering Link 1 = /project/xlzhang/shared/bin/g16/l1.exe PID=    774446.
  
 Copyright (c) 1988-2017, Gaussian, Inc.  All Rights Reserved.
  
 This is part of the Gaussian(R) 16 program.  It is based on
 the Gaussian(R) 09 system (copyright 2009, Gaussian, Inc.),
 the Gaussian(R) 03 system (copyright 2003, Gaussian, Inc.),
 the Gaussian(R) 98 system (copyright 1998, Gaussian, Inc.),
 the Gaussian(R) 94 system (copyright 1995, Gaussian, Inc.),
 the Gaussian 92(TM) system (copyright 1992, Gaussian, Inc.),
 the Gaussian 90(TM) system (copyright 1990, Gaussian, Inc.),
 the Gaussian 88(TM) system (copyright 1988, Gaussian, Inc.),
 the Gaussian 86(TM) system (copyright 1986, Carnegie Mellon
 University), and the Gaussian 82(TM) system (copyright 1983,
 Carnegie Mellon University). Gaussian is a federally registered
 trademark of Gaussian, Inc.
  
 This software contains proprietary and confidential information,
 including trade secrets, belonging to Gaussian, Inc.
  
 This software is provided under written license and may be
 used, copied, transmitted, or stored only in accord with that
 written license.
  
 The following legend is applicable only to US Government
 contracts under FAR:
  
                    RESTRICTED RIGHTS LEGEND
  
 Use, reproduction and disclosure by the US Government is
 subject to restrictions as set forth in subparagraphs (a)
 and (c) of the Commercial Computer Software - Restricted
 Rights clause in FAR 52.227-19.
  
 Gaussian, Inc.
 340 Quinnipiac St., Bldg. 40, Wallingford CT 06492
  
  
 ---------------------------------------------------------------
 Warning -- This program may not be used in any manner that
 competes with the business of Gaussian, Inc. or will provide
 assistance to any competitor of Gaussian, Inc.  The licensee
 of this program is prohibited from giving any competitor of
 Gaussian, Inc. access to this program.  By using this program,
 the user acknowledges that Gaussian, Inc. is engaged in the
 business of creating and licensing software in the field of
 computational chemistry and represents and warrants to the
 licensee that it is not a competitor of Gaussian, Inc. and that
 it will not use this program in any manner prohibited above.
 ---------------------------------------------------------------
  

 Cite this work as:
 Gaussian 16, Revision B.01,
 M. J. Frisch, G. W. Trucks, H. B. Schlegel, G. E. Scuseria, 
 M. A. Robb, J. R. Cheeseman, G. Scalmani, V. Barone, 
 G. A. Petersson, H. Nakatsuji, X. Li, M. Caricato, A. V. Marenich, 
 J. Bloino, B. G. Janesko, R. Gomperts, B. Mennucci, H. P. Hratchian, 
 J. V. Ortiz, A. F. Izmaylov, J. L. Sonnenberg, D. Williams-Young, 
 F. Ding, F. Lipparini, F. Egidi, J. Goings, B. Peng, A. Petrone, 
 T. Henderson, D. Ranasinghe, V. G. Zakrzewski, J. Gao, N. Rega, 
 G. Zheng, W. Liang, M. Hada, M. Ehara, K. Toyota, R. Fukuda, 
 J. Hasegawa, M. Ishida, T. Nakajima, Y. Honda, O. Kitao, H. Nakai, 
 T. Vreven, K. Throssell, J. A. Montgomery, Jr., J. E. Peralta, 
 F. Ogliaro, M. J. Bearpark, J. J. Heyd, E. N. Brothers, K. N. Kudin, 
 V. N. Staroverov, T. A. Keith, R. Kobayashi, J. Normand, 
 K. Raghavachari, A. P. Rendell, J. C. Burant, S. S. Iyengar, 
 J. Tomasi, M. Cossi, J. M. Millam, M. Klene, C. Adamo, R. Cammi, 
 J. W. Ochterski, R. L. Martin, K. Morokuma, O. Farkas, 
 J. B. Foresman, and D. J. Fox, Gaussian, Inc., Wallingford CT, 2016.
 
 ******************************************
 Gaussian 16:  ES64L-G16RevB.01 20-Dec-2017
                10-Jun-2026 
 ******************************************
 %chk=pka_scale_frag3_pka_A_opt.chk
 %nprocshared=64
 Will use up to   64 processors via shared memory.
 %mem=180GB
 -----------------------
 # opt freq mn15 def2svp
 -----------------------
 1/18=20,19=15,26=3,38=1/1,3;
 2/9=110,12=2,17=6,18=5,40=1/2;
 3/5=43,7=101,11=2,25=1,30=1,71=1,74=-73/1,2,3;
 4//1;
 5/5=2,38=5/2;
 6/7=2,8=2,9=2,10=2,28=1/1;
 7//1,2,3,16;
 1/18=20,19=15,26=3/3(2);
 2/9=110/2;
 99//99;
 2/9=110/2;
 3/5=43,7=101,11=2,25=1,30=1,71=1,74=-73/1,2,3;
 4/5=5,16=3,69=1/1;
 5/5=2,38=5/2;
 7//1,2,3,16;
 1/18=20,19=15,26=3/3(-5);
 2/9=110/2;
 6/7=2,8=2,9=2,10=2,19=2,28=1/1;
 99/9=1/99;
 ----------------------------
 Gaussian pKa calculation job
 ----------------------------
 Symbolic Z-matrix:
 Charge = -1 Multiplicity = 1
 C                    -0.93354  -0.06006  -0.23038 
 C                     0.49361   0.27893   0.04691 
 O                     1.03253   1.35663  -0.13614 
 O                     1.1814   -0.76447   0.54621 
 H                    -1.44269   0.8203   -0.63271 
 H                    -1.43046  -0.35758   0.69627 
 H                    -0.98673  -0.86255  -0.97018 
 

 GradGradGradGradGradGradGradGradGradGradGradGradGradGradGradGradGradGrad
 Berny optimization.
 Initialization pass.
                           ----------------------------
                           !    Initial Parameters    !
                           ! (Angstroms and Degrees)  !
 --------------------------                            --------------------------
 ! Name  Definition              Value          Derivative Info.                !
 --------------------------------------------------------------------------------
 ! R1    R(1,2)                  1.4928         estimate D2E/DX2                !
 ! R2    R(1,5)                  1.0937         estimate D2E/DX2                !
 ! R3    R(1,6)                  1.0928         estimate D2E/DX2                !
 ! R4    R(1,7)                  1.0928         estimate D2E/DX2                !
 ! R5    R(2,3)                  1.2188         estimate D2E/DX2                !
 ! R6    R(2,4)                  1.3458         estimate D2E/DX2                !
 ! A1    A(2,1,5)              109.3045         estimate D2E/DX2                !
 ! A2    A(2,1,6)              109.8184         estimate D2E/DX2                !
 ! A3    A(2,1,7)              109.8186         estimate D2E/DX2                !
 ! A4    A(5,1,6)              108.6277         estimate D2E/DX2                !
 ! A5    A(5,1,7)              108.628          estimate D2E/DX2                !
 ! A6    A(6,1,7)              110.6108         estimate D2E/DX2                !
 ! A7    A(1,2,3)              126.5575         estimate D2E/DX2                !
 ! A8    A(1,2,4)              112.4235         estimate D2E/DX2                !
 ! A9    A(3,2,4)              121.019          estimate D2E/DX2                !
 ! D1    D(5,1,2,3)              0.0003         estimate D2E/DX2                !
 ! D2    D(5,1,2,4)           -179.9998         estimate D2E/DX2                !
 ! D3    D(6,1,2,3)           -119.0771         estimate D2E/DX2                !
 ! D4    D(6,1,2,4)             60.9228         estimate D2E/DX2                !
 ! D5    D(7,1,2,3)            119.0783         estimate D2E/DX2                !
 ! D6    D(7,1,2,4)            -60.9218         estimate D2E/DX2                !
 --------------------------------------------------------------------------------
 Trust Radius=3.00D-01 FncErr=1.00D-07 GrdErr=1.00D-06 EigMax=2.50D+02 EigMin=1.00D-04
 Number of steps in this run=     31 maximum allowed number of steps=    100.
 GradGradGradGradGradGradGradGradGradGradGradGradGradGradGradGradGradGrad

                          Input orientation:                          
 ---------------------------------------------------------------------
 Center     Atomic      Atomic             Coordinates (Angstroms)
 Number     Number       Type             X           Y           Z
 ---------------------------------------------------------------------
      1          6           0       -0.933543   -0.060063   -0.230376
      2          6           0        0.493608    0.278933    0.046914
      3          8           0        1.032525    1.356629   -0.136136
      4          8           0        1.181401   -0.764470    0.546212
      5          1           0       -1.442687    0.820299   -0.632706
      6          1           0       -1.430457   -0.357583    0.696271
      7          1           0       -0.986731   -0.862547   -0.970180
 ---------------------------------------------------------------------
                    Distance matrix (angstroms):
                    1          2          3          4          5
     1  C    0.000000
     2  C    1.492839   0.000000
     3  O    2.425144   1.218758   0.000000
     4  O    2.360566   1.345752   2.233120   0.000000
     5  H    1.093679   2.122309   2.580873   3.284384   0.000000
     6  H    1.092756   2.128107   3.114114   2.647617   1.775876
     7  H    1.092758   2.128112   3.114124   2.647615   1.775881
                    6          7
     6  H    0.000000
     7  H    1.796925   0.000000
 Stoichiometry    C2H3O2(1-)
 Framework group  C1[X(C2H3O2)]
 Deg. of freedom    15
 Full point group                 C1      NOp   1
 Largest Abelian subgroup         C1      NOp   1
 Largest concise Abelian subgroup C1      NOp   1
                         Standard orientation:                         
 ---------------------------------------------------------------------
 Center     Atomic      Atomic             Coordinates (Angstroms)
 Number     Number       Type             X           Y           Z
 ---------------------------------------------------------------------
      1          6           0        1.341381   -0.103439   -0.000000
      2          6           0       -0.150917   -0.063294   -0.000001
      3          8           0       -0.902909   -1.022397   -0.000000
      4          8           0       -0.630614    1.194060    0.000000
      5          1           0        1.675052   -1.144975   -0.000005
      6          1           0        1.725170    0.386029    0.898467
      7          1           0        1.725176    0.386045   -0.898458
 ---------------------------------------------------------------------
 Rotational constants (GHZ):          11.7796354           9.8462145           5.5550924
 Standard basis: def2SVP (5D, 7F)
 There are    75 symmetry adapted cartesian basis functions of A   symmetry.
 There are    71 symmetry adapted basis functions of A   symmetry.
    71 basis functions,   121 primitive gaussians,    75 cartesian basis functions
    16 alpha electrons       16 beta electrons
       nuclear repulsion energy       111.8078164753 Hartrees.
 NAtoms=    7 NActive=    7 NUniq=    7 SFac= 1.00D+00 NAtFMM=   60 NAOKFM=F Big=F
 Integral buffers will be    131072 words long.
 Raffenetti 2 integral format.
 Two-electron integral symmetry is turned on.
 One-electron integrals computed using PRISM.
   1 Symmetry operations used in ECPInt.
 ECPInt:  NShTT=     561 NPrTT=    2077 LenC2=     561 LenP2D=    1814.
 LDataN:  DoStor=T MaxTD1= 4 Len=   56
 NBasis=    71 RedAO= T EigKep=  3.61D-03  NBF=    71
 NBsUse=    71 1.00D-06 EigRej= -1.00D+00 NBFU=    71
 ExpMin= 1.22D-01 ExpMax= 2.27D+03 ExpMxC= 3.41D+02 IAcc=3 IRadAn=         5 AccDes= 0.00D+00
 Harris functional with IExCor= 1009 and IRadAn=       5 diagonalized for initial guess.
 HarFok:  IExCor= 1009 AccDes= 0.00D+00 IRadAn=         5 IDoV= 1 UseB2=F ITyADJ=14
 ICtDFT=  3500011 ScaDFX=  1.000000  1.000000  1.000000  1.000000
 FoFCou: FMM=F IPFlag=           0 FMFlag=      100000 FMFlg1=           0
         NFxFlg=           0 DoJE=T BraDBF=F KetDBF=T FulRan=T
         wScrn=  0.000000 ICntrl=       500 IOpCl=  0 I1Cent=   200000004 NGrid=           0
         NMat0=    1 NMatS0=      1 NMatT0=    0 NMatD0=    1 NMtDS0=    0 NMtDT0=    0
 Petite list used in FoFCou.
 Keep R1 ints in memory in canonical form, NReq=60771749.
 Requested convergence on RMS density matrix=1.00D-08 within 128 cycles.
 Requested convergence on MAX density matrix=1.00D-06.
 Requested convergence on             energy=1.00D-06.
 No special actions if energy rises.
 Integral accuracy reduced to 1.0D-05 until final iterations.
 Initial convergence to 1.0D-05 achieved.  Increase integral accuracy.
 SCF Done:  E(RMN15) =  -228.041925046     A.U. after   14 cycles
            NFock= 14  Conv=0.57D-08     -V/T= 2.0091

 **********************************************************************

            Population analysis using the SCF Density.

 **********************************************************************

 Orbital symmetries:
       Occupied  (A) (A) (A) (A) (A) (A) (A) (A) (A) (A) (A) (A)
                 (A) (A) (A) (A)
       Virtual   (A) (A) (A) (A) (A) (A) (A) (A) (A) (A) (A) (A)
                 (A) (A) (A) (A) (A) (A) (A) (A) (A) (A) (A) (A)
                 (A) (A) (A) (A) (A) (A) (A) (A) (A) (A) (A) (A)
                 (A) (A) (A) (A) (A) (A) (A) (A) (A) (A) (A) (A)
                 (A) (A) (A) (A) (A) (A) (A)
 The electronic state is 1-A.
 Alpha  occ. eigenvalues --  -18.52144 -18.48313  -9.90191  -9.85767  -0.81000
 Alpha  occ. eigenvalues --   -0.68129  -0.56365  -0.32035  -0.28586  -0.26683
 Alpha  occ. eigenvalues --   -0.23307  -0.17820  -0.17440  -0.05190  -0.02948
 Alpha  occ. eigenvalues --   -0.01382
 Alpha virt. eigenvalues --    0.28321   0.29540   0.33647   0.37533   0.46573
 Alpha virt. eigenvalues --    0.52967   0.58468   0.68324   0.70157   0.79160
 Alpha virt. eigenvalues --    0.79549   0.80595   0.86234   0.88096   0.88140
 Alpha virt. eigenvalues --    0.91139   0.94396   1.05873   1.17809   1.22832
 Alpha virt. eigenvalues --    1.27144   1.32650   1.41093   1.42550   1.47141
 Alpha virt. eigenvalues --    1.53991   1.70958   1.71956   1.79895   1.86147
 Alpha virt. eigenvalues --    1.86465   1.94054   1.97838   2.00012   2.12303
 Alpha virt. eigenvalues --    2.20338   2.22484   2.29540   2.48088   2.55897
 Alpha virt. eigenvalues --    2.62700   2.66629   2.88871   2.91651   2.96039
 Alpha virt. eigenvalues --    2.96209   3.00066   3.03486   3.04207   3.25277
 Alpha virt. eigenvalues --    3.31947   3.43096   3.58046   3.81791   3.83938
          Condensed to atoms (all electrons):
               1          2          3          4          5          6
     1  C    5.245501   0.144041  -0.141192  -0.162815   0.199141   0.326507
     2  C    0.144041   4.575229   0.671724   0.584444   0.033035   0.012447
     3  O   -0.141192   0.671724   7.908836  -0.110072   0.021791   0.002407
     4  O   -0.162815   0.584444  -0.110072   8.216536   0.011114   0.007072
     5  H    0.199141   0.033035   0.021791   0.011114   0.845362  -0.018738
     6  H    0.326507   0.012447   0.002407   0.007072  -0.018738   0.709247
     7  H    0.326507   0.012447   0.002407   0.007072  -0.018739  -0.015580
               7
     1  C    0.326507
     2  C    0.012447
     3  O    0.002407
     4  O    0.007072
     5  H   -0.018739
     6  H   -0.015580
     7  H    0.709247
 Mulliken charges:
               1
     1  C    0.062311
     2  C   -0.033368
     3  O   -0.355903
     4  O   -0.553352
     5  H   -0.072967
     6  H   -0.023361
     7  H   -0.023361
 Sum of Mulliken charges =  -1.00000
 Mulliken charges with hydrogens summed into heavy atoms:
               1
     1  C   -0.057378
     2  C   -0.033368
     3  O   -0.355903
     4  O   -0.553352
 Electronic spatial extent (au):  <R**2>=            253.2288
 Charge=             -1.0000 electrons
 Dipole moment (field-independent basis, Debye):
    X=              3.8157    Y=             -1.0048    Z=              0.0000  Tot=              3.9458
 Quadrupole moment (field-independent basis, Debye-Ang):
   XX=            -30.6097   YY=            -33.7881   ZZ=            -24.1584
   XY=              0.3569   XZ=              0.0000   YZ=             -0.0000
 Traceless Quadrupole moment (field-independent basis, Debye-Ang):
   XX=             -1.0910   YY=             -4.2694   ZZ=              5.3604
   XY=              0.3569   XZ=              0.0000   YZ=             -0.0000
 Octapole moment (field-independent basis, Debye-Ang**2):
  XXX=             -6.5229  YYY=             -2.4606  ZZZ=              0.0000  XYY=              3.9449
  XXY=              1.7797  XXZ=              0.0000  XZZ=             -1.5727  YZZ=              0.1285
  YYZ=              0.0000  XYZ=             -0.0000
 Hexadecapole moment (field-independent basis, Debye-Ang**3):
 XXXX=           -185.1542 YYYY=           -131.7284 ZZZZ=            -29.0507 XXXY=              2.8415
 XXXZ=              0.0000 YYYX=              2.1156 YYYZ=             -0.0000 ZZZX=              0.0000
 ZZZY=             -0.0000 XXYY=            -53.5347 XXZZ=            -32.7909 YYZZ=            -24.8004
 XXYZ=             -0.0000 YYXZ=             -0.0000 ZZXY=              1.2287
 N-N= 1.118078164753D+02 E-N=-7.675440148081D+02  KE= 2.259956922183D+02
   1 Symmetry operations used in ECPInt.
 ECPInt:  NShTT=     561 NPrTT=    2077 LenC2=     561 LenP2D=    1814.
 LDataN:  DoStor=T MaxTD1= 5 Len=  102
 Calling FoFJK, ICntrl=      2127 FMM=F ISym2X=0 I1Cent= 0 IOpClX= 0 NMat=1 NMatS=1 NMatT=0.
 ***** Axes restored to original set *****
 -------------------------------------------------------------------
 Center     Atomic                   Forces (Hartrees/Bohr)
 Number     Number              X              Y              Z
 -------------------------------------------------------------------
      1        6          -0.016613781    0.015277235   -0.009053695
      2        6           0.091201986   -0.101120475    0.054924443
      3        8          -0.012623749    0.044976736   -0.016989566
      4        8          -0.052433785    0.047280935   -0.028288062
      5        1          -0.007300633    0.004769654   -0.003389470
      6        1          -0.001460752   -0.005199343    0.002695813
      7        1          -0.000769286   -0.005984741    0.000100537
 -------------------------------------------------------------------
 Cartesian Forces:  Max     0.101120475 RMS     0.038152285

 GradGradGradGradGradGradGradGradGradGradGradGradGradGradGradGradGradGrad
 Berny optimization.
 FormGI is forming the generalized inverse of G from B-inverse, IUseBI=4.
 Internal  Forces:  Max     0.073952492 RMS     0.022518882
 Search for a local minimum.
 Step number   1 out of a maximum of   31
 All quantities printed in internal units (Hartrees-Bohrs-Radians)
 Mixed Optimization -- RFO/linear search
 Second derivative matrix not updated -- first step.
 ITU=  0
     Eigenvalues ---    0.00861   0.00861   0.07473   0.07634   0.16000
     Eigenvalues ---    0.16000   0.16000   0.25000   0.25000   0.33140
     Eigenvalues ---    0.34391   0.34496   0.34496   0.55935   0.95936
 RFO step:  Lambda=-2.45347762D-02 EMin= 8.60677041D-03
 Linear search not attempted -- first point.
 Iteration  1 RMS(Cart)=  0.04066934 RMS(Int)=  0.00267816
 Iteration  2 RMS(Cart)=  0.00315531 RMS(Int)=  0.00019172
 Iteration  3 RMS(Cart)=  0.00000422 RMS(Int)=  0.00019170
 Iteration  4 RMS(Cart)=  0.00000000 RMS(Int)=  0.00019170
 Variable       Old X    -DE/DX   Delta X   Delta X   Delta X     New X
                                 (Linear)    (Quad)   (Total)
    R1        2.82106   0.02477   0.00000   0.06960   0.06960   2.89066
    R2        2.06675   0.00848   0.00000   0.02303   0.02303   2.08978
    R3        2.06501   0.00437   0.00000   0.01182   0.01182   2.07683
    R4        2.06501   0.00436   0.00000   0.01181   0.01181   2.07683
    R5        2.30312   0.03674   0.00000   0.03734   0.03734   2.34046
    R6        2.54310  -0.07395   0.00000  -0.12666  -0.12666   2.41645
    A1        1.90772   0.00734   0.00000   0.04857   0.04830   1.95602
    A2        1.91669  -0.00097   0.00000  -0.00974  -0.01012   1.90658
    A3        1.91670  -0.00097   0.00000  -0.00974  -0.01012   1.90658
    A4        1.89591  -0.00081   0.00000   0.00443   0.00416   1.90007
    A5        1.89592  -0.00081   0.00000   0.00442   0.00416   1.90008
    A6        1.93052  -0.00362   0.00000  -0.03651  -0.03699   1.89353
    A7        2.20885  -0.03634   0.00000  -0.13237  -0.13237   2.07648
    A8        1.96216  -0.00444   0.00000  -0.01616  -0.01616   1.94600
    A9        2.11218   0.04078   0.00000   0.14853   0.14853   2.26071
    D1        0.00001   0.00000   0.00000   0.00000   0.00000   0.00001
    D2       -3.14159   0.00000   0.00000   0.00000   0.00000  -3.14159
    D3       -2.07829  -0.00288   0.00000  -0.02904  -0.02894  -2.10723
    D4        1.06330  -0.00288   0.00000  -0.02904  -0.02894   1.03436
    D5        2.07831   0.00288   0.00000   0.02904   0.02894   2.10725
    D6       -1.06329   0.00288   0.00000   0.02904   0.02894  -1.03435
         Item               Value     Threshold  Converged?
 Maximum Force            0.073952     0.000450     NO 
 RMS     Force            0.022519     0.000300     NO 
 Maximum Displacement     0.105336     0.001800     NO 
 RMS     Displacement     0.040401     0.001200     NO 
 Predicted change in Energy=-1.312722D-02
 GradGradGradGradGradGradGradGradGradGradGradGradGradGradGradGradGradGrad

                          Input orientation:                          
 ---------------------------------------------------------------------
 Center     Atomic      Atomic             Coordinates (Angstroms)
 Number     Number       Type             X           Y           Z
 ---------------------------------------------------------------------
      1          6           0       -0.920765   -0.047045   -0.230917
      2          6           0        0.549349    0.248904    0.070855
      3          8           0        0.991591    1.383479   -0.155172
      4          8           0        1.147227   -0.778822    0.541461
      5          1           0       -1.447197    0.835890   -0.638632
      6          1           0       -1.423283   -0.364973    0.693322
      7          1           0       -0.982807   -0.866234   -0.960918
 ---------------------------------------------------------------------
                    Distance matrix (angstroms):
                    1          2          3          4          5
     1  C    0.000000
     2  C    1.529670   0.000000
     3  O    2.389403   1.238518   0.000000
     4  O    2.325652   1.278729   2.277074   0.000000
     5  H    1.105864   2.198664   2.545835   3.275812   0.000000
     6  H    1.099009   2.157681   3.099781   2.608036   1.793529
     7  H    1.099009   2.157682   3.099788   2.608031   1.793531
                    6          7
     6  H    0.000000
     7  H    1.783758   0.000000
 Stoichiometry    C2H3O2(1-)
 Framework group  C1[X(C2H3O2)]
 Deg. of freedom    15
 Full point group                 C1      NOp   1
 Largest Abelian subgroup         C1      NOp   1
 Largest concise Abelian subgroup C1      NOp   1
                         Standard orientation:                         
 ---------------------------------------------------------------------
 Center     Atomic      Atomic             Coordinates (Angstroms)
 Number     Number       Type             X           Y           Z
 ---------------------------------------------------------------------
      1          6           0        1.316034   -0.152731   -0.000000
      2          6           0       -0.206888   -0.009206   -0.000001
      3          8           0       -0.905847   -1.031646    0.000000
      4          8           0       -0.561792    1.219285    0.000000
      5          1           0        1.633590   -1.212020   -0.000006
      6          1           0        1.726322    0.341260    0.891883
      7          1           0        1.726326    0.341274   -0.891874
 ---------------------------------------------------------------------
 Rotational constants (GHZ):          11.4187819          10.2142148           5.5824544
 Standard basis: def2SVP (5D, 7F)
 There are    75 symmetry adapted cartesian basis functions of A   symmetry.
 There are    71 symmetry adapted basis functions of A   symmetry.
    71 basis functions,   121 primitive gaussians,    75 cartesian basis functions
    16 alpha electrons       16 beta electrons
       nuclear repulsion energy       112.1082543922 Hartrees.
 NAtoms=    7 NActive=    7 NUniq=    7 SFac= 1.00D+00 NAtFMM=   60 NAOKFM=F Big=F
 Integral buffers will be    131072 words long.
 Raffenetti 2 integral format.
 Two-electron integral symmetry is turned on.
 One-electron integrals computed using PRISM.
   1 Symmetry operations used in ECPInt.
 ECPInt:  NShTT=     561 NPrTT=    2077 LenC2=     561 LenP2D=    1813.
 LDataN:  DoStor=T MaxTD1= 4 Len=   56
 NBasis=    71 RedAO= T EigKep=  4.52D-03  NBF=    71
 NBsUse=    71 1.00D-06 EigRej= -1.00D+00 NBFU=    71
 Initial guess from the checkpoint file:  "pka_scale_frag3_pka_A_opt.chk"
 B after Tr=     0.000000    0.000000    0.000000
         Rot=    0.999885    0.000000   -0.000000    0.015184 Ang=   1.74 deg.
 ExpMin= 1.22D-01 ExpMax= 2.27D+03 ExpMxC= 3.41D+02 IAcc=3 IRadAn=         5 AccDes= 0.00D+00
 Harris functional with IExCor= 1009 and IRadAn=       5 diagonalized for initial guess.
 HarFok:  IExCor= 1009 AccDes= 0.00D+00 IRadAn=         5 IDoV= 1 UseB2=F ITyADJ=14
 ICtDFT=  3500011 ScaDFX=  1.000000  1.000000  1.000000  1.000000
 FoFCou: FMM=F IPFlag=           0 FMFlag=      100000 FMFlg1=           0
         NFxFlg=           0 DoJE=T BraDBF=F KetDBF=T FulRan=T
         wScrn=  0.000000 ICntrl=       500 IOpCl=  0 I1Cent=   200000004 NGrid=           0
         NMat0=    1 NMatS0=      1 NMatT0=    0 NMatD0=    1 NMtDS0=    0 NMtDT0=    0
 Petite list used in FoFCou.
 Keep R1 ints in memory in canonical form, NReq=60771749.
 Requested convergence on RMS density matrix=1.00D-08 within 128 cycles.
 Requested convergence on MAX density matrix=1.00D-06.
 Requested convergence on             energy=1.00D-06.
 No special actions if energy rises.
 Integral accuracy reduced to 1.0D-05 until final iterations.
 Initial convergence to 1.0D-05 achieved.  Increase integral accuracy.
 SCF Done:  E(RMN15) =  -228.057336272     A.U. after   15 cycles
            NFock= 15  Conv=0.31D-08     -V/T= 2.0091
   1 Symmetry operations used in ECPInt.
 ECPInt:  NShTT=     561 NPrTT=    2077 LenC2=     561 LenP2D=    1813.
 LDataN:  DoStor=T MaxTD1= 5 Len=  102
 Calling FoFJK, ICntrl=      2127 FMM=F ISym2X=0 I1Cent= 0 IOpClX= 0 NMat=1 NMatS=1 NMatT=0.
 ***** Axes restored to original set *****
 -------------------------------------------------------------------
 Center     Atomic                   Forces (Hartrees/Bohr)
 Number     Number              X              Y              Z
 -------------------------------------------------------------------
      1        6          -0.013950445    0.010139555   -0.006786809
      2        6           0.023692678   -0.037601649    0.017702251
      3        8           0.001012786    0.009580188   -0.002633205
      4        8          -0.009030912    0.024601655   -0.009859177
      5        1           0.000048941   -0.001149356    0.000361201
      6        1          -0.000900448   -0.002769377    0.000660183
      7        1          -0.000872600   -0.002801015    0.000555556
 -------------------------------------------------------------------
 Cartesian Forces:  Max     0.037601649 RMS     0.012974536

 GradGradGradGradGradGradGradGradGradGradGradGradGradGradGradGradGradGrad
 Berny optimization.
 Using GEDIIS/GDIIS optimizer.
 FormGI is forming the generalized inverse of G from B-inverse, IUseBI=4.
 Internal  Forces:  Max     0.027625243 RMS     0.007774942
 Search for a local minimum.
 Step number   2 out of a maximum of   31
 All quantities printed in internal units (Hartrees-Bohrs-Radians)
 Mixed Optimization -- RFO/linear search
 Update second derivatives using D2CorX and points    1    2
 DE= -1.54D-02 DEPred=-1.31D-02 R= 1.17D+00
 TightC=F SS=  1.41D+00  RLast= 2.65D-01 DXNew= 5.0454D-01 7.9499D-01
 Trust test= 1.17D+00 RLast= 2.65D-01 DXMaxT set to 5.05D-01
 ITU=  1  0
 Use linear search instead of GDIIS.
     Eigenvalues ---    0.00861   0.00861   0.07267   0.07539   0.15952
     Eigenvalues ---    0.16000   0.16039   0.21762   0.29020   0.31965
     Eigenvalues ---    0.34464   0.34496   0.35035   0.47209   0.94733
 RFO step:  Lambda=-2.49632264D-03 EMin= 8.60677041D-03
 Quartic linear search produced a step of  0.29110.
 Iteration  1 RMS(Cart)=  0.02847102 RMS(Int)=  0.00041409
 Iteration  2 RMS(Cart)=  0.00051471 RMS(Int)=  0.00010416
 Iteration  3 RMS(Cart)=  0.00000012 RMS(Int)=  0.00010416
 Variable       Old X    -DE/DX   Delta X   Delta X   Delta X     New X
                                 (Linear)    (Quad)   (Total)
    R1        2.89066   0.01543   0.02026   0.04404   0.06430   2.95495
    R2        2.08978  -0.00108   0.00670  -0.00914  -0.00243   2.08735
    R3        2.07683   0.00177   0.00344   0.00394   0.00738   2.08420
    R4        2.07683   0.00177   0.00344   0.00394   0.00738   2.08420
    R5        2.34046   0.00962   0.01087   0.00550   0.01637   2.35683
    R6        2.41645  -0.02763  -0.03687  -0.03709  -0.07396   2.34249
    A1        1.95602   0.00126   0.01406   0.00235   0.01622   1.97224
    A2        1.90658   0.00040  -0.00294   0.00332   0.00018   1.90675
    A3        1.90658   0.00040  -0.00295   0.00332   0.00017   1.90675
    A4        1.90007   0.00010   0.00121   0.00488   0.00591   1.90598
    A5        1.90008   0.00010   0.00121   0.00488   0.00591   1.90598
    A6        1.89353  -0.00240  -0.01077  -0.01959  -0.03057   1.86296
    A7        2.07648  -0.00789  -0.03853  -0.00896  -0.04749   2.02899
    A8        1.94600   0.00948  -0.00470   0.05228   0.04757   1.99357
    A9        2.26071  -0.00159   0.04324  -0.04332  -0.00008   2.26063
    D1        0.00001   0.00000   0.00000  -0.00000  -0.00000   0.00001
    D2       -3.14159   0.00000   0.00000   0.00000   0.00000  -3.14158
    D3       -2.10723  -0.00122  -0.00842  -0.00992  -0.01832  -2.12555
    D4        1.03436  -0.00122  -0.00843  -0.00991  -0.01832   1.01604
    D5        2.10725   0.00122   0.00842   0.00991   0.01832   2.12557
    D6       -1.03435   0.00122   0.00842   0.00992   0.01832  -1.01602
         Item               Value     Threshold  Converged?
 Maximum Force            0.027625     0.000450     NO 
 RMS     Force            0.007775     0.000300     NO 
 Maximum Displacement     0.062699     0.001800     NO 
 RMS     Displacement     0.028234     0.001200     NO 
 Predicted change in Energy=-2.207387D-03
 GradGradGradGradGradGradGradGradGradGradGradGradGradGradGradGradGradGrad

                          Input orientation:                          
 ---------------------------------------------------------------------
 Center     Atomic      Atomic             Coordinates (Angstroms)
 Number     Number       Type             X           Y           Z
 ---------------------------------------------------------------------
      1          6           0       -0.931570   -0.041441   -0.235492
      2          6           0        0.575334    0.226947    0.084429
      3          8           0        0.993223    1.377794   -0.153016
      4          8           0        1.180406   -0.753168    0.542521
      5          1           0       -1.450890    0.844536   -0.642236
      6          1           0       -1.444756   -0.373011    0.682723
      7          1           0       -1.007631   -0.870458   -0.958930
 ---------------------------------------------------------------------
                    Distance matrix (angstroms):
                    1          2          3          4          5
     1  C    0.000000
     2  C    1.563694   0.000000
     3  O    2.392876   1.247181   0.000000
     4  O    2.360572   1.239590   2.249401   0.000000
     5  H    1.104577   2.239429   2.548997   3.298488   0.000000
     6  H    1.102913   2.190587   3.115689   2.656248   1.799437
     7  H    1.102913   2.190587   3.115694   2.656241   1.799438
                    6          7
     6  H    0.000000
     7  H    1.770186   0.000000
 Stoichiometry    C2H3O2(1-)
 Framework group  C1[X(C2H3O2)]
 Deg. of freedom    15
 Full point group                 C1      NOp   1
 Largest Abelian subgroup         C1      NOp   1
 Largest concise Abelian subgroup C1      NOp   1
                         Standard orientation:                         
 ---------------------------------------------------------------------
 Center     Atomic      Atomic             Coordinates (Angstroms)
 Number     Number       Type             X           Y           Z
 ---------------------------------------------------------------------
      1          6           0        1.343778   -0.076677   -0.000000
      2          6           0       -0.217738    0.005838    0.000001
      3          8           0       -0.827654   -1.082033   -0.000000
      4          8           0       -0.665971    1.161550   -0.000000
      5          1           0        1.721133   -1.114797   -0.000008
      6          1           0        1.735812    0.451839    0.885097
      7          1           0        1.735812    0.451854   -0.885089
 ---------------------------------------------------------------------
 Rotational constants (GHZ):          11.5909952          10.0080683           5.5572746
 Standard basis: def2SVP (5D, 7F)
 There are    75 symmetry adapted cartesian basis functions of A   symmetry.
 There are    71 symmetry adapted basis functions of A   symmetry.
    71 basis functions,   121 primitive gaussians,    75 cartesian basis functions
    16 alpha electrons       16 beta electrons
       nuclear repulsion energy       112.1568844201 Hartrees.
 NAtoms=    7 NActive=    7 NUniq=    7 SFac= 1.00D+00 NAtFMM=   60 NAOKFM=F Big=F
 Integral buffers will be    131072 words long.
 Raffenetti 2 integral format.
 Two-electron integral symmetry is turned on.
 One-electron integrals computed using PRISM.
   1 Symmetry operations used in ECPInt.
 ECPInt:  NShTT=     561 NPrTT=    2077 LenC2=     561 LenP2D=    1815.
 LDataN:  DoStor=T MaxTD1= 4 Len=   56
 NBasis=    71 RedAO= T EigKep=  4.94D-03  NBF=    71
 NBsUse=    71 1.00D-06 EigRej= -1.00D+00 NBFU=    71
 Initial guess from the checkpoint file:  "pka_scale_frag3_pka_A_opt.chk"
 B after Tr=    -0.000000   -0.000000   -0.000000
         Rot=    0.999394    0.000000   -0.000000   -0.034803 Ang=   3.99 deg.
 ExpMin= 1.22D-01 ExpMax= 2.27D+03 ExpMxC= 3.41D+02 IAcc=3 IRadAn=         5 AccDes= 0.00D+00
 Harris functional with IExCor= 1009 and IRadAn=       5 diagonalized for initial guess.
 HarFok:  IExCor= 1009 AccDes= 0.00D+00 IRadAn=         5 IDoV= 1 UseB2=F ITyADJ=14
 ICtDFT=  3500011 ScaDFX=  1.000000  1.000000  1.000000  1.000000
 FoFCou: FMM=F IPFlag=           0 FMFlag=      100000 FMFlg1=           0
         NFxFlg=           0 DoJE=T BraDBF=F KetDBF=T FulRan=T
         wScrn=  0.000000 ICntrl=       500 IOpCl=  0 I1Cent=   200000004 NGrid=           0
         NMat0=    1 NMatS0=      1 NMatT0=    0 NMatD0=    1 NMtDS0=    0 NMtDT0=    0
 Petite list used in FoFCou.
 Keep R1 ints in memory in canonical form, NReq=60771749.
 Requested convergence on RMS density matrix=1.00D-08 within 128 cycles.
 Requested convergence on MAX density matrix=1.00D-06.
 Requested convergence on             energy=1.00D-06.
 No special actions if energy rises.
 Integral accuracy reduced to 1.0D-05 until final iterations.
 Initial convergence to 1.0D-05 achieved.  Increase integral accuracy.
 SCF Done:  E(RMN15) =  -228.059087600     A.U. after   13 cycles
            NFock= 13  Conv=0.99D-08     -V/T= 2.0090
   1 Symmetry operations used in ECPInt.
 ECPInt:  NShTT=     561 NPrTT=    2077 LenC2=     561 LenP2D=    1815.
 LDataN:  DoStor=T MaxTD1= 5 Len=  102
 Calling FoFJK, ICntrl=      2127 FMM=F ISym2X=0 I1Cent= 0 IOpClX= 0 NMat=1 NMatS=1 NMatT=0.
 ***** Axes restored to original set *****
 -------------------------------------------------------------------
 Center     Atomic                   Forces (Hartrees/Bohr)
 Number     Number              X              Y              Z
 -------------------------------------------------------------------
      1        6          -0.003370658    0.001762052   -0.001431091
      2        6          -0.003682101    0.009448122   -0.003844012
      3        8          -0.000697076    0.003800212   -0.001336852
      4        8           0.006229239   -0.012728196    0.005515642
      5        1           0.001922626   -0.000866821    0.000774587
      6        1          -0.000163599   -0.000750282    0.000020261
      7        1          -0.000238431   -0.000665088    0.000301463
 -------------------------------------------------------------------
 Cartesian Forces:  Max     0.012728196 RMS     0.004300005

 GradGradGradGradGradGradGradGradGradGradGradGradGradGradGradGradGradGrad
 Berny optimization.
 Using GEDIIS/GDIIS optimizer.
 FormGI is forming the generalized inverse of G from B-inverse, IUseBI=4.
 Internal  Forces:  Max     0.015143657 RMS     0.003564355
 Search for a local minimum.
 Step number   3 out of a maximum of   31
 All quantities printed in internal units (Hartrees-Bohrs-Radians)
 Mixed Optimization -- RFO/linear search
 Update second derivatives using D2CorX and points    1    2    3
 DE= -1.75D-03 DEPred=-2.21D-03 R= 7.93D-01
 TightC=F SS=  1.41D+00  RLast= 1.31D-01 DXNew= 8.4853D-01 3.9248D-01
 Trust test= 7.93D-01 RLast= 1.31D-01 DXMaxT set to 5.05D-01
 ITU=  1  1  0
 Use linear search instead of GDIIS.
     Eigenvalues ---    0.00861   0.00861   0.07088   0.07554   0.15855
     Eigenvalues ---    0.16000   0.16106   0.20337   0.28325   0.32274
     Eigenvalues ---    0.34456   0.34496   0.34914   0.64499   0.93603
 RFO step:  Lambda=-3.03420571D-04 EMin= 8.60677041D-03
 Quartic linear search produced a step of -0.15726.
 Iteration  1 RMS(Cart)=  0.00764730 RMS(Int)=  0.00002798
 Iteration  2 RMS(Cart)=  0.00002404 RMS(Int)=  0.00001036
 Iteration  3 RMS(Cart)=  0.00000000 RMS(Int)=  0.00001036
 Variable       Old X    -DE/DX   Delta X   Delta X   Delta X     New X
                                 (Linear)    (Quad)   (Total)
    R1        2.95495   0.00194  -0.01011   0.01693   0.00682   2.96177
    R2        2.08735  -0.00188   0.00038  -0.00515  -0.00476   2.08258
    R3        2.08420   0.00032  -0.00116   0.00214   0.00098   2.08518
    R4        2.08420   0.00032  -0.00116   0.00214   0.00098   2.08518
    R5        2.35683   0.00353  -0.00257   0.00591   0.00333   2.36016
    R6        2.34249   0.01514   0.01163   0.00971   0.02134   2.36383
    A1        1.97224  -0.00178  -0.00255  -0.00527  -0.00780   1.96444
    A2        1.90675   0.00050  -0.00003   0.00230   0.00229   1.90904
    A3        1.90675   0.00050  -0.00003   0.00230   0.00229   1.90904
    A4        1.90598   0.00074  -0.00093   0.00579   0.00488   1.91086
    A5        1.90598   0.00074  -0.00093   0.00579   0.00488   1.91086
    A6        1.86296  -0.00065   0.00481  -0.01132  -0.00650   1.85646
    A7        2.02899  -0.00216   0.00747  -0.01628  -0.00881   2.02018
    A8        1.99357  -0.00055  -0.00748   0.00729  -0.00019   1.99338
    A9        2.26063   0.00271   0.00001   0.00899   0.00900   2.26963
    D1        0.00001   0.00000   0.00000   0.00001   0.00002   0.00002
    D2       -3.14158  -0.00000  -0.00000  -0.00002  -0.00002   3.14159
    D3       -2.12555  -0.00010   0.00288  -0.00548  -0.00259  -2.12815
    D4        1.01604  -0.00010   0.00288  -0.00551  -0.00263   1.01342
    D5        2.12557   0.00010  -0.00288   0.00551   0.00262   2.12819
    D6       -1.01602   0.00010  -0.00288   0.00548   0.00259  -1.01343
         Item               Value     Threshold  Converged?
 Maximum Force            0.015144     0.000450     NO 
 RMS     Force            0.003564     0.000300     NO 
 Maximum Displacement     0.014811     0.001800     NO 
 RMS     Displacement     0.007645     0.001200     NO 
 Predicted change in Energy=-2.155456D-04
 GradGradGradGradGradGradGradGradGradGradGradGradGradGradGradGradGradGrad

                          Input orientation:                          
 ---------------------------------------------------------------------
 Center     Atomic      Atomic             Coordinates (Angstroms)
 Number     Number       Type             X           Y           Z
 ---------------------------------------------------------------------
      1          6           0       -0.933045   -0.040657   -0.236124
      2          6           0        0.577351    0.228223    0.084569
      3          8           0        0.985901    1.383532   -0.156699
      4          8           0        1.187641   -0.761005    0.546829
      5          1           0       -1.443802    0.847850   -0.641352
      6          1           0       -1.448098   -0.375135    0.680613
      7          1           0       -1.011833   -0.871611   -0.957836
 ---------------------------------------------------------------------
                    Distance matrix (angstroms):
                    1          2          3          4          5
     1  C    0.000000
     2  C    1.567302   0.000000
     3  O    2.391020   1.248944   0.000000
     4  O    2.372599   1.250884   2.265986   0.000000
     5  H    1.102056   2.235164   2.534818   3.305251   0.000000
     6  H    1.103432   2.195849   3.117427   2.667192   1.800918
     7  H    1.103432   2.195849   3.117441   2.667197   1.800918
                    6          7
     6  H    0.000000
     7  H    1.766729   0.000000
 Stoichiometry    C2H3O2(1-)
 Framework group  C1[X(C2H3O2)]
 Deg. of freedom    15
 Full point group                 C1      NOp   1
 Largest Abelian subgroup         C1      NOp   1
 Largest concise Abelian subgroup C1      NOp   1
                         Standard orientation:                         
 ---------------------------------------------------------------------
 Center     Atomic      Atomic             Coordinates (Angstroms)
 Number     Number       Type             X           Y           Z
 ---------------------------------------------------------------------
      1          6           0        1.346249   -0.056643    0.000001
      2          6           0       -0.219980    0.001345   -0.000010
      3          8           0       -0.803779   -1.102757    0.000003
      4          8           0       -0.690429    1.160392    0.000003
      5          1           0        1.731003   -1.089353   -0.000003
      6          1           0        1.732519    0.480026    0.883372
      7          1           0        1.732531    0.480038   -0.883357
 ---------------------------------------------------------------------
 Rotational constants (GHZ):          11.4206693          10.0094547           5.5174990
 Standard basis: def2SVP (5D, 7F)
 There are    75 symmetry adapted cartesian basis functions of A   symmetry.
 There are    71 symmetry adapted basis functions of A   symmetry.
    71 basis functions,   121 primitive gaussians,    75 cartesian basis functions
    16 alpha electrons       16 beta electrons
       nuclear repulsion energy       111.7503608154 Hartrees.
 NAtoms=    7 NActive=    7 NUniq=    7 SFac= 1.00D+00 NAtFMM=   60 NAOKFM=F Big=F
 Integral buffers will be    131072 words long.
 Raffenetti 2 integral format.
 Two-electron integral symmetry is turned on.
 One-electron integrals computed using PRISM.
   1 Symmetry operations used in ECPInt.
 ECPInt:  NShTT=     561 NPrTT=    2077 LenC2=     561 LenP2D=    1810.
 LDataN:  DoStor=T MaxTD1= 4 Len=   56
 NBasis=    71 RedAO= T EigKep=  5.01D-03  NBF=    71
 NBsUse=    71 1.00D-06 EigRej= -1.00D+00 NBFU=    71
 Initial guess from the checkpoint file:  "pka_scale_frag3_pka_A_opt.chk"
 B after Tr=    -0.000000    0.000000    0.000000
         Rot=    0.999961    0.000000    0.000000   -0.008814 Ang=   1.01 deg.
 Keep R1 ints in memory in canonical form, NReq=60771749.
 Requested convergence on RMS density matrix=1.00D-08 within 128 cycles.
 Requested convergence on MAX density matrix=1.00D-06.
 Requested convergence on             energy=1.00D-06.
 No special actions if energy rises.
 SCF Done:  E(RMN15) =  -228.059281287     A.U. after   10 cycles
            NFock= 10  Conv=0.61D-08     -V/T= 2.0092
   1 Symmetry operations used in ECPInt.
 ECPInt:  NShTT=     561 NPrTT=    2077 LenC2=     561 LenP2D=    1810.
 LDataN:  DoStor=T MaxTD1= 5 Len=  102
 Calling FoFJK, ICntrl=      2127 FMM=F ISym2X=0 I1Cent= 0 IOpClX= 0 NMat=1 NMatS=1 NMatT=0.
 ***** Axes restored to original set *****
 -------------------------------------------------------------------
 Center     Atomic                   Forces (Hartrees/Bohr)
 Number     Number              X              Y              Z
 -------------------------------------------------------------------
      1        6          -0.000695053   -0.000477382   -0.000041721
      2        6           0.000544365    0.000219179    0.000083560
      3        8           0.000102714   -0.001067485    0.000349112
      4        8          -0.000863334    0.001601580   -0.000717004
      5        1           0.000927543    0.000023086    0.000239869
      6        1           0.000011819   -0.000171741   -0.000030663
      7        1          -0.000028056   -0.000127237    0.000116847
 -------------------------------------------------------------------
 Cartesian Forces:  Max     0.001601580 RMS     0.000583101

 GradGradGradGradGradGradGradGradGradGradGradGradGradGradGradGradGradGrad
 Berny optimization.
 Using GEDIIS/GDIIS optimizer.
 FormGI is forming the generalized inverse of G from B-inverse, IUseBI=4.
 Internal  Forces:  Max     0.001952204 RMS     0.000612764
 Search for a local minimum.
 Step number   4 out of a maximum of   31
 All quantities printed in internal units (Hartrees-Bohrs-Radians)
 Mixed Optimization -- En-DIIS/RFO-DIIS
 Update second derivatives using D2CorX and points    1    2    3    4
 DE= -1.94D-04 DEPred=-2.16D-04 R= 8.99D-01
 TightC=F SS=  1.41D+00  RLast= 2.97D-02 DXNew= 8.4853D-01 8.9244D-02
 Trust test= 8.99D-01 RLast= 2.97D-02 DXMaxT set to 5.05D-01
 ITU=  1  1  1  0
 Use linear search instead of GDIIS.
     Eigenvalues ---    0.00861   0.00861   0.07120   0.07528   0.14231
     Eigenvalues ---    0.16000   0.16010   0.21527   0.28434   0.32121
     Eigenvalues ---    0.34421   0.34496   0.34779   0.72332   0.98383
 RFO step:  Lambda=-1.67294822D-05 EMin= 8.60677041D-03
 Quartic linear search produced a step of -0.08400.
 Iteration  1 RMS(Cart)=  0.00292465 RMS(Int)=  0.00000843
 Iteration  2 RMS(Cart)=  0.00000757 RMS(Int)=  0.00000079
 Iteration  3 RMS(Cart)=  0.00000000 RMS(Int)=  0.00000079
 Variable       Old X    -DE/DX   Delta X   Delta X   Delta X     New X
                                 (Linear)    (Quad)   (Total)
    R1        2.96177  -0.00014  -0.00057   0.00056  -0.00002   2.96176
    R2        2.08258  -0.00050   0.00040  -0.00191  -0.00151   2.08108
    R3        2.08518   0.00002  -0.00008   0.00020   0.00012   2.08530
    R4        2.08518   0.00002  -0.00008   0.00020   0.00012   2.08530
    R5        2.36016  -0.00102  -0.00028  -0.00044  -0.00072   2.35944
    R6        2.36383  -0.00195  -0.00179  -0.00038  -0.00217   2.36166
    A1        1.96444  -0.00122   0.00066  -0.00821  -0.00755   1.95689
    A2        1.90904   0.00024  -0.00019   0.00178   0.00158   1.91063
    A3        1.90904   0.00024  -0.00019   0.00178   0.00159   1.91063
    A4        1.91086   0.00046  -0.00041   0.00298   0.00257   1.91343
    A5        1.91086   0.00046  -0.00041   0.00298   0.00257   1.91343
    A6        1.85646  -0.00012   0.00055  -0.00091  -0.00036   1.85610
    A7        2.02018   0.00067   0.00074   0.00105   0.00179   2.02197
    A8        1.99338  -0.00021   0.00002  -0.00099  -0.00098   1.99240
    A9        2.26963  -0.00046  -0.00076  -0.00006  -0.00081   2.26882
    D1        0.00002  -0.00000  -0.00000  -0.00012  -0.00012  -0.00010
    D2        3.14159   0.00000   0.00000   0.00013   0.00013  -3.14147
    D3       -2.12815   0.00006   0.00022   0.00034   0.00056  -2.12759
    D4        1.01342   0.00006   0.00022   0.00059   0.00081   1.01422
    D5        2.12819  -0.00006  -0.00022  -0.00057  -0.00080   2.12740
    D6       -1.01343  -0.00006  -0.00022  -0.00033  -0.00055  -1.01398
         Item               Value     Threshold  Converged?
 Maximum Force            0.001952     0.000450     NO 
 RMS     Force            0.000613     0.000300     NO 
 Maximum Displacement     0.010384     0.001800     NO 
 RMS     Displacement     0.002926     0.001200     NO 
 Predicted change in Energy=-1.004146D-05
 GradGradGradGradGradGradGradGradGradGradGradGradGradGradGradGradGradGrad

                          Input orientation:                          
 ---------------------------------------------------------------------
 Center     Atomic      Atomic             Coordinates (Angstroms)
 Number     Number       Type             X           Y           Z
 ---------------------------------------------------------------------
      1          6           0       -0.933590   -0.042178   -0.235794
      2          6           0        0.576539    0.228960    0.084211
      3          8           0        0.985306    1.383797   -0.156978
      4          8           0        1.186862   -0.759029    0.545972
      5          1           0       -1.438307    0.849126   -0.640282
      6          1           0       -1.449493   -0.376524    0.680587
      7          1           0       -1.013201   -0.872955   -0.957717
 ---------------------------------------------------------------------
                    Distance matrix (angstroms):
                    1          2          3          4          5
     1  C    0.000000
     2  C    1.567293   0.000000
     3  O    2.392024   1.248564   0.000000
     4  O    2.370939   1.249736   2.264171   0.000000
     5  H    1.101259   2.229148   2.528509   3.299223   0.000000
     6  H    1.103494   2.197062   3.119054   2.667358   1.801955
     7  H    1.103495   2.197067   3.118997   2.667271   1.801955
                    6          7
     6  H    0.000000
     7  H    1.766588   0.000000
 Stoichiometry    C2H3O2(1-)
 Framework group  C1[X(C2H3O2)]
 Deg. of freedom    15
 Full point group                 C1      NOp   1
 Largest Abelian subgroup         C1      NOp   1
 Largest concise Abelian subgroup C1      NOp   1
                         Standard orientation:                         
 ---------------------------------------------------------------------
 Center     Atomic      Atomic             Coordinates (Angstroms)
 Number     Number       Type             X           Y           Z
 ---------------------------------------------------------------------
      1          6           0        1.346218   -0.062149   -0.000009
      2          6           0       -0.219756    0.002160    0.000076
      3          8           0       -0.809798   -1.098186   -0.000020
      4          8           0       -0.683960    1.162485   -0.000020
      5          1           0        1.718710   -1.098499   -0.000044
      6          1           0        1.736335    0.472003    0.883275
      7          1           0        1.736247    0.472033   -0.883314
 ---------------------------------------------------------------------
 Rotational constants (GHZ):          11.4395339          10.0100018           5.5220346
 Standard basis: def2SVP (5D, 7F)
 There are    75 symmetry adapted cartesian basis functions of A   symmetry.
 There are    71 symmetry adapted basis functions of A   symmetry.
    71 basis functions,   121 primitive gaussians,    75 cartesian basis functions
    16 alpha electrons       16 beta electrons
       nuclear repulsion energy       111.7989694214 Hartrees.
 NAtoms=    7 NActive=    7 NUniq=    7 SFac= 1.00D+00 NAtFMM=   60 NAOKFM=F Big=F
 Integral buffers will be    131072 words long.
 Raffenetti 2 integral format.
 Two-electron integral symmetry is turned on.
 One-electron integrals computed using PRISM.
   1 Symmetry operations used in ECPInt.
 ECPInt:  NShTT=     561 NPrTT=    2077 LenC2=     561 LenP2D=    1810.
 LDataN:  DoStor=T MaxTD1= 4 Len=   56
 NBasis=    71 RedAO= T EigKep=  5.00D-03  NBF=    71
 NBsUse=    71 1.00D-06 EigRej= -1.00D+00 NBFU=    71
 Initial guess from the checkpoint file:  "pka_scale_frag3_pka_A_opt.chk"
 B after Tr=     0.000000    0.000000   -0.000000
         Rot=    0.999997   -0.000001   -0.000003    0.002537 Ang=  -0.29 deg.
 Keep R1 ints in memory in canonical form, NReq=60771749.
 Requested convergence on RMS density matrix=1.00D-08 within 128 cycles.
 Requested convergence on MAX density matrix=1.00D-06.
 Requested convergence on             energy=1.00D-06.
 No special actions if energy rises.
 SCF Done:  E(RMN15) =  -228.059292842     A.U. after    9 cycles
            NFock=  9  Conv=0.52D-08     -V/T= 2.0092
   1 Symmetry operations used in ECPInt.
 ECPInt:  NShTT=     561 NPrTT=    2077 LenC2=     561 LenP2D=    1810.
 LDataN:  DoStor=T MaxTD1= 5 Len=  102
 Calling FoFJK, ICntrl=      2127 FMM=F ISym2X=0 I1Cent= 0 IOpClX= 0 NMat=1 NMatS=1 NMatT=0.
 ***** Axes restored to original set *****
 -------------------------------------------------------------------
 Center     Atomic                   Forces (Hartrees/Bohr)
 Number     Number              X              Y              Z
 -------------------------------------------------------------------
      1        6          -0.000336636   -0.000132561   -0.000038659
      2        6          -0.000004737    0.000144856   -0.000085774
      3        8          -0.000101080   -0.000357755    0.000095188
      4        8           0.000132993    0.000188973   -0.000007082
      5        1           0.000185663    0.000123620    0.000012822
      6        1           0.000074046   -0.000000815   -0.000042718
      7        1           0.000049751    0.000033681    0.000066224
 -------------------------------------------------------------------
 Cartesian Forces:  Max     0.000357755 RMS     0.000142543

 GradGradGradGradGradGradGradGradGradGradGradGradGradGradGradGradGradGrad
 Berny optimization.
 Using GEDIIS/GDIIS optimizer.
 FormGI is forming the generalized inverse of G from B-inverse, IUseBI=4.
 Internal  Forces:  Max     0.000383038 RMS     0.000147256
 Search for a local minimum.
 Step number   5 out of a maximum of   31
 All quantities printed in internal units (Hartrees-Bohrs-Radians)
 Mixed Optimization -- En-DIIS/RFO-DIIS
 Swapping is turned off.
 Update second derivatives using D2CorX and points    1    2    3    4    5
 DE= -1.16D-05 DEPred=-1.00D-05 R= 1.15D+00
 TightC=F SS=  1.41D+00  RLast= 9.47D-03 DXNew= 8.4853D-01 2.8413D-02
 Trust test= 1.15D+00 RLast= 9.47D-03 DXMaxT set to 5.05D-01
 ITU=  1  1  1  1  0
     Eigenvalues ---    0.00861   0.00861   0.07166   0.07467   0.10756
     Eigenvalues ---    0.15899   0.16000   0.22745   0.29419   0.31727
     Eigenvalues ---    0.34426   0.34496   0.35386   0.74974   0.94430
 En-DIIS/RFO-DIIS/Sim-DIIS IScMMF=       -3 using points:     5    4
 RFO step:  Lambda=-2.34890188D-06.
 DidBck=F Rises=F RFO-DIIS coefs:    1.33665   -0.33665
 Iteration  1 RMS(Cart)=  0.00159299 RMS(Int)=  0.00000269
 Iteration  2 RMS(Cart)=  0.00000250 RMS(Int)=  0.00000061
 Iteration  3 RMS(Cart)=  0.00000000 RMS(Int)=  0.00000061
 Variable       Old X    -DE/DX   Delta X   Delta X   Delta X     New X
                                 (Linear)    (Quad)   (Total)
    R1        2.96176   0.00002  -0.00001   0.00034   0.00033   2.96209
    R2        2.08108   0.00001  -0.00051   0.00036  -0.00014   2.08094
    R3        2.08530  -0.00007   0.00004  -0.00024  -0.00020   2.08511
    R4        2.08530  -0.00007   0.00004  -0.00025  -0.00021   2.08510
    R5        2.35944  -0.00038  -0.00024  -0.00018  -0.00042   2.35903
    R6        2.36166  -0.00009  -0.00073   0.00051  -0.00022   2.36144
    A1        1.95689  -0.00031  -0.00254  -0.00067  -0.00321   1.95368
    A2        1.91063   0.00001   0.00053  -0.00025   0.00028   1.91091
    A3        1.91063   0.00000   0.00053  -0.00031   0.00022   1.91085
    A4        1.91343   0.00015   0.00087   0.00045   0.00132   1.91475
    A5        1.91343   0.00015   0.00087   0.00046   0.00132   1.91476
    A6        1.85610   0.00003  -0.00012   0.00038   0.00025   1.85635
    A7        2.02197  -0.00012   0.00060  -0.00141  -0.00081   2.02116
    A8        1.99240   0.00031  -0.00033   0.00172   0.00139   1.99379
    A9        2.26882  -0.00019  -0.00027  -0.00031  -0.00058   2.26824
    D1       -0.00010   0.00001  -0.00004   0.00131   0.00127   0.00117
    D2       -3.14147  -0.00001   0.00004  -0.00141  -0.00136   3.14035
    D3       -2.12759   0.00003   0.00019   0.00136   0.00154  -2.12604
    D4        1.01422   0.00001   0.00027  -0.00136  -0.00108   1.01314
    D5        2.12740  -0.00001  -0.00027   0.00122   0.00095   2.12835
    D6       -1.01398  -0.00003  -0.00019  -0.00149  -0.00167  -1.01565
         Item               Value     Threshold  Converged?
 Maximum Force            0.000383     0.000450     YES
 RMS     Force            0.000147     0.000300     YES
 Maximum Displacement     0.004637     0.001800     NO 
 RMS     Displacement     0.001593     0.001200     NO 
 Predicted change in Energy=-1.174453D-06
 GradGradGradGradGradGradGradGradGradGradGradGradGradGradGradGradGradGrad

                          Input orientation:                          
 ---------------------------------------------------------------------
 Center     Atomic      Atomic             Coordinates (Angstroms)
 Number     Number       Type             X           Y           Z
 ---------------------------------------------------------------------
      1          6           0       -0.934044   -0.042790   -0.235878
      2          6           0        0.576403    0.228349    0.083488
      3          8           0        0.983756    1.383614   -0.156900
      4          8           0        1.187909   -0.758163    0.546529
      5          1           0       -1.435853    0.850267   -0.639911
      6          1           0       -1.449838   -0.376791    0.680565
      7          1           0       -1.014217   -0.873288   -0.957894
 ---------------------------------------------------------------------
                    Distance matrix (angstroms):
                    1          2          3          4          5
     1  C    0.000000
     2  C    1.567470   0.000000
     3  O    2.391406   1.248343   0.000000
     4  O    2.372047   1.249621   2.263559   0.000000
     5  H    1.101183   2.226940   2.524335   3.298305   0.000000
     6  H    1.103390   2.197351   3.118133   2.668543   1.802644
     7  H    1.103386   2.197306   3.118829   2.669438   1.802645
                    6          7
     6  H    0.000000
     7  H    1.766585   0.000000
 Stoichiometry    C2H3O2(1-)
 Framework group  C1[X(C2H3O2)]
 Deg. of freedom    15
 Full point group                 C1      NOp   1
 Largest Abelian subgroup         C1      NOp   1
 Largest concise Abelian subgroup C1      NOp   1
                         Standard orientation:                         
 ---------------------------------------------------------------------
 Center     Atomic      Atomic             Coordinates (Angstroms)
 Number     Number       Type             X           Y           Z
 ---------------------------------------------------------------------
      1          6           0        1.346730   -0.058586    0.000095
      2          6           0       -0.219569    0.001960   -0.000833
      3          8           0       -0.805968   -1.100081    0.000219
      4          8           0       -0.688130    1.160409    0.000217
      5          1           0        1.718362   -1.095165    0.000394
      6          1           0        1.735239    0.476222    0.883561
      7          1           0        1.736219    0.476072   -0.883024
 ---------------------------------------------------------------------
 Rotational constants (GHZ):          11.4430136          10.0096911           5.5227511
 Standard basis: def2SVP (5D, 7F)
 There are    75 symmetry adapted cartesian basis functions of A   symmetry.
 There are    71 symmetry adapted basis functions of A   symmetry.
    71 basis functions,   121 primitive gaussians,    75 cartesian basis functions
    16 alpha electrons       16 beta electrons
       nuclear repulsion energy       111.8080498012 Hartrees.
 NAtoms=    7 NActive=    7 NUniq=    7 SFac= 1.00D+00 NAtFMM=   60 NAOKFM=F Big=F
 Integral buffers will be    131072 words long.
 Raffenetti 2 integral format.
 Two-electron integral symmetry is turned on.
 One-electron integrals computed using PRISM.
   1 Symmetry operations used in ECPInt.
 ECPInt:  NShTT=     561 NPrTT=    2077 LenC2=     561 LenP2D=    1810.
 LDataN:  DoStor=T MaxTD1= 4 Len=   56
 NBasis=    71 RedAO= T EigKep=  4.99D-03  NBF=    71
 NBsUse=    71 1.00D-06 EigRej= -1.00D+00 NBFU=    71
 Initial guess from the checkpoint file:  "pka_scale_frag3_pka_A_opt.chk"
 B after Tr=     0.000000   -0.000000   -0.000000
         Rot=    0.999999    0.000007    0.000031   -0.001419 Ang=   0.16 deg.
 Keep R1 ints in memory in canonical form, NReq=60771749.
 Requested convergence on RMS density matrix=1.00D-08 within 128 cycles.
 Requested convergence on MAX density matrix=1.00D-06.
 Requested convergence on             energy=1.00D-06.
 No special actions if energy rises.
 SCF Done:  E(RMN15) =  -228.059293756     A.U. after    9 cycles
            NFock=  9  Conv=0.42D-08     -V/T= 2.0092
   1 Symmetry operations used in ECPInt.
 ECPInt:  NShTT=     561 NPrTT=    2077 LenC2=     561 LenP2D=    1810.
 LDataN:  DoStor=T MaxTD1= 5 Len=  102
 Calling FoFJK, ICntrl=      2127 FMM=F ISym2X=0 I1Cent= 0 IOpClX= 0 NMat=1 NMatS=1 NMatT=0.
 ***** Axes restored to original set *****
 -------------------------------------------------------------------
 Center     Atomic                   Forces (Hartrees/Bohr)
 Number     Number              X              Y              Z
 -------------------------------------------------------------------
      1        6          -0.000001411   -0.000066113   -0.000099236
      2        6          -0.000168805    0.000105537    0.000368837
      3        8           0.000031380   -0.000004007   -0.000140631
      4        8           0.000100918   -0.000087519   -0.000108616
      5        1           0.000012884    0.000009488   -0.000008607
      6        1           0.000037175    0.000030908   -0.000000903
      7        1          -0.000012141    0.000011705   -0.000010844
 -------------------------------------------------------------------
 Cartesian Forces:  Max     0.000368837 RMS     0.000107656

 GradGradGradGradGradGradGradGradGradGradGradGradGradGradGradGradGradGrad
 Berny optimization.
 Using GEDIIS/GDIIS optimizer.
 FormGI is forming the generalized inverse of G from B-inverse, IUseBI=4.
 Internal  Forces:  Max     0.000122999 RMS     0.000063108
 Search for a local minimum.
 Step number   6 out of a maximum of   31
 All quantities printed in internal units (Hartrees-Bohrs-Radians)
 Mixed Optimization -- En-DIIS/RFO-DIIS
 Swapping is turned off.
 Update second derivatives using D2CorX and points    1    2    3    4    5
                                                      6
 DE= -9.15D-07 DEPred=-1.17D-06 R= 7.79D-01
 TightC=F SS=  1.41D+00  RLast= 5.30D-03 DXNew= 8.4853D-01 1.5898D-02
 Trust test= 7.79D-01 RLast= 5.30D-03 DXMaxT set to 5.05D-01
 ITU=  1  1  1  1  1  0
     Eigenvalues ---    0.00861   0.01146   0.07121   0.07306   0.09661
     Eigenvalues ---    0.15882   0.16280   0.22866   0.29148   0.31577
     Eigenvalues ---    0.34316   0.34522   0.35723   0.72967   0.95021
 En-DIIS/RFO-DIIS/Sim-DIIS IScMMF=       -3 using points:     6    5    4
 RFO step:  Lambda=-5.15467933D-06.
 DidBck=T Rises=F RFO-DIIS coefs:    0.24397    1.21534   -0.45931
 Iteration  1 RMS(Cart)=  0.00047993 RMS(Int)=  0.00000062
 Iteration  2 RMS(Cart)=  0.00000045 RMS(Int)=  0.00000047
 Variable       Old X    -DE/DX   Delta X   Delta X   Delta X     New X
                                 (Linear)    (Quad)   (Total)
    R1        2.96209  -0.00001  -0.00026   0.00030   0.00005   2.96213
    R2        2.08094   0.00001  -0.00058   0.00054  -0.00004   2.08090
    R3        2.08511  -0.00003   0.00020  -0.00023  -0.00002   2.08508
    R4        2.08510  -0.00000   0.00021  -0.00023  -0.00002   2.08508
    R5        2.35903   0.00003  -0.00001  -0.00002  -0.00003   2.35899
    R6        2.36144   0.00008  -0.00083   0.00089   0.00005   2.36150
    A1        1.95368  -0.00003  -0.00104   0.00062  -0.00042   1.95325
    A2        1.91091  -0.00005   0.00051  -0.00050   0.00001   1.91092
    A3        1.91085   0.00004   0.00056  -0.00049   0.00007   1.91092
    A4        1.91475   0.00002   0.00019  -0.00002   0.00017   1.91492
    A5        1.91476  -0.00001   0.00018  -0.00002   0.00016   1.91492
    A6        1.85635   0.00002  -0.00036   0.00039   0.00003   1.85638
    A7        2.02116  -0.00005   0.00143  -0.00154  -0.00011   2.02105
    A8        1.99379   0.00006  -0.00150   0.00164   0.00014   1.99393
    A9        2.26824  -0.00001   0.00007  -0.00010  -0.00003   2.26821
    D1        0.00117  -0.00011  -0.00101  -0.00016  -0.00117   0.00000
    D2        3.14035   0.00010   0.00109   0.00017   0.00125  -3.14158
    D3       -2.12604  -0.00008  -0.00091  -0.00020  -0.00111  -2.12715
    D4        1.01314   0.00012   0.00119   0.00012   0.00131   1.01445
    D5        2.12835  -0.00011  -0.00109  -0.00011  -0.00120   2.12715
    D6       -1.01565   0.00010   0.00101   0.00021   0.00123  -1.01443
         Item               Value     Threshold  Converged?
 Maximum Force            0.000123     0.000450     YES
 RMS     Force            0.000063     0.000300     YES
 Maximum Displacement     0.001307     0.001800     YES
 RMS     Displacement     0.000480     0.001200     YES
 Predicted change in Energy=-6.776870D-07
 Optimization completed.
    -- Stationary point found.
                           ----------------------------
                           !   Optimized Parameters   !
                           ! (Angstroms and Degrees)  !
 --------------------------                            --------------------------
 ! Name  Definition              Value          Derivative Info.                !
 --------------------------------------------------------------------------------
 ! R1    R(1,2)                  1.5675         -DE/DX =    0.0                 !
 ! R2    R(1,5)                  1.1012         -DE/DX =    0.0                 !
 ! R3    R(1,6)                  1.1034         -DE/DX =    0.0                 !
 ! R4    R(1,7)                  1.1034         -DE/DX =    0.0                 !
 ! R5    R(2,3)                  1.2483         -DE/DX =    0.0                 !
 ! R6    R(2,4)                  1.2496         -DE/DX =    0.0001              !
 ! A1    A(2,1,5)              111.9374         -DE/DX =    0.0                 !
 ! A2    A(2,1,6)              109.487          -DE/DX =    0.0                 !
 ! A3    A(2,1,7)              109.4838         -DE/DX =    0.0                 !
 ! A4    A(5,1,6)              109.7071         -DE/DX =    0.0                 !
 ! A5    A(5,1,7)              109.7076         -DE/DX =    0.0                 !
 ! A6    A(6,1,7)              106.361          -DE/DX =    0.0                 !
 ! A7    A(1,2,3)              115.8038         -DE/DX =    0.0                 !
 ! A8    A(1,2,4)              114.2356         -DE/DX =    0.0001              !
 ! A9    A(3,2,4)              129.9604         -DE/DX =    0.0                 !
 ! D1    D(5,1,2,3)              0.0669         -DE/DX =   -0.0001              !
 ! D2    D(5,1,2,4)           -180.0712         -DE/DX =    0.0001              !
 ! D3    D(6,1,2,3)           -121.8133         -DE/DX =   -0.0001              !
 ! D4    D(6,1,2,4)             58.0486         -DE/DX =    0.0001              !
 ! D5    D(7,1,2,3)            121.9455         -DE/DX =   -0.0001              !
 ! D6    D(7,1,2,4)            -58.1926         -DE/DX =    0.0001              !
 --------------------------------------------------------------------------------
 GradGradGradGradGradGradGradGradGradGradGradGradGradGradGradGradGradGrad

                          Input orientation:                          
 ---------------------------------------------------------------------
 Center     Atomic      Atomic             Coordinates (Angstroms)
 Number     Number       Type             X           Y           Z
 ---------------------------------------------------------------------
      1          6           0       -0.934044   -0.042790   -0.235878
      2          6           0        0.576403    0.228349    0.083488
      3          8           0        0.983756    1.383614   -0.156900
      4          8           0        1.187909   -0.758163    0.546529
      5          1           0       -1.435853    0.850267   -0.639911
      6          1           0       -1.449838   -0.376791    0.680565
      7          1           0       -1.014217   -0.873288   -0.957894
 ---------------------------------------------------------------------
                    Distance matrix (angstroms):
                    1          2          3          4          5
     1  C    0.000000
     2  C    1.567470   0.000000
     3  O    2.391406   1.248343   0.000000
     4  O    2.372047   1.249621   2.263559   0.000000
     5  H    1.101183   2.226940   2.524335   3.298305   0.000000
     6  H    1.103390   2.197351   3.118133   2.668543   1.802644
     7  H    1.103386   2.197306   3.118829   2.669438   1.802645
                    6          7
     6  H    0.000000
     7  H    1.766585   0.000000
 Stoichiometry    C2H3O2(1-)
 Framework group  C1[X(C2H3O2)]
 Deg. of freedom    15
 Full point group                 C1      NOp   1
 Largest Abelian subgroup         C1      NOp   1
 Largest concise Abelian subgroup C1      NOp   1
                         Standard orientation:                         
 ---------------------------------------------------------------------
 Center     Atomic      Atomic             Coordinates (Angstroms)
 Number     Number       Type             X           Y           Z
 ---------------------------------------------------------------------
      1          6           0        1.346730   -0.058586    0.000095
      2          6           0       -0.219569    0.001960   -0.000833
      3          8           0       -0.805968   -1.100081    0.000219
      4          8           0       -0.688130    1.160409    0.000217
      5          1           0        1.718362   -1.095165    0.000394
      6          1           0        1.735239    0.476222    0.883561
      7          1           0        1.736219    0.476072   -0.883024
 ---------------------------------------------------------------------
 Rotational constants (GHZ):          11.4430136          10.0096911           5.5227511

 **********************************************************************

            Population analysis using the SCF Density.

 **********************************************************************

 Orbital symmetries:
       Occupied  (A) (A) (A) (A) (A) (A) (A) (A) (A) (A) (A) (A)
                 (A) (A) (A) (A)
       Virtual   (A) (A) (A) (A) (A) (A) (A) (A) (A) (A) (A) (A)
                 (A) (A) (A) (A) (A) (A) (A) (A) (A) (A) (A) (A)
                 (A) (A) (A) (A) (A) (A) (A) (A) (A) (A) (A) (A)
                 (A) (A) (A) (A) (A) (A) (A) (A) (A) (A) (A) (A)
                 (A) (A) (A) (A) (A) (A) (A)
 The electronic state is 1-A.
 Alpha  occ. eigenvalues --  -18.51349 -18.51071  -9.90775  -9.84853  -0.81196
 Alpha  occ. eigenvalues --   -0.72317  -0.54329  -0.30744  -0.26842  -0.25718
 Alpha  occ. eigenvalues --   -0.23557  -0.19755  -0.18046  -0.05206  -0.04507
 Alpha  occ. eigenvalues --   -0.04179
 Alpha virt. eigenvalues --    0.28652   0.30775   0.34457   0.37654   0.45678
 Alpha virt. eigenvalues --    0.52403   0.60358   0.67009   0.74007   0.77254
 Alpha virt. eigenvalues --    0.78417   0.83579   0.86213   0.88518   0.88577
 Alpha virt. eigenvalues --    0.90606   0.94351   1.04431   1.18239   1.19433
 Alpha virt. eigenvalues --    1.26778   1.32672   1.37309   1.40849   1.47658
 Alpha virt. eigenvalues --    1.54530   1.69709   1.72615   1.79445   1.86048
 Alpha virt. eigenvalues --    1.87140   1.90378   1.98608   1.99721   2.09750
 Alpha virt. eigenvalues --    2.21454   2.24360   2.33670   2.40331   2.54340
 Alpha virt. eigenvalues --    2.59989   2.62633   2.86963   2.91796   2.93641
 Alpha virt. eigenvalues --    2.93862   2.99526   3.03476   3.04450   3.22815
 Alpha virt. eigenvalues --    3.40577   3.49417   3.57475   3.80320   3.90222
          Condensed to atoms (all electrons):
               1          2          3          4          5          6
     1  C    5.255791   0.215847  -0.165753  -0.169634   0.253553   0.306799
     2  C    0.215847   4.467264   0.659589   0.629205   0.014369   0.004994
     3  O   -0.165753   0.659589   7.984904  -0.086739   0.021671   0.004016
     4  O   -0.169634   0.629205  -0.086739   8.035151   0.008935   0.009434
     5  H    0.253553   0.014369   0.021671   0.008935   0.795621  -0.017817
     6  H    0.306799   0.004994   0.004016   0.009434  -0.017817   0.752638
     7  H    0.306349   0.005120   0.004053   0.009423  -0.017793  -0.017849
               7
     1  C    0.306349
     2  C    0.005120
     3  O    0.004053
     4  O    0.009423
     5  H   -0.017793
     6  H   -0.017849
     7  H    0.753081
 Mulliken charges:
               1
     1  C   -0.002952
     2  C    0.003611
     3  O   -0.421742
     4  O   -0.435776
     5  H   -0.058540
     6  H   -0.042216
     7  H   -0.042385
 Sum of Mulliken charges =  -1.00000
 Mulliken charges with hydrogens summed into heavy atoms:
               1
     1  C   -0.146093
     2  C    0.003611
     3  O   -0.421742
     4  O   -0.435776
 Electronic spatial extent (au):  <R**2>=            254.8877
 Charge=             -1.0000 electrons
 Dipole moment (field-independent basis, Debye):
    X=              3.1510    Y=             -0.0996    Z=             -0.0014  Tot=              3.1525
 Quadrupole moment (field-independent basis, Debye-Ang):
   XX=            -31.0163   YY=            -33.6502   ZZ=            -24.4504
   XY=             -0.0181   XZ=              0.0019   YZ=              0.0003
 Traceless Quadrupole moment (field-independent basis, Debye-Ang):
   XX=             -1.3107   YY=             -3.9446   ZZ=              5.2553
   XY=             -0.0181   XZ=              0.0019   YZ=              0.0003
 Octapole moment (field-independent basis, Debye-Ang**2):
  XXX=             -8.6852  YYY=             -0.5410  ZZZ=              0.0036  XYY=              4.0532
  XXY=              1.0236  XXZ=              0.0017  XZZ=             -2.3798  YZZ=              0.2783
  YYZ=              0.0012  XYZ=              0.0006
 Hexadecapole moment (field-independent basis, Debye-Ang**3):
 XXXX=           -189.2320 YYYY=           -133.0645 ZZZZ=            -29.8062 XXXY=              0.9439
 XXXZ=              0.0020 YYYX=              0.4128 YYYZ=              0.0005 ZZZX=              0.0000
 ZZZY=              0.0013 XXYY=            -53.9507 XXZZ=            -34.0815 YYZZ=            -25.1554
 XXYZ=              0.0012 YYXZ=              0.0001 ZZXY=              0.6437
 N-N= 1.118080498012D+02 E-N=-7.674269256184D+02  KE= 2.259851635582D+02
 1\1\GINC-CHPC-CN078\FOpt\RMN15\def2SVP\C2H3O2(1-)\S1155246976\10-Jun-2
 026\0\\# opt freq mn15 def2svp\\Gaussian pKa calculation job\\-1,1\C,-
 0.9340438998,-0.0427896325,-0.2358784852\C,0.5764031525,0.2283489283,0
 .0834880282\O,0.9837563753,1.3836137393,-0.1568998873\O,1.1879089495,-
 0.7581634412,0.5465287926\H,-1.4358530694,0.8502669994,-0.6399110435\H
 ,-1.4498383548,-0.3767910355,0.6805652259\H,-1.0142173077,-0.873287752
 7,-0.9578936113\\Version=ES64L-G16RevB.01\State=1-A\HF=-228.0592938\RM
 SD=4.158e-09\RMSF=1.077e-04\Dipole=-1.1939352,-0.223132,-0.2511795\Qua
 drupole=-0.7105773,-2.3121998,3.0227771,-0.0936319,-1.2036875,1.859161
 4\PG=C01 [X(C2H3O2)]\\@


 ONE THORN OF EXPERIENCE IS WORTH A WHOLE WILDERNESS OF
 WARNING....  LOWELL - AMONG MY BOOKS
 Job cpu time:       0 days  0 hours  6 minutes 28.4 seconds.
 Elapsed time:       0 days  0 hours  0 minutes  7.2 seconds.
 File lengths (MBytes):  RWF=      6 Int=      0 D2E=      0 Chk=      2 Scr=      1
 Normal termination of Gaussian 16 at Wed Jun 10 15:27:12 2026.
 Link1:  Proceeding to internal job step number  2.
 ------------------------------------------------------------------
 #N Geom=AllCheck Guess=TCheck SCRF=Check GenChk RMN15/def2SVP Freq
 ------------------------------------------------------------------
 1/10=4,29=7,30=1,38=1,40=1/1,3;
 2/12=2,40=1/2;
 3/5=43,7=101,11=2,14=-4,25=1,30=1,70=2,71=2,74=-73,116=1,140=1/1,2,3;
 4/5=101/1;
 5/5=2,38=6,98=1/2;
 8/6=4,10=90,11=11/1;
 11/6=1,8=1,9=11,15=111,16=1/1,2,10;
 10/6=1/2;
 6/7=2,8=2,9=2,10=2,28=1/1;
 7/8=1,10=1,25=1/1,2,3,16;
 1/10=4,30=1/3;
 99//99;
 Structure from the checkpoint file:  "pka_scale_frag3_pka_A_opt.chk"
 ----------------------------
 Gaussian pKa calculation job
 ----------------------------
 Charge = -1 Multiplicity = 1
 Redundant internal coordinates found in file.  (old form).
 C,0,-0.9340438998,-0.0427896325,-0.2358784852
 C,0,0.5764031525,0.2283489283,0.0834880282
 O,0,0.9837563753,1.3836137393,-0.1568998873
 O,0,1.1879089495,-0.7581634412,0.5465287926
 H,0,-1.4358530694,0.8502669994,-0.6399110435
 H,0,-1.4498383548,-0.3767910355,0.6805652259
 H,0,-1.0142173077,-0.8732877527,-0.9578936113
 Recover connectivity data from disk.

 GradGradGradGradGradGradGradGradGradGradGradGradGradGradGradGradGradGrad
 Berny optimization.
 Initialization pass.
                           ----------------------------
                           !    Initial Parameters    !
                           ! (Angstroms and Degrees)  !
 --------------------------                            --------------------------
 ! Name  Definition              Value          Derivative Info.                !
 --------------------------------------------------------------------------------
 ! R1    R(1,2)                  1.5675         calculate D2E/DX2 analytically  !
 ! R2    R(1,5)                  1.1012         calculate D2E/DX2 analytically  !
 ! R3    R(1,6)                  1.1034         calculate D2E/DX2 analytically  !
 ! R4    R(1,7)                  1.1034         calculate D2E/DX2 analytically  !
 ! R5    R(2,3)                  1.2483         calculate D2E/DX2 analytically  !
 ! R6    R(2,4)                  1.2496         calculate D2E/DX2 analytically  !
 ! A1    A(2,1,5)              111.9374         calculate D2E/DX2 analytically  !
 ! A2    A(2,1,6)              109.487          calculate D2E/DX2 analytically  !
 ! A3    A(2,1,7)              109.4838         calculate D2E/DX2 analytically  !
 ! A4    A(5,1,6)              109.7071         calculate D2E/DX2 analytically  !
 ! A5    A(5,1,7)              109.7076         calculate D2E/DX2 analytically  !
 ! A6    A(6,1,7)              106.361          calculate D2E/DX2 analytically  !
 ! A7    A(1,2,3)              115.8038         calculate D2E/DX2 analytically  !
 ! A8    A(1,2,4)              114.2356         calculate D2E/DX2 analytically  !
 ! A9    A(3,2,4)              129.9604         calculate D2E/DX2 analytically  !
 ! D1    D(5,1,2,3)              0.0669         calculate D2E/DX2 analytically  !
 ! D2    D(5,1,2,4)            179.9288         calculate D2E/DX2 analytically  !
[...]
     6   1    -0.62  -0.06   0.15    -0.52   0.12   0.20     0.17   0.50  -0.40
     7   1     0.62   0.06   0.15    -0.52   0.12  -0.20     0.17   0.50   0.40
                     10                     11                     12
                      A                      A                      A
 Frequencies --   1423.0214              1430.0192              1837.9968
 Red. masses --      1.0543                 5.3722                11.5401
 Frc consts  --      1.2578                 6.4727                22.9694
 IR Inten    --      0.5468               284.3318               485.1867
  Atom  AN      X      Y      Z        X      Y      Z        X      Y      Z
     1   6     0.00  -0.00  -0.06    -0.06   0.04  -0.00    -0.00  -0.04   0.00
     2   6    -0.00   0.00  -0.02     0.43  -0.04  -0.00     0.05   0.82  -0.00
     3   8     0.00   0.00   0.00    -0.15  -0.21   0.00    -0.14  -0.29   0.00
     4   8     0.00  -0.00   0.00    -0.14   0.25   0.00     0.11  -0.30  -0.00
     5   1    -0.00  -0.00   0.75     0.36   0.19   0.01     0.24   0.10   0.00
     6   1     0.28  -0.37   0.06    -0.05  -0.43   0.25    -0.12  -0.05   0.08
     7   1    -0.28   0.37   0.06    -0.05  -0.42  -0.25    -0.12  -0.05  -0.08
                     13                     14                     15
                      A                      A                      A
 Frequencies --   3036.9107              3125.1896              3148.8841
 Red. masses --      1.0334                 1.1018                 1.1071
 Frc consts  --      5.6155                 6.3402                 6.4678
 IR Inten    --     34.9687                65.7985                75.6924
  Atom  AN      X      Y      Z        X      Y      Z        X      Y      Z
     1   6     0.05   0.01   0.00     0.00   0.00  -0.09     0.00  -0.09  -0.00
     2   6    -0.00   0.00  -0.00     0.00   0.00  -0.00    -0.00  -0.00   0.00
     3   8     0.00   0.00  -0.00    -0.00  -0.00   0.00     0.00   0.00  -0.00
     4   8     0.00  -0.00  -0.00     0.00  -0.00   0.00     0.00   0.00   0.00
     5   1    -0.17   0.52  -0.00     0.00  -0.00  -0.02    -0.27   0.79  -0.00
     6   1    -0.19  -0.29  -0.48     0.24   0.35   0.56     0.13   0.17   0.31
     7   1    -0.19  -0.29   0.48    -0.24  -0.35   0.56     0.13   0.17  -0.31

 -------------------
 - Thermochemistry -
 -------------------
 Temperature   298.150 Kelvin.  Pressure   1.00000 Atm.
 Atom     1 has atomic number  6 and mass  12.00000
 Atom     2 has atomic number  6 and mass  12.00000
 Atom     3 has atomic number  8 and mass  15.99491
 Atom     4 has atomic number  8 and mass  15.99491
 Atom     5 has atomic number  1 and mass   1.00783
 Atom     6 has atomic number  1 and mass   1.00783
 Atom     7 has atomic number  1 and mass   1.00783
 Molecular mass:    59.01330 amu.
 Principal axes and moments of inertia in atomic units:
                           1         2         3
     Eigenvalues --   157.71555 180.29939 326.78301
           X            0.99928  -0.03783   0.00002
           Y            0.03783   0.99928  -0.00000
           Z           -0.00002   0.00000   1.00000
 This molecule is an asymmetric top.
 Rotational symmetry number  1.
 Rotational temperatures (Kelvin)      0.54918     0.48039     0.26505
 Rotational constants (GHZ):          11.44301    10.00969     5.52275
 Zero-point vibrational energy     126645.7 (Joules/Mol)
                                   30.26905 (Kcal/Mol)
 Warning -- explicit consideration of   3 degrees of freedom as
           vibrations may cause significant error
 Vibrational temperatures:     56.80   589.50   852.89   906.30  1276.23
          (Kelvin)           1365.32  1438.21  1814.19  2018.73  2047.41
                             2057.48  2644.47  4369.44  4496.45  4530.54
 
 Zero-point correction=                           0.048237 (Hartree/Particle)
 Thermal correction to Energy=                    0.052708
 Thermal correction to Enthalpy=                  0.053652
 Thermal correction to Gibbs Free Energy=         0.020675
 Sum of electronic and zero-point Energies=           -228.011057
 Sum of electronic and thermal Energies=              -228.006586
 Sum of electronic and thermal Enthalpies=            -228.005642
 Sum of electronic and thermal Free Energies=         -228.038619
 
                     E (Thermal)             CV                S
                      KCal/Mol        Cal/Mol-Kelvin    Cal/Mol-Kelvin
 Total                   33.075             13.229             69.407
 Electronic               0.000              0.000              0.000
 Translational            0.889              2.981             38.146
 Rotational               0.889              2.981             23.745
 Vibrational             31.297              7.267              7.516
 Vibration     1          0.594              1.981              5.285
 Vibration     2          0.774              1.449              0.928
 Vibration     3          0.950              1.047              0.462
                       Q            Log10(Q)             Ln(Q)
 Total Bot       0.309253D-09         -9.509686        -21.896862
 Total V=0       0.476080D+13         12.677680         29.191436
 Vib (Bot)       0.502950D-21        -21.298475        -49.041551
 Vib (Bot)    1  0.524126D+01          0.719435          1.656561
 Vib (Bot)    2  0.431902D+00         -0.364615         -0.839558
 Vib (Bot)    3  0.253759D+00         -0.595578         -1.371369
 Vib (V=0)       0.774268D+01          0.888891          2.046747
 Vib (V=0)    1  0.576505D+01          0.760803          1.751814
 Vib (V=0)    2  0.116071D+01          0.064724          0.149033
 Vib (V=0)    3  0.106071D+01          0.025596          0.058937
 Electronic      0.100000D+01          0.000000          0.000000
 Translational   0.178188D+08          7.250879         16.695765
 Rotational      0.345072D+05          4.537910         10.448923
 ***** Axes restored to original set *****
 -------------------------------------------------------------------
 Center     Atomic                   Forces (Hartrees/Bohr)
 Number     Number              X              Y              Z
 -------------------------------------------------------------------
      1        6          -0.000001412   -0.000066111   -0.000099238
      2        6          -0.000168807    0.000105550    0.000368833
      3        8           0.000031379   -0.000004013   -0.000140630
      4        8           0.000100920   -0.000087522   -0.000108614
      5        1           0.000012886    0.000009485   -0.000008605
      6        1           0.000037175    0.000030908   -0.000000901
      7        1          -0.000012141    0.000011704   -0.000010845
 -------------------------------------------------------------------
 Cartesian Forces:  Max     0.000368833 RMS     0.000107656
 FormGI is forming the generalized inverse of G from B-inverse, IUseBI=4.

 GradGradGradGradGradGradGradGradGradGradGradGradGradGradGradGradGradGrad
 Berny optimization.
 Internal  Forces:  Max     0.000123000 RMS     0.000063108
 Search for a local minimum.
 Step number   1 out of a maximum of    2
 All quantities printed in internal units (Hartrees-Bohrs-Radians)
 Second derivative matrix not updated -- analytic derivatives used.
 ITU=  0
     Eigenvalues ---    0.00009   0.04901   0.05196   0.07658   0.09934
     Eigenvalues ---    0.10236   0.12131   0.18485   0.23238   0.33727
     Eigenvalues ---    0.33901   0.34539   0.34787   0.65994   0.82170
 Angle between quadratic step and forces=  22.79 degrees.
 Linear search not attempted -- first point.
 Iteration  1 RMS(Cart)=  0.00051835 RMS(Int)=  0.00000060
 Iteration  2 RMS(Cart)=  0.00000049 RMS(Int)=  0.00000039
 Variable       Old X    -DE/DX   Delta X   Delta X   Delta X     New X
                                 (Linear)    (Quad)   (Total)
    R1        2.96209  -0.00001   0.00000  -0.00006  -0.00006   2.96203
    R2        2.08094   0.00001   0.00000  -0.00000  -0.00000   2.08093
    R3        2.08511  -0.00003   0.00000  -0.00006  -0.00006   2.08505
    R4        2.08510  -0.00000   0.00000  -0.00005  -0.00005   2.08505
    R5        2.35903   0.00003   0.00000   0.00007   0.00007   2.35910
    R6        2.36144   0.00008   0.00000   0.00009   0.00009   2.36153
    A1        1.95368  -0.00003   0.00000  -0.00045  -0.00045   1.95322
    A2        1.91091  -0.00005   0.00000   0.00002   0.00002   1.91093
    A3        1.91085   0.00004   0.00000   0.00007   0.00007   1.91093
    A4        1.91475   0.00002   0.00000   0.00003   0.00003   1.91478
    A5        1.91476  -0.00001   0.00000   0.00001   0.00001   1.91477
    A6        1.85635   0.00002   0.00000   0.00036   0.00036   1.85671
    A7        2.02116  -0.00005   0.00000  -0.00023  -0.00023   2.02093
    A8        1.99379   0.00006   0.00000   0.00031   0.00030   1.99409
    A9        2.26824  -0.00001   0.00000  -0.00007  -0.00007   2.26816
    D1        0.00117  -0.00011   0.00000  -0.00123  -0.00123  -0.00006
    D2        3.14035   0.00010   0.00000   0.00119   0.00119   3.14154
    D3       -2.12604  -0.00008   0.00000  -0.00098  -0.00098  -2.12702
    D4        1.01314   0.00012   0.00000   0.00144   0.00144   1.01458
    D5        2.12835  -0.00011   0.00000  -0.00146  -0.00146   2.12689
    D6       -1.01565   0.00010   0.00000   0.00095   0.00095  -1.01470
         Item               Value     Threshold  Converged?
 Maximum Force            0.000123     0.000450     YES
 RMS     Force            0.000063     0.000300     YES
 Maximum Displacement     0.001342     0.001800     YES
 RMS     Displacement     0.000518     0.001200     YES
 Predicted change in Energy=-4.109515D-07
 Optimization completed.
    -- Stationary point found.
                           ----------------------------
                           !   Optimized Parameters   !
                           ! (Angstroms and Degrees)  !
 --------------------------                            --------------------------
 ! Name  Definition              Value          Derivative Info.                !
 --------------------------------------------------------------------------------
 ! R1    R(1,2)                  1.5675         -DE/DX =    0.0                 !
 ! R2    R(1,5)                  1.1012         -DE/DX =    0.0                 !
 ! R3    R(1,6)                  1.1034         -DE/DX =    0.0                 !
 ! R4    R(1,7)                  1.1034         -DE/DX =    0.0                 !
 ! R5    R(2,3)                  1.2483         -DE/DX =    0.0                 !
 ! R6    R(2,4)                  1.2496         -DE/DX =    0.0001              !
 ! A1    A(2,1,5)              111.9374         -DE/DX =    0.0                 !
 ! A2    A(2,1,6)              109.487          -DE/DX =    0.0                 !
 ! A3    A(2,1,7)              109.4838         -DE/DX =    0.0                 !
 ! A4    A(5,1,6)              109.7071         -DE/DX =    0.0                 !
 ! A5    A(5,1,7)              109.7076         -DE/DX =    0.0                 !
 ! A6    A(6,1,7)              106.361          -DE/DX =    0.0                 !
 ! A7    A(1,2,3)              115.8038         -DE/DX =    0.0                 !
 ! A8    A(1,2,4)              114.2356         -DE/DX =    0.0001              !
 ! A9    A(3,2,4)              129.9604         -DE/DX =    0.0                 !
 ! D1    D(5,1,2,3)              0.0669         -DE/DX =   -0.0001              !
 ! D2    D(5,1,2,4)            179.9288         -DE/DX =    0.0001              !
 ! D3    D(6,1,2,3)           -121.8133         -DE/DX =   -0.0001              !
 ! D4    D(6,1,2,4)             58.0486         -DE/DX =    0.0001              !
 ! D5    D(7,1,2,3)            121.9455         -DE/DX =   -0.0001              !
 ! D6    D(7,1,2,4)            -58.1926         -DE/DX =    0.0001              !
 --------------------------------------------------------------------------------
 GradGradGradGradGradGradGradGradGradGradGradGradGradGradGradGradGradGrad


 ----------------------------------------------------------------------

 Electric dipole moment (input orientation):
 (Debye = 10**-18 statcoulomb cm , SI units = C m)
                  (au)            (Debye)         (10**-30 SI)
   Tot        0.124031D+01      0.315254D+01      0.105158D+02
   x         -0.119394D+01     -0.303468D+01     -0.101226D+02
   y         -0.223132D+00     -0.567145D+00     -0.189179D+01
   z         -0.251180D+00     -0.638435D+00     -0.212959D+01

 Dipole polarizability, Alpha (input orientation).
 (esu units = cm**3 , SI units = C**2 m**2 J**-1)
 Alpha(0;0):
               (au)            (10**-24 esu)      (10**-40 SI)
   iso        0.286461D+02      0.424491D+01      0.472310D+01
   aniso      0.106361D+02      0.157610D+01      0.175365D+01
   xx         0.300268D+02      0.444951D+01      0.495075D+01
   yx         0.530512D+00      0.786138D-01      0.874696D-01
   yy         0.326370D+02      0.483630D+01      0.538111D+01
   zx         0.204274D+01      0.302703D+00      0.336803D+00
   zy        -0.314806D+01     -0.466494D+00     -0.519045D+00
   zz         0.232744D+02      0.344892D+01      0.383744D+01

 ----------------------------------------------------------------------

 Dipole orientation:
     6          0.03576524         -0.25569667          1.80391254
     6          0.03588899         -0.23465771         -1.15810126
     8          0.33538870         -2.32990103         -2.19985899
     8         -0.27282502          1.90323890         -2.11230241
     1          0.31013160         -2.17182716          2.56775658
     1         -1.76404497          0.52967563          2.50500997
     1          1.54041738          1.00420161          2.50840494

 Electric dipole moment (dipole orientation):
 (Debye = 10**-18 statcoulomb cm , SI units = C m)
                  (au)            (Debye)         (10**-30 SI)
   Tot        0.124031D+01      0.315254D+01      0.105158D+02
   x          0.000000D+00      0.000000D+00      0.000000D+00
   y          0.000000D+00      0.000000D+00      0.000000D+00
   z          0.124031D+01      0.315254D+01      0.105158D+02

 Dipole polarizability, Alpha (dipole orientation).
 (esu units = cm**3 , SI units = C**2 m**2 J**-1)
 Alpha(0;0):
               (au)            (10**-24 esu)      (10**-40 SI)
   iso        0.286461D+02      0.424491D+01      0.472310D+01
   aniso      0.106361D+02      0.157610D+01      0.175365D+01
   xx         0.220139D+02      0.326212D+01      0.362960D+01
   yx        -0.166044D+01     -0.246052D+00     -0.273770D+00
   yy         0.333392D+02      0.494036D+01      0.549689D+01
   zx        -0.360826D-01     -0.534689D-02     -0.594922D-02
   zy         0.254317D+00      0.376859D-01      0.419312D-01
   zz         0.305851D+02      0.453225D+01      0.504281D+01

 ----------------------------------------------------------------------
 1\1\GINC-CHPC-CN078\Freq\RMN15\def2SVP\C2H3O2(1-)\S1155246976\10-Jun-2
 026\0\\#N Geom=AllCheck Guess=TCheck SCRF=Check GenChk RMN15/def2SVP F
 req\\Gaussian pKa calculation job\\-1,1\C,-0.9340438998,-0.0427896325,
 -0.2358784852\C,0.5764031525,0.2283489283,0.0834880282\O,0.9837563753,
 1.3836137393,-0.1568998873\O,1.1879089495,-0.7581634412,0.5465287926\H
 ,-1.4358530694,0.8502669994,-0.6399110435\H,-1.4498383548,-0.376791035
 5,0.6805652259\H,-1.0142173077,-0.8732877527,-0.9578936113\\Version=ES
 64L-G16RevB.01\State=1-A\HF=-228.0592938\RMSD=6.839e-10\RMSF=1.077e-04
 \ZeroPoint=0.0482368\Thermal=0.0527081\Dipole=-1.1939352,-0.2231319,-0
 .2511795\DipoleDeriv=-0.4884783,-0.1418594,-0.1298971,-0.1509558,0.172
 7209,-0.0432961,-0.1264487,-0.040859,0.1404446,1.6449321,0.1086078,0.3
 787792,0.1042865,1.6828029,-0.4521734,0.3804747,-0.4509192,0.3371427,-
 0.9503548,-0.3758096,-0.0099688,-0.2747641,-1.4008993,0.2042911,-0.040
 9549,0.1763343,-0.5499624,-1.0973567,0.35406,-0.2577481,0.2689867,-1.1
 939238,0.2720126,-0.2326858,0.2955768,-0.6838426,-0.0722561,0.0862827,
 -0.0482232,0.1358416,-0.1327544,0.0795938,-0.0632229,0.0664162,-0.0263
 312,-0.0536995,-0.0282931,0.083041,-0.0459459,0.0015148,0.0814968,0.13
 31446,0.071837,-0.1385716,0.0172133,-0.0029883,-0.015983,-0.037449,-0.
 1294611,-0.1419247,-0.050307,-0.1183862,-0.0788794\Polar=30.0267959,0.
 5305121,32.6369639,2.0427441,-3.1480592,23.2744405\Quadrupole=-0.71057
 73,-2.3121998,3.0227772,-0.093632,-1.2036874,1.8591614\PG=C01 [X(C2H3O
 2)]\NImag=0\\0.41650319,-0.03667402,0.58086980,-0.01794986,-0.02639565
 ,0.52922003,-0.11833453,-0.00700424,-0.00682428,0.54038436,-0.01047325
 ,-0.06471437,-0.00874217,-0.02206207,1.01128990,-0.00581764,-0.0078427
 8,-0.08356261,0.08623821,-0.23857591,0.33851907,-0.02761369,-0.0429192
 3,-0.00072235,-0.17601627,-0.16841215,0.02448967,0.16882797,-0.0279271
 6,-0.02114396,0.00611755,-0.16070218,-0.52928418,0.09389003,0.19489423
 ,0.63466156,-0.00523834,0.00215153,0.02170712,0.02213562,0.09173217,-0
 .09884837,-0.02079413,-0.13210716,0.06035824,-0.03999561,0.03298935,-0
 .02579126,-0.24283189,0.20007073,-0.10373460,0.04223227,0.00211367,0.0
 0321212,0.24944495,0.01802996,-0.00144933,0.01108138,0.19131516,-0.403
 41673,0.14868090,0.02403795,-0.08751146,0.04138752,-0.23633142,0.48601
 971,-0.02123737,0.01506457,0.00893514,-0.10111189,0.15110716,-0.154802
 58,-0.00342704,0.03546882,0.01613222,0.13030184,-0.20146016,0.12609880
 ,-0.09469180,0.09970459,-0.04314514,-0.00108681,0.03126948,-0.00884006
 ,0.00329067,-0.00437124,0.00221128,-0.01179894,-0.00073193,-0.00374741
 ,0.09877273,0.10210381,-0.23047206,0.08304838,-0.00340129,-0.00061327,
 -0.00176866,-0.00036129,0.00270025,-0.00092707,-0.00019814,0.00312243,
 -0.00006717,-0.11018483,0.24453807,-0.04387088,0.08241004,-0.08264829,
 0.00166184,0.00744798,-0.00527053,0.00099599,-0.00199813,0.00081235,-0
 .00390446,-0.00020446,0.00210835,0.04807286,-0.09021024,0.08364713,-0.
 09790298,-0.03412487,0.11125164,-0.00648186,-0.00796708,0.02848953,-0.
 00452954,-0.00302374,-0.00474342,0.00235313,0.00098770,-0.00501624,0.0
 0595348,0.00307127,-0.01284429,0.10049347,-0.03577461,-0.06489719,0.07
 277312,-0.00161382,-0.00493751,0.00744900,-0.00287401,-0.00044040,-0.0
 0287125,0.00136043,0.00067477,-0.00106848,-0.01280561,-0.00476991,0.01
 920454,0.04052287,0.06733727,0.10553039,0.07081760,-0.23351539,-0.0063
 5061,0.00058764,0.00569713,0.00065545,-0.00137231,-0.00016731,0.001282
 34,-0.00181792,0.00083674,0.00420152,0.00065738,-0.00739087,-0.1145169
 1,-0.07586213,0.25069940,-0.03796459,-0.01197158,-0.01681874,0.0043669
 9,-0.02242567,-0.02082510,-0.00619141,-0.00098357,0.00321687,0.0005960
 8,0.00269259,0.00423812,-0.00043932,0.00897048,0.00988895,0.00011429,0
 .01118474,0.00919782,0.03951796,-0.00928473,-0.19819290,-0.13788260,0.
 00346845,-0.00832384,-0.00183257,-0.00436550,0.00101821,0.00063426,-0.
 00000463,0.00256060,0.00095527,-0.00288046,-0.01450550,-0.01664972,0.0
 0053385,0.00703297,0.00698974,0.01253301,0.21041046,-0.01141629,-0.136
 20532,-0.16013599,0.00425112,-0.00355686,-0.00173211,-0.00119759,0.000
 00121,0.00000575,-0.00136597,0.00233275,0.00069134,0.00124696,0.009267
 38,0.00874186,-0.00262030,-0.01962479,-0.01615969,0.01110207,0.1477856
 2,0.16858885\\0.00000141,0.00006611,0.00009924,0.00016881,-0.00010555,
 -0.00036883,-0.00003138,0.00000401,0.00014063,-0.00010092,0.00008752,0
 .00010861,-0.00001289,-0.00000948,0.00000861,-0.00003717,-0.00003091,0
 .00000090,0.00001214,-0.00001170,0.00001084\\\@


 MY GROUP MEETINGS AREN'T VERY STRUCTURED.
     -- PROF. M. S. GORDON, OCT. 5, 1984
 Job cpu time:       0 days  0 hours  3 minutes 12.4 seconds.
 Elapsed time:       0 days  0 hours  0 minutes  3.2 seconds.
 File lengths (MBytes):  RWF=      8 Int=      0 D2E=      0 Chk=      2 Scr=      1
 Normal termination of Gaussian 16 at Wed Jun 10 15:27:16 2026.
     8 Int=      0 D2E=      0 Chk=      2 Scr=      1
 Normal termination of Gaussian 16 at Wed Jun 10 15:27:15 2026.
