
                                 *****************
                                 * O   R   C   A *
                                 *****************

                                            #,                                       
                                            ###                                      
                                            ####                                     
                                            #####                                    
                                            ######                                   
                                           ########,                                 
                                     ,,################,,,,,                         
                               ,,#################################,,                 
                          ,,##########################################,,             
                       ,#########################################, ''#####,          
                    ,#############################################,,   '####,        
                  ,##################################################,,,,####,       
                ,###########''''           ''''###############################       
              ,#####''   ,,,,##########,,,,          '''####'''          '####       
            ,##' ,,,,###########################,,,                        '##       
           ' ,,###''''                  '''############,,,                           
         ,,##''                                '''############,,,,        ,,,,,,###''
      ,#''                                            '''#######################'''  
     '                                                          ''''####''''         
             ,#######,   #######,   ,#######,      ##                                
            ,#'     '#,  ##    ##  ,#'     '#,    #''#        ,####,    ,#,          
            ##       ##  ##   ,#'  ##            #'  '#       #'       ,# #          
            ##       ##  #######   ##           ,######,      #####,      #          
            '#,     ,#'  ##    ##  '#,     ,#' ,#      #,     #,   #      #          
             '#######'   ##     ##  '#######'  #'      '#     '####' #    #          



                #########################################################
                #                        -***-                          #
                #          Department of theory and spectroscopy        #
                #                                                       #
                #                      Frank Neese                      #
                #                                                       #
                #     Directorship, Architecture, Infrastructure        #
                #                    SHARK, DRIVERS                     #
                #        Core code/Algorithms in most modules           #
                #                                                       #
                #        Max Planck Institute fuer Kohlenforschung      #
                #                Kaiser Wilhelm Platz 1                 #
                #                 D-45470 Muelheim/Ruhr                 #
                #                      Germany                          #
                #                                                       #
                #                  All rights reserved                  #
                #                        -***-                          #
                #########################################################


                         Program Version 6.1.0  -  RELEASE   -
                                (GIT: $679e74b$)
                          ($2025-06-10 18:02:51 +0200$)


 With contributions from (in alphabetic order):
[Max-Planck-Institut fuer Kohlenforschung]                               
  Daniel Aravena         : Magnetic Suceptibility                        
  Michael Atanasov       : Ab Initio Ligand Field Theory (pilot matlab implementation)
  Alexander A. Auer      : GIAO ZORA, VPT2 properties, NMR spectrum      
  Ute Becker             : All parallelization in ORCA, NUMFREQ, NUMCALC 
  Giovanni Bistoni       : ED, misc. LED, open-shell LED, HFLD           
  Dmytro Bykov           : pre 5.0 version of the SCF Hessian            
  Marcos Casanova-Páez   : Triplet and SCS-CIS(D). UHF-(DLPNO)-IP/EA/STEOM-CCSD. UHF-CVS-IP/STEOM-CCSD   
  Vijay G. Chilkuri      : MRCI spin determinant printing, contributions to CSF-ICE 
  Pauline Colinet        : FMM embedding                                 
  Dipayan Datta          : RHF DLPNO-CCSD density                        
  Achintya Kumar Dutta   : EOM-CC, STEOM-CC                              
  Nicolas Foglia         : Exact transition moments, OPA infrastructure, MCD improvements    
  Dmitry Ganyushin       : Spin-Orbit,Spin-Spin,Magnetic field MRCI      
  Miquel Garcia-Rates    : C-PCM and meta-GGA Hessian, CCSD/C-PCM, Gaussian charge scheme 
  Tiago L. C. Gouveia    : GS-ROHF, GS-ROCIS                             
  Yang Guo               : DLPNO-NEVPT2, F12-NEVPT2, CIM, IAO-localization        
  Andreas Hansen         : Spin unrestricted coupled pair/coupled cluster methods 
  Ingolf Harden          : AUTO-CI MPn and infrastructure                
  Benjamin Helmich-Paris : MC-RPA, TRAH-(SCF,CASSCF), AVAS, COSX integrals, SCF dyn. polar., MC-PDFT, srDFT 
  Lee Huntington         : MR-EOM, pCC                                   
  Robert Izsak           : Overlap fitted RIJCOSX, COSX-SCS-MP3, EOM     
  Riya Kayal             : Wick's Theorem for AUTO-CI, AUTO-CI UHF-CCSDT 
  Emily Kempfer          : AUTO-CI RHF CISDT and CCSDT, approximate NEVPT4
  Christian Kollmar      : KDIIS, OOCD, Brueckner-CCSD(T), CCSD density, CASPT2, CASPT2-K, improved NEVPT2 
  Axel Koslowski         : Symmetry handling                             
  Simone Kossmann        : meta-GGA functionals, TD-DFT gradient, OOMP2, (MP2 Hessian; deprecated post 5.0) 
  Lucas Lang             : DCDCAS, Hyperfine gauge corrections, ICE-SOC+SSC
  Marvin Lechner         : AUTO-CI (C++ implementation), FIC-MRCC        
  Spencer Leger          : CASSCF response                               
  Dagmar Lenk            : GEPOL surface, SMD, ORCA-2-JSON               
  Dimitrios Liakos       : Extrapolation schemes; Compound Job, Property file
  Dimitrios Manganas     : Further ROCIS development; embedding schemes. LFT, Crystal Embedding 
  Dimitrios Pantazis     : SARC Basis sets                               
  Anastasios Papadopoulos: AUTO-CI, single reference methods and gradients 
  Taras Petrenko         : pre 6.0 DFT Hessian and TD-DFT gradient,  ECA, NRVS 
  Petra Pikulova         : Analytic Raman intensities                    
  Peter Pinski           : DLPNO-MP2, DLPNO-MP2 Gradient                 
  Shashank Vittal Rao    : ES-AILFT, MagRelax                            
  Christoph Reimann      : Effective Core Potentials                     
  Marius Retegan         : Local ZFS, SOC                                
  Christoph Riplinger    : Optimizer, TS searches, QM/MM, DLPNO-CCSD(T), (RO)-DLPNO pert. Triples 
  Michael Roemelt        : Original ROCIS implementation, recursive CI coupling coefficients
  Masaaki Saitow         : Open-shell DLPNO-CCSD energy and density      
  Barbara Sandhoefer     : DKH picture change effects                    
  Yorick L. A. Schmerwitz: GMF and freeze-and-release deltaSCF, NEB S-IDPP initial path                    
  Kantharuban Sivalingam : CASSCF convergence/infrastructure, NEVPT2, NEVPT3, NEVPT4(SD), FIC-MRCI and CEPA variants
  Bernardo de Souza      : ESD, SOC TD-DFT                               
  Georgi L. Stoychev     : AutoAux, RI-MP2 NMR, DLPNO-MP2 response, X2C  
  Van Anh Tran           : RI-MP2 g-tensors                              
  Willem Van den Heuvel  : Paramagnetic NMR                              
  Zikuan Wang            : NOTCH, Electric field optimization            
  Frank Wennmohs         : Technical directorship and infrastructure     
  Hang Xu                : AUTO-CI-Response properties                   
                                                                         
[FACCTs GmbH]                                                            
  Markus Bursch, Nicolas Foglia, Miquel Garcia-Rates, Ingolf Harden, Hagen Neugebauer, Anastasios Papadopoulos, 
  Christoph Riplinger, Bernardo de Souza, Georgi L. Stoychev                                                    
                                                                 
  APM, various basis sets, CI-OPT, improved COSX, DLPNO-Multilevel,           
  DOCKER, DRACO, updates on ESD, Fragmentator, GOAT, IRC, LR-CPCM, L-BFGS, MBIS, meta-GGA TD-DFT gradient, ML-optimized integration grids, 
  MM, NACMEs, nearIR, NEB, NEB-TS, NL-DFT gradient (VV10), 2- and 3-layer-ONIOM, interface openCOSMO-RS, QMMM,   
  Crystal-QMMM, RESP, rigid body optimization, SF, symmetry and pop. for TD-DFT, various functionals, SOLVATOR                                   
                                                                         
[Other institutions]                                                     
  V. Asgeirsson          : NEB                                           
  Christoph Bannwarth    : sTDA-DFT, sTD-DFT, PBEh-3c, B97-3c, D3        
  Giovanni Bistoni       : ETS/NOCV, ADLD/ADEX, COVALED                  
  Martin Brehm           : Molecular dynamics                            
  Ronald Cardenas        : ETS/NOCV                                      
  Martina Colucci        : COVALED                                       
  Sebastian Ehlert       : rSCAN, r2SCAN, r2SCAN-3c, D4, dhf basis sets  
  Marvin Friede          : D4 for Fr, Ra, Ac-Lr                          
  Lars Goerigk           : TD-DFT with DH, B97 family of functionals     
  Stefan Grimme          : VdW corrections, initial TS optimization, DFT functionals, gCP, sTDA/sTD-DF 
  Waldemar Hujo          : DFT-NL                                        
  H. Jonsson             : NEB                                           
  Holger Kruse           : gCP                                           
  Marcel Mueller         : wB97X-3c, vDZP basis set                      
  Hagen Neugebauer       : wr2SCAN, Native XTB                           
  Gianluca Regni         : ADLD/ADEX                                     
  Tobias Risthaus        : pre 6.0 range-separated hybrid DFT and stability analysis
  Lukas Wittmann         : regularized MP2, r2SCAN double-hybrids, wr2SCAN        
                                                                         
We gratefully acknowledge several colleagues who have allowed us to      
interface, adapt or use parts of their codes:                            
  Ed Valeev, F. Pavosevic, A. Kumar             : LibInt (2-el integral package), F12 methods 
  Garnet Chan, S. Sharma, J. Yang, R. Olivares  : DMRG                   
  Ulf Ekstrom                                   : XCFun DFT Library      
  Mihaly Kallay                                 : mrcc  (arbitrary order and MRCC methods)
  Frank Weinhold                                : gennbo (NPA and NBO analysis)           
  Simon Mueller                                 : openCOSMO-RS                            
  Christopher J. Cramer and Donald G. Truhlar   : smd solvation model                     
  S Lehtola, MJT Oliveira, MAL Marques          : LibXC Library                           
  Liviu Ungur et al                             : ANISO software                          


 Your calculation uses the libint2 library for the computation of 2-el integrals
 For citations please refer to: http://libint.valeyev.net

 Your ORCA version has been built with support for libXC version: 7.0.0
 For citations please refer to: https://libxc.gitlab.io

 This ORCA versions uses:
   CBLAS   interface :  Fast vector & matrix operations
   LAPACKE interface :  Fast linear algebra routines
   SCALAPACK package :  Parallel linear algebra routines
   Shared memory     :  Shared parallel matrices
   BLAS/LAPACK       :  OpenBLAS 0.3.29  USE64BITINT DYNAMIC_ARCH NO_AFFINITY Cooperlake SINGLE_THREADED
        Core in use  :  Cooperlake
   Copyright (c) 2011-2014, The OpenBLAS Project


  ***********************************
  * Starting time: Wed Jun 10 15:34:05 2026
  * Host name:     chpc-cn081.rc.cuhk.edu.hk
  * Process ID:    153628
  * Working dir.:  /lustre/project/xlzhang/jingyi/chemsmart/test_pka/orca
  ***********************************

NOTE: MaxCore=2109 MB was set to SCF,MP2,MDCI,CIPSI,MRCI,RASCI and CIS
      => If you want to overwrite this, your respective input block should be placed after the MaxCore statement
XCFun DFT library Copyright 2009-2010 Ulf Ekstrom and contributors.
See http://admol.org/xcfun for more information.
This is free software; see the source code for copying conditions.
There is ABSOLUTELY NO WARRANTY; not even for MERCHANTABILITY or FITNESS FOR A PARTICULAR PURPOSE.
For details see the documentation.
Scientific users of this library should cite U. Ekstrom, L. Visscher, R. Bast, A. J. Thorvaldsen and K. Ruud;
J.Chem.Theor.Comp. 2010, DOI: 10.1021/ct100117s
XCFun Version 0.99 

Warning: RI is on but no J-basis has been assigned. Assigning Def2/J (nothing to worry about!)
================================================================================

----- Orbital basis set information -----
Your calculation utilizes the basis: def2-SVP
   F. Weigend and R. Ahlrichs, Phys. Chem. Chem. Phys. 7, 3297 (2005).

----- AuxJ basis set information -----
Your calculation utilizes the auxiliary basis: def2/J
   H-Rn: F. Weigend, Phys. Chem. Chem. Phys. 8, 1057 (2006).
   Fr-Lr: K. Eichkorn, F. Weigend, O. Treutler, R. Ahlrichs; Theor. Chem. Acc. 97, 119 (1997).

================================================================================
                                        WARNINGS
                       Please study these warnings very carefully!
================================================================================

WARNING: Functional chosen is sensitive to the integration grid.
         DEFGRID3 seems to be a minimum grid for robust results!

WARNING: Geometry Optimization
  ===> : Switching off AutoStart
         For restart on a previous wavefunction, please use MOREAD

================================================================================
                                       INPUT FILE
================================================================================
NAME = /lustre/project/xlzhang/jingyi/chemsmart/test_pka/orca/pka_scale_frag3_pka_A_opt.inp
|  1> ! Opt Freq M062X def2-SVP defgrid2
|  2> # Number of processors
|  3> %pal nprocs 64 end
|  4> # Memory per core
|  5> %maxcore 2109
|  6> * xyz -1 1
|  7> C       -0.9335433255   -0.0600627498   -0.2303758313
|  8> C        0.4936076142    0.2789326841    0.0469143517
|  9> O        1.0325253107    1.3566292976   -0.1361364056
| 10> O        1.1814013696   -0.7644700621    0.5462122720
| 11> H       -1.4426868599    0.8202986055   -0.6327062184
| 12> H       -1.4304568177   -0.3575832070    0.6962707506
| 13> H       -0.9867314458   -0.8625467632   -0.9701798996
| 14> *
| 15> 
| 16>                          ****END OF INPUT****
================================================================================

                       *****************************
                       * Geometry Optimization Run *
                       *****************************

Geometry optimization settings:
Update method            Update   .... BFGS
Choice of coordinates    CoordSys .... (2022) Redundant Internals
Initial Hessian          InHess   .... Almloef's Model
Max. no of cycles        MaxIter  .... 50

Convergence Tolerances:
Energy Change            TolE     ....  5.0000e-06 Eh
Max. Gradient            TolMAXG  ....  3.0000e-04 Eh/bohr
RMS Gradient             TolRMSG  ....  1.0000e-04 Eh/bohr
Max. Displacement        TolMAXD  ....  4.0000e-03 bohr
RMS Displacement         TolRMSD  ....  2.0000e-03 bohr
Strict Convergence                .... False

------------------------------------------------------------------------------
                        ORCA OPTIMIZATION COORDINATE SETUP
------------------------------------------------------------------------------

The optimization will be done in redundant internal coordinates (2022)
Making redundant internal coordinates   ...  (2022 redundants) done
Evaluating the initial hessian          ...  (Almloef) done
Evaluating the coordinates              ...  done
Calculating the B-matrix                .... done
Calculating the G-matrix                .... done
The number of degrees of freedom        ....   20

    -----------------------------------------------------------------
                    Redundant Internal Coordinates


    -----------------------------------------------------------------
         Definition                    Initial Value    Approx d2E/dq
    -----------------------------------------------------------------
      1. B(C   1,C   0)                  1.4928         0.428219   
      2. B(O   2,C   1)                  1.2188         1.049740   
      3. B(O   3,C   1)                  1.3458         0.658371   
      4. B(H   4,C   0)                  1.0937         0.355266   
      5. B(H   5,C   0)                  1.0928         0.356473   
      6. B(H   6,C   0)                  1.0928         0.356470   
      7. A(H   5,C   0,H   6)          110.6108         0.289916   
      8. A(H   4,C   0,H   6)          108.6280         0.289762   
      9. A(C   1,C   0,H   4)          109.3045         0.330962   
     10. A(C   1,C   0,H   5)          109.8184         0.331148   
     11. A(H   4,C   0,H   5)          108.6277         0.289762   
     12. A(C   1,C   0,H   6)          109.8186         0.331147   
     13. A(O   2,C   1,O   3)          121.0190         0.476605   
     14. A(C   0,C   1,O   3)          112.4235         0.408035   
     15. A(C   0,C   1,O   2)          126.5575         0.443566   
     16. D(O   2,C   1,C   0,H   5)   -119.0771         0.013545   
     17. D(O   2,C   1,C   0,H   6)    119.0783         0.013545   
     18. D(O   3,C   1,C   0,H   4)   -179.9998         0.013545   
     19. D(O   3,C   1,C   0,H   5)     60.9228         0.013545   
     20. D(O   2,C   1,C   0,H   4)      0.0003         0.013545   
    -----------------------------------------------------------------

Number of atoms                         .... 7
Number of degrees of freedom            .... 20


         *************************************************************
         *                GEOMETRY OPTIMIZATION CYCLE   1            *
         *************************************************************
---------------------------------
CARTESIAN COORDINATES (ANGSTROEM)
---------------------------------
  C     -0.933543   -0.060063   -0.230376
  C      0.493608    0.278933    0.046914
  O      1.032525    1.356629   -0.136136
  O      1.181401   -0.764470    0.546212
  H     -1.442687    0.820299   -0.632706
  H     -1.430457   -0.357583    0.696271
  H     -0.986731   -0.862547   -0.970180

----------------------------
CARTESIAN COORDINATES (A.U.)
----------------------------
  NO LB      ZA    FRAG     MASS         X           Y           Z
   0 C     6.0000    0    12.011   -1.764141   -0.113502   -0.435347
   1 C     6.0000    0    12.011    0.932783    0.527106    0.088655
   2 O     8.0000    0    15.999    1.951190    2.563658   -0.257261
   3 O     8.0000    0    15.999    2.232525   -1.444639    1.032192
   4 H     1.0000    0     1.008   -2.726283    1.550140   -1.195641
   5 H     1.0000    0     1.008   -2.703172   -0.675734    1.315761
   6 H     1.0000    0     1.008   -1.864652   -1.629977   -1.833374

--------------------------------
INTERNAL COORDINATES (ANGSTROEM)
--------------------------------
 C      0   0   0     0.000000000000     0.00000000     0.00000000
 C      1   0   0     1.492838757026     0.00000000     0.00000000
 O      2   1   0     1.218757504222   126.55750554     0.00000000
 O      2   1   3     1.345751817372   112.42345805   179.99992916
 H      1   2   3     1.093678652489   109.30454669     0.00000000
 H      1   2   3     1.092755841407   109.81839189   240.92286656
 H      1   2   3     1.092757808198   109.81864086   119.07825154

---------------------------
INTERNAL COORDINATES (A.U.)
---------------------------
 C      0   0   0     0.000000000000     0.00000000     0.00000000
 C      1   0   0     2.821056412883     0.00000000     0.00000000
 O      2   1   0     2.303117906642   126.55750554     0.00000000
 O      2   1   3     2.543102379060   112.42345805   179.99992916
 H      1   2   3     2.066753131721   109.30454669     0.00000000
 H      1   2   3     2.065009271503   109.81839189   240.92286656
 H      1   2   3     2.065012988198   109.81864086   119.07825154

---------------------
BASIS SET INFORMATION
---------------------
There are 3 groups of distinct atoms

 Group   1 Type C   : 7s4p1d contracted to 3s2p1d pattern {511/31/1}
 Group   2 Type O   : 7s4p1d contracted to 3s2p1d pattern {511/31/1}
 Group   3 Type H   : 4s1p contracted to 2s1p pattern {31/1}

Atom   0C    basis set group =>   1
Atom   1C    basis set group =>   1
Atom   2O    basis set group =>   2
Atom   3O    basis set group =>   2
Atom   4H    basis set group =>   3
Atom   5H    basis set group =>   3
Atom   6H    basis set group =>   3
---------------------------------
AUXILIARY/J BASIS SET INFORMATION
---------------------------------
There are 3 groups of distinct atoms

 Group   1 Type C   : 12s5p4d2f1g contracted to 6s4p3d1f1g pattern {711111/2111/211/2/1}
 Group   2 Type O   : 12s5p4d2f1g contracted to 6s4p3d1f1g pattern {711111/2111/211/2/1}
 Group   3 Type H   : 5s2p1d contracted to 3s1p1d pattern {311/2/1}

Atom   0C    basis set group =>   1
Atom   1C    basis set group =>   1
Atom   2O    basis set group =>   2
Atom   3O    basis set group =>   2
Atom   4H    basis set group =>   3
Atom   5H    basis set group =>   3
Atom   6H    basis set group =>   3


           ************************************************************
           *        Program running with 64 parallel MPI-processes    *
           *              working on a common directory               *
           ************************************************************
------------------------------------------------------------------------------
                             ORCA STARTUP CALCULATIONS
                           -- RI-GTO INTEGRALS CHOSEN --
------------------------------------------------------------------------------
------------------------------------------------------------------------------
                   ___                                                        
                  /   \      - P O W E R E D   B Y -                         
                 /     \                                                     
                 |  |  |   _    _      __       _____    __    __             
                 |  |  |  | |  | |    /  \     |  _  \  |  |  /  |          
                  \  \/   | |  | |   /    \    | | | |  |  | /  /          
                 / \  \   | |__| |  /  /\  \   | |_| |  |  |/  /          
                |  |  |   |  __  | /  /__\  \  |    /   |      \           
                |  |  |   | |  | | |   __   |  |    \   |  |\   \          
                \     /   | |  | | |  |  |  |  | |\  \  |  | \   \       
                 \___/    |_|  |_| |__|  |__|  |_| \__\ |__|  \__/        
                                                                              
                      - O R C A' S   B I G   F R I E N D -                    
                                      &                                       
                       - I N T E G R A L  F E E D E R -                       
                                                                              
 v1 FN, 2020, v2 2021, v3 2022-2024                                           
------------------------------------------------------------------------------


----------------------
SHARK INTEGRAL PACKAGE
----------------------

Number of atoms                             ...      7
Number of basis functions                   ...     71
Number of shells                            ...     33
Maximum angular momentum                    ...      2
Integral batch strategy                     ... SHARK/LIBINT Hybrid
RI-J (if used) integral strategy            ... SPLIT-RIJ (Revised 2003 algorithm where possible)
Printlevel                                  ...      1
Contraction scheme used                     ... SEGMENTED contraction
Prescreening option                         ... SCHWARTZ
   Thresh                                   ... 2.500e-11
   Tcut                                     ... 2.500e-12
   Tpresel                                  ... 2.500e-12 
Coulomb Range Separation                    ... NOT USED
Exchange Range Separation                   ... NOT USED
Multipole approximations                    ... NOT USED
Finite Nucleus Model                        ... NOT USED
CABS basis                                  ... NOT available
Auxiliary Coulomb fitting basis             ... AVAILABLE
   # of basis functions in Aux-J            ...    229
   # of shells in Aux-J                     ...     75
   Maximum angular momentum in Aux-J        ...      4
Auxiliary J/K fitting basis                 ... NOT available
Auxiliary Correlation fitting basis         ... NOT available
Auxiliary 'external' fitting basis          ... NOT available

Checking pre-screening integrals            ... done (  0.1 sec) Dimension = 33
   => SHARK Basis and OBASIS are compatible. Storing Pre-screening
Shell pair information
Shell pair cut-off parameter TPreSel        ...   2.5e-12
Total number of shell pairs                 ...       561
Shell pairs after pre-screening             ...       558
Total number of primitive shell pairs       ...      2077
Primitive shell pairs kept                  ...      1715
          la=0 lb=0:    168 shell pairs
          la=1 lb=0:    198 shell pairs
          la=1 lb=1:     66 shell pairs
          la=2 lb=0:     72 shell pairs
          la=2 lb=1:     44 shell pairs
          la=2 lb=2:     10 shell pairs

Checking whether 4 symmetric matrices of dimension 71 fit in memory
:Max Core in MB      =   2109.00
 MB in use           =      3.97
 MB left             =   2105.03
 MB needed           =      0.08
 Data fit in memory  = YES
Calculating RI/J V-Matrix + Cholesky decomp.... done (  0.4 sec)
Calculating Nuclear repulsion               ... done (  0.0 sec) ENN=    111.807815921759 Eh

Diagonalization of the overlap matrix:
Smallest eigenvalue                        ... 3.611e-03
Time for diagonalization                   ...    0.002 sec
Threshold for overlap eigenvalues          ... 1.000e-07
Number of eigenvalues below threshold      ... 0
Time for construction of square roots      ...    0.005 sec
Total time needed                          ...    0.089 sec

-------------------
DFT GRID GENERATION
-------------------

General Integration Accuracy     IntAcc      ... 4.388
Radial Grid Type                 RadialGrid  ... OptM3 with GC (2021)
Angular Grid (max. ang.)         AngularGrid ... 4 (Lebedev-302)
Angular grid pruning method      GridPruning ... 4 (adaptive)
Weight generation scheme         WeightScheme... mBecke (2022)
Basis function cutoff            BFCut       ... 1.0000e-11
Integration weight cutoff        WCut        ... 1.0000e-14
Partially contracted basis set               ... off
Rotationally invariant grid construction     ... off
Angular grids for H and He will be reduced by one unit

Total number of grid points                  ...    34178
Total number of batches                      ...      536
Average number of points per batch           ...       63
Average number of grid points per atom       ...     4883

--------------------
COSX GRID GENERATION
--------------------

GRIDX 1
-------
General Integration Accuracy     IntAcc      ... 3.816
Radial Grid Type                 RadialGrid  ... OptM3 with GC (2021)
Angular Grid (max. ang.)         AngularGrid ... 1 (Lebedev-50)
Angular grid pruning method      GridPruning ... 4 (adaptive)
Weight generation scheme         WeightScheme... mBecke (2022)
Basis function cutoff            BFCut       ... 1.0000e-11
Integration weight cutoff        WCut        ... 1.0000e-14
Partially contracted basis set               ... on
Rotationally invariant grid construction     ... off
Angular grids for H and He will be reduced by one unit

Total number of grid points                  ...     4359
Total number of batches                      ...       38
Average number of points per batch           ...      114
Average number of grid points per atom       ...      623
UseSFitting                                  ... on

GRIDX 2
-------
General Integration Accuracy     IntAcc      ... 4.020
Radial Grid Type                 RadialGrid  ... OptM3 with GC (2021)
Angular Grid (max. ang.)         AngularGrid ... 2 (Lebedev-110)
Angular grid pruning method      GridPruning ... 4 (adaptive)
Weight generation scheme         WeightScheme... mBecke (2022)
Basis function cutoff            BFCut       ... 1.0000e-11
Integration weight cutoff        WCut        ... 1.0000e-14
Partially contracted basis set               ... on
Rotationally invariant grid construction     ... off
Angular grids for H and He will be reduced by one unit

Total number of grid points                  ...     9778
Total number of batches                      ...       81
Average number of points per batch           ...      120
Average number of grid points per atom       ...     1397
UseSFitting                                  ... on

GRIDX 3
-------
General Integration Accuracy     IntAcc      ... 4.338
Radial Grid Type                 RadialGrid  ... OptM3 with GC (2021)
Angular Grid (max. ang.)         AngularGrid ... 3 (Lebedev-194)
Angular grid pruning method      GridPruning ... 4 (adaptive)
Weight generation scheme         WeightScheme... mBecke (2022)
Basis function cutoff            BFCut       ... 1.0000e-11
Integration weight cutoff        WCut        ... 1.0000e-14
Partially contracted basis set               ... on
Rotationally invariant grid construction     ... off
Angular grids for H and He will be reduced by one unit

Total number of grid points                  ...    21662
Total number of batches                      ...      172
Average number of points per batch           ...      125
Average number of grid points per atom       ...     3095
UseSFitting                                  ... on
Grids setup in   1.7 sec
Initializing property integral containers    ... done (  0.3 sec)

SHARK setup successfully completed in   2.8 seconds

Maximum memory used throughout the entire STARTUP-calculation: 10.4 MB


           ************************************************************
           *        Program running with 64 parallel MPI-processes    *
           *              working on a common directory               *
           ************************************************************
-------------------------------------------------------------------------------
                                 ORCA GUESS
                   Start orbitals & Density for SCF / CASSCF
-------------------------------------------------------------------------------

------------
SCF SETTINGS
------------
Hamiltonian:
 Density Functional     Method          .... DFT(GTOs)
 Exchange Functional    Exchange        .... M062X
 Correlation Functional Correlation     .... M062X
 Gradients option       PostSCFGGA      .... off
 Hybrid DFT is turned on
   Fraction HF Exchange ScalHFX         ....  0.540000
   Scaling of DF-GGA-X  ScalDFX         ....  0.460000
   Scaling of DF-GGA-C  ScalDFC         ....  1.000000
   Scaling of DF-LDA-C  ScalLDAC        ....  1.000000
   Perturbative correction              ....  0.000000
 RI-approximation to the Coulomb term is turned on
   Number of AuxJ basis functions       .... 229
   RIJ-COSX (HFX calculated with COS-X)).... on


General Settings:
 Integral files         IntName         .... /lustre/project/xlzhang/jingyi/chemsmart/test_pka/orca/pka_scale_frag3_pka_A_opt
 Hartree-Fock type      HFTyp           .... RHF
 Total Charge           Charge          ....   -1
 Multiplicity           Mult            ....    1
 Number of Electrons    NEL             ....   32
 Basis Dimension        Dim             ....   71
 Nuclear Repulsion      ENuc            ....    111.8078159218 Eh

Convergence Acceleration:
 AO-DIIS                CNVDIIS         .... on
   Start iteration      DIISMaxIt       ....    12
   Startup error        DIISStart       ....  0.200000
   # of expansion vecs  DIISMaxEq       ....     5
   Bias factor          DIISBfac        ....   1.050
   Max. coefficient     DIISMaxC        ....  10.000
 MO-DIIS                CNVKDIIS        .... off
 Trust-Rad. Augm. Hess. CNVTRAH         .... auto
   Auto Start mean grad. ratio tolernc. ....  1.125000
   Auto Start start iteration           ....    50
   Auto Start num. interpolation iter.  ....    10
   Max. Number of Micro iterations      ....    24
   Max. Number of Macro iterations      .... Maxiter - #DIIS iter
   Number of Davidson start vectors     ....     2
   Converg. threshold    (grad. norm)   ....   1.000e-05
   Grad. Scal. Fac. for Micro threshold ....   0.100
   Minimum threshold for Micro iter.    ....   1.000e-02
   NR start threshold (gradient norm)   ....   1.000e-04
   Initial trust radius                 ....   0.400
   Minimum AH scaling param. (alpha)    ....   1.000
   Maximum AH scaling param. (alpha)    .... 1000.000
   Quad. conv. algorithm                .... NR
   White noise on init. David. guess    .... on
   Maximum white noise                  ....   0.010
   Pseudo random numbers                .... off
   Inactive MOs                         .... canonical
   Orbital update algorithm             .... Taylor
   Preconditioner                       .... Diag
   Full preconditioner red. dimension   ....   250
 SOSCF                 CNVSOSCF           .... on
   Start iteration     SOSCFMaxIt         ....   150
   Startup grad/error  SOSCFStart         ....  0.003300
   Hessian update      SOSCFHessUp        .... L-BFGS
   Autom. constraints  SOSCFAutoConstrain .... off
 Level Shifting         CNVShift        .... on
   Level shift para.    LevelShift      ....    0.2500
   Turn off err/grad.   ShiftErr        ....    0.0010
 Zerner damping         CNVZerner       .... off
 Static damping         CNVDamp         .... on
   Fraction old density DampFac         ....    0.7000
   Max. Damping (<1)    DampMax         ....    0.9800
   Min. Damping (>=0)   DampMin         ....    0.0000
   Turn off err/grad.   DampErr         ....    0.1000

SCF Procedure:
 Maximum # iterations   MaxIter         ....   125
 SCF integral mode      SCFMode         .... Direct
   Integral package                     .... SHARK and LIBINT hybrid scheme
 Reset frequency        DirectResetFreq ....    20
 Integral Threshold     Thresh          ....  2.500e-11 Eh
 Primitive CutOff       TCut            ....  2.500e-12 Eh

Convergence Tolerance:
 Convergence Check Mode ConvCheckMode   .... Total+1el-Energy
 Convergence forced     ConvForced      .... 0
 Energy Change          TolE            ....  1.000e-08 Eh
 1-El. energy change                    ....  1.000e-05 Eh
 Orbital Gradient       TolG            ....  1.000e-05
 Orbital Rotation angle TolX            ....  1.000e-05
 DIIS Error             TolErr          ....  5.000e-07

------------------------------
INITIAL GUESS: MODEL POTENTIAL
------------------------------
Loading Hartree-Fock densities                     ... done
Calculating cut-offs                               ... done
Initializing the effective Hamiltonian             ... done
Setting up the integral package (SHARK)            ... done
Starting the Coulomb interaction                   ... done (   0.3 sec)
Making the grid                                    ... done (   0.7 sec)
Mapping shells                                     ... done
Starting the XC term evaluation                    ... done (   0.1 sec)
  promolecular density results
     # of electrons  =     30.998828539
     EX              =    -27.339057284
     EC              =     -1.018380096
     EX+EC           =    -28.357437380
Transforming the Hamiltonian                       ... done (   0.1 sec)
Diagonalizing the Hamiltonian                      ... done (   0.0 sec)
Back transforming the eigenvectors                 ... done (   0.3 sec)
Now organizing SCF variables                       ... done
                      ------------------
                      INITIAL GUESS DONE (   2.2 sec)
                      ------------------
             **** ENERGY FILE WAS UPDATED (/lustre/project/xlzhang/jingyi/chemsmart/test_pka/orca/pka_scale_frag3_pka_A_opt.en.tmp) ****
Finished Guess after   4.8 sec
Maximum memory used throughout the entire GUESS-calculation: 6.2 MB


           ************************************************************
           *        Program running with 64 parallel MPI-processes    *
           *              working on a common directory               *
           ************************************************************

-------------------------------------------------------------------------------------------
                                      ORCA LEAN-SCF
                              memory conserving SCF solver
-------------------------------------------------------------------------------------------

----------------------------------------D-I-I-S--------------------------------------------
Iteration    Energy (Eh)           Delta-E    RMSDP     MaxDP     DIISErr   Damp  Time(sec)
-------------------------------------------------------------------------------------------
               ***  Starting incremental Fock matrix formation  ***
    1    -227.9705665020028960     0.00e+00  5.46e-02  1.45e-01  3.20e-01  0.700   1.3
    2    -228.0781821848806317    -1.08e-01  4.12e-02  1.33e-01  1.55e-01  0.700   1.0
                               ***Turning on AO-DIIS***
    3    -228.1253056776056951    -4.71e-02  1.66e-02  4.56e-02  6.27e-02  0.700   1.1
    4    -228.1534297078587770    -2.81e-02  2.72e-02  4.63e-02  3.77e-02  0.000   0.8
    5    -228.2144569327857653    -6.10e-02  4.77e-03  1.88e-02  5.95e-03  0.000   1.2
                              *** Initializing SOSCF ***
---------------------------------------S-O-S-C-F--------------------------------------
Iteration    Energy (Eh)           Delta-E    RMSDP     MaxDP     MaxGrad    Time(sec)
--------------------------------------------------------------------------------------
    6    -228.2146243806075177    -1.67e-04  1.50e-03  4.99e-03  1.90e-03     0.7
               *** Restarting incremental Fock matrix formation ***
    7    -228.2146835420397224    -5.92e-05  9.92e-04  3.12e-03  2.52e-04     1.1
    8    -228.2146860727862645    -2.53e-06  6.27e-04  1.79e-03  1.45e-04     1.2
    9    -228.2146861414640853    -6.87e-08  2.77e-04  7.79e-04  1.64e-04     0.8
   10    -228.2146865255495527    -3.84e-07  6.55e-05  2.43e-04  2.60e-05     0.5
   11    -228.2146865155280580     1.00e-08  2.52e-05  7.70e-05  2.54e-05     0.8
   12    -228.2146865290567348    -1.35e-08  1.24e-05  4.69e-05  6.77e-06     1.1
   13    -228.2146865325476597    -3.49e-09  6.45e-06  2.53e-05  5.13e-06     1.1
                 **** Energy Check signals convergence ****

               *****************************************************
               *                     SUCCESS                       *
               *           SCF CONVERGED AFTER  13 CYCLES          *
               *****************************************************

Recomputing exchange energy using gridx3       ... done (    0.073 sec)
Old exchange energy                            :    -15.177984104 Eh
New exchange energy                            :    -15.177986161 Eh
Exchange energy change after final integration :     -0.000002058 Eh
Total energy after final integration           :   -228.214688588 Eh
             **** ENERGY FILE WAS UPDATED (/lustre/project/xlzhang/jingyi/chemsmart/test_pka/orca/pka_scale_frag3_pka_A_opt.en.tmp) ****

----------------
TOTAL SCF ENERGY
----------------

Total Energy       :       -228.21468858754349 Eh           -6210.03739 eV

Components:
Nuclear Repulsion  :        111.80781592175863 Eh            3042.44535 eV
Electronic Energy  :       -340.02250245177470 Eh           -9252.48268 eV
One Electron Energy:       -541.35532333660342 Eh          -14731.02726 eV
Two Electron Energy:        201.33282088482872 Eh            5478.54458 eV

Virial components:
Potential Energy   :       -454.65329553824665 Eh          -12371.74514 eV
Kinetic Energy     :        226.43860695070319 Eh            6161.70775 eV
Virial Ratio       :          2.00784354603112

DFT components:
N(Alpha)           :       16.000006155346 electrons
N(Beta)            :       16.000006155346 electrons
N(Total)           :       32.000012310692 electrons
E(XC)              :      -14.128980759252 Eh       

---------------
SCF CONVERGENCE
---------------

  Last Energy change         ...    3.4909e-09  Tolerance :   1.0000e-08
  Last MAX-Density change    ...    2.5254e-05  Tolerance :   1.0000e-07
  Last RMS-Density change    ...    6.4499e-06  Tolerance :   5.0000e-09
  Last DIIS Error            ...    1.9022e-03  Tolerance :   5.0000e-07
  Last Orbital Gradient      ...    5.1327e-06  Tolerance :   1.0000e-05
  Last Orbital Rotation      ...    2.3852e-06  Tolerance :   1.0000e-05


----------------
ORBITAL ENERGIES
----------------

  NO   OCC          E(Eh)            E(eV) 
   0   2.0000     -19.341024      -526.2960 
   1   2.0000     -19.301563      -525.2222 
   2   2.0000     -10.404748      -283.1276 
   3   2.0000     -10.360540      -281.9246 
   4   2.0000      -0.893435       -24.3116 
   5   2.0000      -0.757178       -20.6039 
   6   2.0000      -0.617126       -16.7928 
   7   2.0000      -0.362452        -9.8628 
   8   2.0000      -0.315151        -8.5757 
   9   2.0000      -0.297940        -8.1074 
  10   2.0000      -0.274292        -7.4639 
  11   2.0000      -0.214068        -5.8251 
  12   2.0000      -0.205046        -5.5796 
  13   2.0000      -0.081084        -2.2064 
  14   2.0000      -0.055955        -1.5226 
  15   2.0000      -0.046785        -1.2731 
  16   0.0000       0.278351         7.5743 
  17   0.0000       0.301544         8.2054 
  18   0.0000       0.336956         9.1690 
  19   0.0000       0.378140        10.2897 
  20   0.0000       0.473094        12.8735 
  21   0.0000       0.531734        14.4692 
  22   0.0000       0.590355        16.0644 
  23   0.0000       0.703420        19.1410 
  24   0.0000       0.716398        19.4942 
  25   0.0000       0.808983        22.0136 
  26   0.0000       0.822152        22.3719 
*Only the first 10 virtual orbitals were printed.

                    ********************************
                    * MULLIKEN POPULATION ANALYSIS *
                    ********************************

-----------------------
MULLIKEN ATOMIC CHARGES
-----------------------
   0 C :   -0.035846
   1 C :    0.078193
   2 O :   -0.409594
   3 O :   -0.606624
   4 H :   -0.037365
   5 H :    0.005542
   6 H :    0.005693
Sum of atomic charges:   -1.0000000

--------------------------------
MULLIKEN REDUCED ORBITAL CHARGES
--------------------------------
  0 C s       :     2.957919  s :     2.957919
      pz      :     0.993921  p :     3.052681
      px      :     1.066892
      py      :     0.991868
      dz2     :     0.003488  d :     0.025246
      dxz     :     0.005083
      dyz     :     0.006292
      dx2y2   :     0.005005
      dxy     :     0.005378

  1 C s       :     3.076843  s :     3.076843
      pz      :     0.867518  p :     2.711873
      px      :     0.951585
      py      :     0.892770
      dz2     :     0.011578  d :     0.133090
      dxz     :     0.010079
      dyz     :     0.030646
      dx2y2   :     0.043994
      dxy     :     0.036793

  2 O s       :     3.722435  s :     3.722435
      pz      :     1.543889  p :     4.670333
      px      :     1.677940
      py      :     1.448504
      dz2     :     0.002011  d :     0.016826
      dxz     :     0.001343
      dyz     :     0.003773
      dx2y2   :     0.004440
      dxy     :     0.005259

  3 O s       :     3.815455  s :     3.815455
      pz      :     1.558576  p :     4.779828
      px      :     1.689451
      py      :     1.531802
      dz2     :     0.001614  d :     0.011341
      dxz     :     0.001451
      dyz     :     0.002644
      dx2y2   :     0.001938
      dxy     :     0.003694

  4 H s       :     1.016106  s :     1.016106
      pz      :     0.005448  p :     0.021259
      px      :     0.005102
      py      :     0.010708

  5 H s       :     0.972167  s :     0.972167
      pz      :     0.011355  p :     0.022292
      px      :     0.005577
      py      :     0.005360

  6 H s       :     0.972008  s :     0.972008
      pz      :     0.008512  p :     0.022299
      px      :     0.004024
      py      :     0.009763



                     *******************************
                     * LOEWDIN POPULATION ANALYSIS *
                     *******************************

----------------------
LOEWDIN ATOMIC CHARGES
----------------------
   0 C :   -0.122046
   1 C :   -0.019736
   2 O :   -0.354798
   3 O :   -0.533831
   4 H :   -0.005415
   5 H :    0.017921
   6 H :    0.017904

-------------------------------
LOEWDIN REDUCED ORBITAL CHARGES
-------------------------------
  0 C s       :     2.852562  s :     2.852562
      pz      :     1.054134  p :     3.197773
      px      :     1.085638
      py      :     1.058001
      dz2     :     0.010124  d :     0.071711
      dxz     :     0.013903
      dyz     :     0.017760
      dx2y2   :     0.015068
      dxy     :     0.014857

  1 C s       :     2.863258  s :     2.863258
      pz      :     0.856229  p :     2.849311
      px      :     0.990559
      py      :     1.002523
      dz2     :     0.024835  d :     0.307167
      dxz     :     0.020922
      dyz     :     0.063369
      dx2y2   :     0.105251
      dxy     :     0.092790

  2 O s       :     3.548346  s :     3.548346
      pz      :     1.536693  p :     4.778145
      px      :     1.703893
      py      :     1.537559
      dz2     :     0.003896  d :     0.028307
      dxz     :     0.001631
      dyz     :     0.005363
      dx2y2   :     0.007622
      dxy     :     0.009796

  3 O s       :     3.635199  s :     3.635199
      pz      :     1.573322  p :     4.879533
      px      :     1.717469
      py      :     1.588741
      dz2     :     0.002389  d :     0.019099
      dxz     :     0.002303
      dyz     :     0.004473
      dx2y2   :     0.003097
      dxy     :     0.006837

  4 H s       :     0.939427  s :     0.939427
      pz      :     0.015995  p :     0.065988
      px      :     0.020673
      py      :     0.029319

  5 H s       :     0.916745  s :     0.916745
      pz      :     0.031309  p :     0.065334
      px      :     0.019271
      py      :     0.014754

  6 H s       :     0.916763  s :     0.916763
      pz      :     0.023337  p :     0.065333
      px      :     0.014829
      py      :     0.027166



                      *****************************
                      * MAYER POPULATION ANALYSIS *
                      *****************************

  NA   - Mulliken gross atomic population
  ZA   - Total nuclear charge
  QA   - Mulliken gross atomic charge
  VA   - Mayer's total valence
  BVA  - Mayer's bonded valence
  FA   - Mayer's free valence

  ATOM       NA         ZA         QA         VA         BVA        FA
  0 C      6.0358     6.0000    -0.0358     3.7626     3.7626     0.0000
  1 C      5.9218     6.0000     0.0782     4.5845     4.5845     0.0000
  2 O      8.4096     8.0000    -0.4096     2.0406     2.0406     0.0000
  3 O      8.6066     8.0000    -0.6066     1.8041     1.8041     0.0000
  4 H      1.0374     1.0000    -0.0374     1.0018     1.0018     0.0000
  5 H      0.9945     1.0000     0.0055     1.0028     1.0028     0.0000
  6 H      0.9943     1.0000     0.0057     1.0028     1.0028     0.0000

  Mayer bond orders larger than 0.100000
B(  0-C ,  1-C ) :   0.9494 B(  0-C ,  4-H ) :   0.9505 B(  0-C ,  5-H ) :   0.9667 
B(  0-C ,  6-H ) :   0.9668 B(  1-C ,  2-O ) :   1.9132 B(  1-C ,  3-O ) :   1.6828 
B(  2-O ,  3-O ) :   0.1062 

-------
TIMINGS
-------

Total SCF time: 0 days 0 hours 0 min 17 sec 

Total time                  ....      17.740 sec
Sum of individual times     ....      16.208 sec  ( 91.4%)

SCF preparation             ....       3.079 sec  ( 17.4%)
Fock matrix formation       ....      11.807 sec  ( 66.6%)
  Startup                   ....       0.196 sec  (  1.7% of F)
  Split-RI-J                ....       1.329 sec  ( 11.3% of F)
  Chain of spheres X        ....       1.095 sec  (  9.3% of F)
  XC integration            ....       4.560 sec  ( 38.6% of F)
    XC Preparation          ....       0.000 sec  (  0.0% of XC)
    Basis function eval.    ....       0.010 sec  (  0.2% of XC)
    Density eval.           ....       0.011 sec  (  0.2% of XC)
    XC-Functional eval.     ....       0.007 sec  (  0.2% of XC)
    XC-Potential eval.      ....       0.015 sec  (  0.3% of XC)
Diagonalization             ....       0.000 sec  (  0.0%)
Density matrix formation    ....       0.528 sec  (  3.0%)
Total Energy calculation    ....       0.063 sec  (  0.4%)
Population analysis         ....       0.246 sec  (  1.4%)
Orbital Transformation      ....       0.039 sec  (  0.2%)
Orbital Orthonormalization  ....       0.000 sec  (  0.0%)
DIIS solution               ....       0.147 sec  (  0.8%)
SOSCF solution              ....       0.298 sec  (  1.7%)
Finished LeanSCF after  18.1 sec

Maximum memory used throughout the entire LEANSCF-calculation: 6.4 MB


           ************************************************************
           *        Program running with 64 parallel MPI-processes    *
           *              working on a common directory               *
           ************************************************************

------------------------------------------------------------------------------
                         ORCA PROPERTY INTEGRAL CALCULATIONS
------------------------------------------------------------------------------

GBWName                                   ... /lustre/project/xlzhang/jingyi/chemsmart/test_pka/orca/pka_scale_frag3_pka_A_opt.gbw
Number of atoms                           ...      7
Number of basis functions                 ...     71
Max core memory                           ...   2109 MB

Dipole integrals                          ... YES
Quadrupole integrals                      ...  NO
Linear momentum integrals                 ...  NO
Angular momentum integrals                ...  NO
Higher moments length integrals           ...  NO
Higher moments velocity integrals         ...  NO
Kinetic energy integrals                  ...  NO
GIAO right hand sides                     ...  NO
GIAO dipole derivative integrals          ...  NO
SOC integrals                             ...  NO
EPR diamagnetic integrals (GIAO)          ...  NO
EPR gauge integrals                       ...  NO
Field gradient integrals                  ...  NO (   0 nuclei)
Spin-dipole/Fermi contact integrals       ...  NO (   0 nuclei)
Contact density integrals                 ...  NO (   0 nuclei)
Nucleus-orbit integrals                   ...  NO (   0 nuclei)
Geometric perturbations                   ...  NO (   7 nuclei)

Choice of electric origin   ... Center of mass
Position of electric origin ... (  0.8400,  0.3745,  0.1102) 
Choice of magnetic origin   ... GIAO
Position of magnetic origin ... (  0.0000,  0.0000,  0.0000) 

Calculating integrals                     ... Electric Dipole (Length)     done (  0.1 sec)

Property integrals calculated in   0.1 sec

Maximum memory used throughout the entire PROPINT-calculation: 6.3 MB

-------------------------   --------------------
FINAL SINGLE POINT ENERGY      -228.214688587543
-------------------------   --------------------



           ************************************************************
           *        Program running with 64 parallel MPI-processes    *
           *              working on a common directory               *
           ************************************************************
------------------------------------------------------------------------------
                         ORCA SCF GRADIENT CALCULATION
------------------------------------------------------------------------------

Nuc. rep. gradient        (SHARK) ... done (  0.0 sec)
HCore & Overlap gradient  (SHARK) ... done (  0.1 sec)
Split-RIJ-J gradient      (SHARK) ... done (  0.1 sec)
done (  0.3 sec)
XC gradient                       ... done (  0.4 sec)

------------------
CARTESIAN GRADIENT
------------------

   1   C   :    0.019061498   -0.016250879    0.010062450
   2   C   :   -0.098163069    0.097309742   -0.055635019
   3   O   :    0.017222646   -0.036587880    0.015640906
   4   O   :    0.053805686   -0.050983716    0.029799000
   5   H   :    0.006719002   -0.004267308    0.003112295
   6   H   :    0.000881201    0.005120209   -0.002326704
   7   H   :    0.000473037    0.005659832   -0.000652929

Difference to translation invariance:
           :    0.0000000003    0.0000000002    0.0000000000

Difference to rotation invariance:
           :    0.0000904335   -0.0000556635   -0.0001012973

Norm of the Cartesian gradient     ...    0.1770015481
RMS gradient                       ...    0.0386249044
MAX gradient                       ...    0.0981630695

-------
TIMINGS
-------

Total SCF gradient time     ....        0.910 sec

Densities                   ....       0.001 sec  (  0.2%)
One electron gradient       ....       0.136 sec  ( 14.9%)
RI-J Coulomb gradient       ....       0.102 sec  ( 11.2%)
COSX gradient               ....       0.282 sec  ( 31.0%)
XC gradient                 ....       0.388 sec  ( 42.6%)

Maximum memory used throughout the entire SCFGRAD-calculation: 8.4 MB
------------------------------------------------------------------------------
                         ORCA GEOMETRY RELAXATION STEP
------------------------------------------------------------------------------

Reading the OPT-File                    .... done
Getting information on internals        .... done
Copying old internal coords+grads       .... done
Making the new internal coordinates     .... (2022 redundants) done
Validating the new internal coordinates .... (2022 redundants) done
Calculating the B-matrix                .... done
Calculating the G,G- and P matrices     .... done
Transforming gradient to internals      .... done
Projecting the internal gradient        .... done
Number of atoms                         ....   7
Number of internal coordinates          ....  20
Current Energy                          ....  -228.214688588 Eh
Current gradient norm                   ....     0.177001548 Eh/bohr
Maximum allowed component of the step   ....  0.300
Current trust radius                    ....  0.300
Evaluating the initial hessian          ....  (Almloef) done
Projecting the Hessian                  .... done
Forming the augmented Hessian           .... done
Diagonalizing the augmented Hessian     .... done
Last element of RFO vector              ....  0.983618000
Lowest eigenvalues of augmented Hessian:
 -0.018284924  0.013545312  0.013545416  0.139453149  0.186457507
Length of the computed step             ....  0.183267734
The final length of the internal step   ....  0.183267734
Converting the step to Cartesian space:
 Initial RMS(Int)=    0.0409799111
Transforming coordinates:
 Iter   0:  RMS(Cart)=    0.0255454419 RMS(Int)=    0.0409357311
done
Storing new coordinates                 .... done

                                .--------------------.
          ----------------------|Geometry convergence|-------------------------
          Item                value                   Tolerance       Converged
          ---------------------------------------------------------------------
          RMS gradient        0.0231773207            0.0001000000      NO
          MAX gradient        0.0780801512            0.0003000000      NO
          RMS step            0.0409799111            0.0020000000      NO
          MAX step            0.1153912374            0.0040000000      NO
          -------------------------------------------------------------------------
          ........................................................
          Max(Bonds)      0.0611      Max(Angles)    4.78
          Max(Dihed)        1.18      Max(Improp)    0.00
          ---------------------------------------------------------------------

The optimization has not yet converged - more geometry cycles are needed


    ---------------------------------------------------------------------------
                         Redundant Internal Coordinates
                            (Angstroem and degrees)

        Definition                    Value    dE/dq     Step     New-Value
    ----------------------------------------------------------------------------
     1. B(C   1,C   0)                1.4928 -0.025622  0.0304    1.5232   
     2. B(O   2,C   1)                1.2188 -0.027083  0.0134    1.2322   
     3. B(O   3,C   1)                1.3458  0.078080 -0.0611    1.2847   
     4. B(H   4,C   0)                1.0937 -0.007711  0.0109    1.1046   
     5. B(H   5,C   0)                1.0928 -0.003765  0.0053    1.0981   
     6. B(H   6,C   0)                1.0928 -0.003736  0.0053    1.0980   
     7. A(H   5,C   0,H   6)          110.61  0.004533   -1.40    109.21   
     8. A(H   4,C   0,H   6)          108.63 -0.000660    0.37    109.00   
     9. A(C   1,C   0,H   4)          109.30 -0.007718    1.55    110.85   
    10. A(C   1,C   0,H   5)          109.82  0.001922   -0.40    109.41   
    11. A(H   4,C   0,H   5)          108.63  0.000452    0.31    108.93   
    12. A(C   1,C   0,H   6)          109.82  0.001266   -0.36    109.46   
    13. A(O   2,C   1,O   3)          121.02 -0.040307    4.78    125.80   
    14. A(C   0,C   1,O   3)          112.42  0.002662   -0.23    112.20   
    15. A(C   0,C   1,O   2)          126.56  0.037645   -4.55    122.01   
    16. D(O   2,C   1,C   0,H   5)   -119.08  0.003540   -1.06   -120.14   
    17. D(O   2,C   1,C   0,H   6)    119.08 -0.004170    1.18    120.26   
    18. D(O   3,C   1,C   0,H   4)   -180.00 -0.001520    0.59   -179.41   
    19. D(O   3,C   1,C   0,H   5)     60.92  0.001459   -0.48     60.44   
    20. D(O   2,C   1,C   0,H   4)      0.00  0.000561    0.01      0.01   
    ----------------------------------------------------------------------------

Geometry step timings:
Preparation and reading OPT file:      0.000 s ( 0.982 %)
Internal coordinates            :      0.000 s ( 0.507 %)
B/P matrices and projection     :      0.000 s ( 2.692 %)
Hessian update/contruction      :      0.005 s (74.679 %)
Making the step                 :      0.000 s ( 2.518 %)
Converting the step to Cartesian:      0.000 s ( 0.776 %)
Storing new data                :      0.000 s ( 1.552 %)
Checking convergence            :      0.000 s ( 0.998 %)
Final printing                  :      0.001 s (15.170 %)
Total time                      :      0.006 s

Time for energy+gradient        :     36.456 s
Time for complete geometry iter :     43.840 s

         *************************************************************
         *                GEOMETRY OPTIMIZATION CYCLE   2            *
         *************************************************************
---------------------------------
CARTESIAN COORDINATES (ANGSTROEM)
---------------------------------
  C     -0.929451   -0.054557   -0.230624
  C      0.531420    0.257882    0.066683
  O      1.016849    1.370944   -0.142386
  O      1.160266   -0.760556    0.533337
  H     -1.445607    0.832118   -0.639936
  H     -1.432241   -0.363524    0.695392
  H     -0.987120   -0.871109   -0.962467

----------------------------
CARTESIAN COORDINATES (A.U.)
----------------------------
  NO LB      ZA    FRAG     MASS         X           Y           Z
   0 C     6.0000    0    12.011   -1.756408   -0.103098   -0.435816
   1 C     6.0000    0    12.011    1.004239    0.487326    0.126013
   2 O     8.0000    0    15.999    1.921566    2.590709   -0.269070
   3 O     8.0000    0    15.999    2.192585   -1.437242    1.007860
   4 H     1.0000    0     1.008   -2.731801    1.572476   -1.209303
   5 H     1.0000    0     1.008   -2.706544   -0.686961    1.314100
   6 H     1.0000    0     1.008   -1.865386   -1.646158   -1.818800

--------------------------------
INTERNAL COORDINATES (ANGSTROEM)
--------------------------------
 C      0   0   0     0.000000000000     0.00000000     0.00000000
 C      1   0   0     1.523205090289     0.00000000     0.00000000
 O      2   1   0     1.232176442451   122.00619283     0.00000000
 O      2   1   3     1.284689404443   112.19451054   180.58075551
 H      1   2   3     1.104602442505   110.84430711     0.00000000
 H      1   2   3     1.098072518594   109.40600808   239.86428038
 H      1   2   3     1.098033962707   109.45092295   120.25461983

---------------------------
INTERNAL COORDINATES (A.U.)
---------------------------
 C      0   0   0     0.000000000000     0.00000000     0.00000000
 C      1   0   0     2.878440466441     0.00000000     0.00000000
 O      2   1   0     2.328476024902   122.00619283     0.00000000
 O      2   1   3     2.427711141548   112.19451054   180.58075551
 H      1   2   3     2.087396103195   110.84430711     0.00000000
 H      1   2   3     2.075056335328   109.40600808   239.86428038
 H      1   2   3     2.074983475260   109.45092295   120.25461983



           ************************************************************
           *        Program running with 64 parallel MPI-processes    *
           *              working on a common directory               *
           ************************************************************
------------------------------------------------------------------------------
                   ___                                                        
                  /   \      - P O W E R E D   B Y -                         
                 /     \                                                     
                 |  |  |   _    _      __       _____    __    __             
                 |  |  |  | |  | |    /  \     |  _  \  |  |  /  |          
                  \  \/   | |  | |   /    \    | | | |  |  | /  /          
                 / \  \   | |__| |  /  /\  \   | |_| |  |  |/  /          
                |  |  |   |  __  | /  /__\  \  |    /   |      \           
                |  |  |   | |  | | |   __   |  |    \   |  |\   \          
                \     /   | |  | | |  |  |  |  | |\  \  |  | \   \       
                 \___/    |_|  |_| |__|  |__|  |_| \__\ |__|  \__/        
                                                                              
                      - O R C A' S   B I G   F R I E N D -                    
                                      &                                       
                       - I N T E G R A L  F E E D E R -                       
                                                                              
 v1 FN, 2020, v2 2021, v3 2022-2024                                           
------------------------------------------------------------------------------


----------------------
SHARK INTEGRAL PACKAGE
----------------------

Number of atoms                             ...      7
Number of basis functions                   ...     71
Number of shells                            ...     33
Maximum angular momentum                    ...      2
Integral batch strategy                     ... SHARK/LIBINT Hybrid
RI-J (if used) integral strategy            ... SPLIT-RIJ (Revised 2003 algorithm where possible)
Printlevel                                  ...      1
Contraction scheme used                     ... SEGMENTED contraction
Prescreening option                         ... SCHWARTZ
   Thresh                                   ... 2.500e-11
   Tcut                                     ... 2.500e-12
   Tpresel                                  ... 2.500e-12 
Coulomb Range Separation                    ... NOT USED
Exchange Range Separation                   ... NOT USED
Multipole approximations                    ... NOT USED
Finite Nucleus Model                        ... NOT USED
CABS basis                                  ... NOT available
Auxiliary Coulomb fitting basis             ... AVAILABLE
   # of basis functions in Aux-J            ...    229
   # of shells in Aux-J                     ...     75
   Maximum angular momentum in Aux-J        ...      4
Auxiliary J/K fitting basis                 ... NOT available
Auxiliary Correlation fitting basis         ... NOT available
Auxiliary 'external' fitting basis          ... NOT available

Checking pre-screening integrals            ... done (  0.0 sec) Dimension = 33
   => SHARK Basis and OBASIS are compatible. Storing Pre-screening
Shell pair information
Shell pair cut-off parameter TPreSel        ...   2.5e-12
Total number of shell pairs                 ...       561
Shell pairs after pre-screening             ...       558
Total number of primitive shell pairs       ...      2077
Primitive shell pairs kept                  ...      1714
          la=0 lb=0:    168 shell pairs
          la=1 lb=0:    198 shell pairs
          la=1 lb=1:     66 shell pairs
          la=2 lb=0:     72 shell pairs
          la=2 lb=1:     44 shell pairs
          la=2 lb=2:     10 shell pairs

Checking whether 4 symmetric matrices of dimension 71 fit in memory
:Max Core in MB      =   2109.00
 MB in use           =      4.01
 MB left             =   2104.99
 MB needed           =      0.08
 Data fit in memory  = YES
Calculating RI/J V-Matrix + Cholesky decomp.... done (  0.5 sec)
Calculating Nuclear repulsion               ... done (  0.0 sec) ENN=    112.247313507257 Eh

Diagonalization of the overlap matrix:
Smallest eigenvalue                        ... 4.220e-03
Time for diagonalization                   ...    0.002 sec
Threshold for overlap eigenvalues          ... 1.000e-07
Number of eigenvalues below threshold      ... 0
Time for construction of square roots      ...    0.006 sec
Total time needed                          ...    0.087 sec

-------------------
DFT GRID GENERATION
-------------------

General Integration Accuracy     IntAcc      ... 4.388
Radial Grid Type                 RadialGrid  ... OptM3 with GC (2021)
Angular Grid (max. ang.)         AngularGrid ... 4 (Lebedev-302)
Angular grid pruning method      GridPruning ... 4 (adaptive)
Weight generation scheme         WeightScheme... mBecke (2022)
Basis function cutoff            BFCut       ... 1.0000e-11
Integration weight cutoff        WCut        ... 1.0000e-14
Partially contracted basis set               ... off
Rotationally invariant grid construction     ... off
Angular grids for H and He will be reduced by one unit

Total number of grid points                  ...    34184
Total number of batches                      ...      538
Average number of points per batch           ...       63
Average number of grid points per atom       ...     4883

--------------------
COSX GRID GENERATION
--------------------

GRIDX 1
-------
General Integration Accuracy     IntAcc      ... 3.816
Radial Grid Type                 RadialGrid  ... OptM3 with GC (2021)
Angular Grid (max. ang.)         AngularGrid ... 1 (Lebedev-50)
Angular grid pruning method      GridPruning ... 4 (adaptive)
Weight generation scheme         WeightScheme... mBecke (2022)
Basis function cutoff            BFCut       ... 1.0000e-11
Integration weight cutoff        WCut        ... 1.0000e-14
Partially contracted basis set               ... on
Rotationally invariant grid construction     ... off
Angular grids for H and He will be reduced by one unit

Total number of grid points                  ...     4360
Total number of batches                      ...       38
Average number of points per batch           ...      114
Average number of grid points per atom       ...      623
UseSFitting                                  ... on

GRIDX 2
-------
General Integration Accuracy     IntAcc      ... 4.020
Radial Grid Type                 RadialGrid  ... OptM3 with GC (2021)
Angular Grid (max. ang.)         AngularGrid ... 2 (Lebedev-110)
Angular grid pruning method      GridPruning ... 4 (adaptive)
Weight generation scheme         WeightScheme... mBecke (2022)
Basis function cutoff            BFCut       ... 1.0000e-11
Integration weight cutoff        WCut        ... 1.0000e-14
Partially contracted basis set               ... on
Rotationally invariant grid construction     ... off
Angular grids for H and He will be reduced by one unit

Total number of grid points                  ...     9777
Total number of batches                      ...       81
Average number of points per batch           ...      120
Average number of grid points per atom       ...     1397
UseSFitting                                  ... on

GRIDX 3
-------
General Integration Accuracy     IntAcc      ... 4.338
Radial Grid Type                 RadialGrid  ... OptM3 with GC (2021)
Angular Grid (max. ang.)         AngularGrid ... 3 (Lebedev-194)
Angular grid pruning method      GridPruning ... 4 (adaptive)
Weight generation scheme         WeightScheme... mBecke (2022)
Basis function cutoff            BFCut       ... 1.0000e-11
Integration weight cutoff        WCut        ... 1.0000e-14
Partially contracted basis set               ... on
Rotationally invariant grid construction     ... off
Angular grids for H and He will be reduced by one unit

Total number of grid points                  ...    21663
Total number of batches                      ...      173
Average number of points per batch           ...      125
Average number of grid points per atom       ...     3095
UseSFitting                                  ... on
Grids setup in   1.9 sec
Initializing property integral containers    ... done (  0.3 sec)

SHARK setup successfully completed in   3.1 seconds

Maximum memory used throughout the entire STARTUP-calculation: 10.5 MB


           ************************************************************
           *        Program running with 64 parallel MPI-processes    *
           *              working on a common directory               *
           ************************************************************
Occupation numbers will be reassigned to an Aufbau configuration
             **** ENERGY FILE WAS UPDATED (/lustre/project/xlzhang/jingyi/chemsmart/test_pka/orca/pka_scale_frag3_pka_A_opt.en.tmp) ****
Finished Guess after   2.6 sec
Maximum memory used throughout the entire GUESS-calculation: 6.2 MB


           ************************************************************
           *        Program running with 64 parallel MPI-processes    *
           *              working on a common directory               *
           ************************************************************
----------------------------------------D-I-I-S--------------------------------------------
Iteration    Energy (Eh)           Delta-E    RMSDP     MaxDP     DIISErr   Damp  Time(sec)
-------------------------------------------------------------------------------------------
               ***  Starting incremental Fock matrix formation  ***
    1    -228.2231085962995394     0.00e+00  5.22e-03  8.47e-03  2.88e-02  0.700   1.4
    2    -228.2245029835266337    -1.39e-03  4.62e-03  7.98e-03  1.68e-02  0.700   1.1
                               ***Turning on AO-DIIS***
    3    -228.2255311234346777    -1.03e-03  3.76e-03  6.63e-03  1.22e-02  0.700   1.2
    4    -228.2262872274705501    -7.56e-04  1.01e-02  1.73e-02  9.03e-03  0.000   0.8
                              *** Initializing SOSCF ***
---------------------------------------S-O-S-C-F--------------------------------------
Iteration    Energy (Eh)           Delta-E    RMSDP     MaxDP     MaxGrad    Time(sec)
--------------------------------------------------------------------------------------
    5    -228.2283259912650237    -2.04e-03  1.22e-03  2.01e-03  2.42e-03     1.0
               *** Restarting incremental Fock matrix formation ***
    6    -228.2283536704496214    -2.77e-05  7.36e-04  1.38e-03  3.89e-04     1.8
    7    -228.2283540945536515    -4.24e-07  4.01e-04  6.40e-04  4.44e-04     0.9
    8    -228.2283564951200105    -2.40e-06  6.99e-05  1.38e-04  4.16e-05     1.0
    9    -228.2283564956319992    -5.12e-10  3.35e-05  6.24e-05  4.70e-05     0.9
                 **** Energy Check signals convergence ****

               *****************************************************
               *                     SUCCESS                       *
               *           SCF CONVERGED AFTER   9 CYCLES          *
               *****************************************************

Recomputing exchange energy using gridx3       ... done (    0.074 sec)
Old exchange energy                            :    -15.183494921 Eh
New exchange energy                            :    -15.183517876 Eh
Exchange energy change after final integration :     -0.000022955 Eh
Total energy after final integration           :   -228.228379483 Eh
             **** ENERGY FILE WAS UPDATED (/lustre/project/xlzhang/jingyi/chemsmart/test_pka/orca/pka_scale_frag3_pka_A_opt.en.tmp) ****

----------------
TOTAL SCF ENERGY
----------------

Total Energy       :       -228.22837948261369 Eh           -6210.40994 eV

Components:
Nuclear Repulsion  :        112.24731350725745 Eh            3054.40468 eV
Electronic Energy  :       -340.47567003477036 Eh           -9264.81400 eV
One Electron Energy:       -542.19026378031162 Eh          -14753.74714 eV
Two Electron Energy:        201.71459374554126 Eh            5488.93315 eV

Virial components:
Potential Energy   :       -454.68922412578507 Eh          -12372.72281 eV
Kinetic Energy     :        226.46084464317138 Eh            6162.31287 eV
Virial Ratio       :          2.00780503509217

DFT components:
N(Alpha)           :       16.000006280315 electrons
N(Beta)            :       16.000006280315 electrons
N(Total)           :       32.000012560629 electrons
E(XC)              :      -14.131508631172 Eh       

---------------
SCF CONVERGENCE
---------------

  Last Energy change         ...    5.1199e-10  Tolerance :   1.0000e-08
  Last MAX-Density change    ...    6.2393e-05  Tolerance :   1.0000e-07
  Last RMS-Density change    ...    3.3467e-05  Tolerance :   5.0000e-09
  Last DIIS Error            ...    2.4169e-03  Tolerance :   5.0000e-07
  Last Orbital Gradient      ...    4.7029e-05  Tolerance :   1.0000e-05
  Last Orbital Rotation      ...    3.4466e-05  Tolerance :   1.0000e-05


Total SCF time: 0 days 0 hours 0 min 14 sec 
Finished LeanSCF after  14.8 sec

Maximum memory used throughout the entire LEANSCF-calculation: 6.5 MB


           ************************************************************
           *        Program running with 64 parallel MPI-processes    *
           *              working on a common directory               *
           ************************************************************

------------------------------------------------------------------------------
                         ORCA PROPERTY INTEGRAL CALCULATIONS
------------------------------------------------------------------------------

GBWName                                   ... /lustre/project/xlzhang/jingyi/chemsmart/test_pka/orca/pka_scale_frag3_pka_A_opt.gbw
Number of atoms                           ...      7
Number of basis functions                 ...     71
Max core memory                           ...   2109 MB

Dipole integrals                          ... YES
Quadrupole integrals                      ...  NO
Linear momentum integrals                 ...  NO
Angular momentum integrals                ...  NO
Higher moments length integrals           ...  NO
Higher moments velocity integrals         ...  NO
Kinetic energy integrals                  ...  NO
GIAO right hand sides                     ...  NO
GIAO dipole derivative integrals          ...  NO
SOC integrals                             ...  NO
EPR diamagnetic integrals (GIAO)          ...  NO
EPR gauge integrals                       ...  NO
Field gradient integrals                  ...  NO (   0 nuclei)
Spin-dipole/Fermi contact integrals       ...  NO (   0 nuclei)
Contact density integrals                 ...  NO (   0 nuclei)
Nucleus-orbit integrals                   ...  NO (   0 nuclei)
Geometric perturbations                   ...  NO (   7 nuclei)

Choice of electric origin   ... Center of mass
Position of electric origin ... (  0.8371,  0.3777,  0.1079) 
Choice of magnetic origin   ... GIAO
Position of magnetic origin ... (  0.0000,  0.0000,  0.0000) 

Calculating integrals                     ... Electric Dipole (Length)     done (  0.1 sec)

Property integrals calculated in   0.1 sec

Maximum memory used throughout the entire PROPINT-calculation: 6.3 MB

-------------------------   --------------------
FINAL SINGLE POINT ENERGY      -228.228379482614
-------------------------   --------------------



           ************************************************************
           *        Program running with 64 parallel MPI-processes    *
           *              working on a common directory               *
           ************************************************************
------------------------------------------------------------------------------
                         ORCA SCF GRADIENT CALCULATION
------------------------------------------------------------------------------

Nuc. rep. gradient        (SHARK) ... done (  0.0 sec)
HCore & Overlap gradient  (SHARK) ... done (  0.1 sec)
Split-RIJ-J gradient      (SHARK) ... done (  0.1 sec)
done (  0.5 sec)
XC gradient                       ... done (  0.4 sec)

------------------
CARTESIAN GRADIENT
------------------

   1   C   :    0.014897549   -0.015102813    0.008063846
   2   C   :   -0.049061173    0.048855004   -0.025477282
   3   O   :    0.010759913   -0.016506440    0.006996179
   4   O   :    0.021290683   -0.024439855    0.012163862
   5   H   :    0.001320461    0.001518437   -0.000110137
   6   H   :    0.000367331    0.003026786   -0.000335052
   7   H   :    0.000425236    0.002648882   -0.001301417

Difference to translation invariance:
           :    0.0000000003    0.0000000001    0.0000000000

Difference to rotation invariance:
           :   -0.0002764157   -0.0000001958    0.0000474227

Norm of the Cartesian gradient     ...    0.0872700674
RMS gradient                       ...    0.0190438900
MAX gradient                       ...    0.0490611734

-------
TIMINGS
-------

Total SCF gradient time     ....        1.132 sec

Densities                   ....       0.001 sec  (  0.1%)
[...]
    18:    3033.38 cm**-1
    19:    3117.81 cm**-1
    20:    3141.37 cm**-1


------------
NORMAL MODES
------------

These modes are the Cartesian displacements weighted by the diagonal matrix
M(i,i)=1/sqrt(m[i]) where m[i] is the mass of the displaced atom
Thus, these vectors are normalized but *not* orthogonal

                  0          1          2          3          4          5    
      0       0.000000   0.000000   0.000000   0.000000   0.000000   0.000000
      1       0.000000   0.000000   0.000000   0.000000   0.000000   0.000000
      2       0.000000   0.000000   0.000000   0.000000   0.000000   0.000000
      3       0.000000   0.000000   0.000000   0.000000   0.000000   0.000000
      4       0.000000   0.000000   0.000000   0.000000   0.000000   0.000000
      5       0.000000   0.000000   0.000000   0.000000   0.000000   0.000000
      6       0.000000   0.000000   0.000000   0.000000   0.000000   0.000000
      7       0.000000   0.000000   0.000000   0.000000   0.000000   0.000000
      8       0.000000   0.000000   0.000000   0.000000   0.000000   0.000000
      9       0.000000   0.000000   0.000000   0.000000   0.000000   0.000000
     10       0.000000   0.000000   0.000000   0.000000   0.000000   0.000000
     11       0.000000   0.000000   0.000000   0.000000   0.000000   0.000000
     12       0.000000   0.000000   0.000000   0.000000   0.000000   0.000000
     13       0.000000   0.000000   0.000000   0.000000   0.000000   0.000000
     14       0.000000   0.000000   0.000000   0.000000   0.000000   0.000000
     15       0.000000   0.000000   0.000000   0.000000   0.000000   0.000000
     16       0.000000   0.000000   0.000000   0.000000   0.000000   0.000000
     17       0.000000   0.000000   0.000000   0.000000   0.000000   0.000000
     18       0.000000   0.000000   0.000000   0.000000   0.000000   0.000000
     19       0.000000   0.000000   0.000000   0.000000   0.000000   0.000000
     20       0.000000   0.000000   0.000000   0.000000   0.000000   0.000000
                  6          7          8          9         10         11    
      0       0.001325   0.029039  -0.017265  -0.402429   0.246300   0.033389
      1      -0.001638  -0.156955   0.013847  -0.093596   0.060901  -0.168863
      2      -0.005091   0.054362   0.041413  -0.080146   0.049245   0.057847
      3       0.004626  -0.012164  -0.063898  -0.025667  -0.432160  -0.013797
      4      -0.004685   0.130000   0.069968   0.003355  -0.076066   0.022757
      5      -0.017996  -0.037329   0.243850  -0.016663  -0.092874  -0.008261
      6      -0.012903   0.175986   0.022473   0.231903   0.059485   0.046639
      7       0.015435   0.077541  -0.025539  -0.089562  -0.319569   0.048153
      8       0.052088   0.021706  -0.081555   0.090473   0.109052  -0.001944
      9       0.009852  -0.200505   0.028966   0.176891   0.005680  -0.059062
     10      -0.011976   0.008722  -0.025737   0.173801   0.321404   0.032134
     11      -0.041120  -0.056255  -0.091244  -0.000794  -0.092461  -0.025931
     12       0.126888  -0.468642   0.089689  -0.455955   0.340533   0.724598
     13      -0.156598  -0.444436  -0.090003  -0.111762   0.092684   0.241715
     14      -0.493677   0.010186  -0.313904  -0.077831   0.057408   0.117238
     15      -0.101172   0.315057  -0.555222  -0.449149   0.406666  -0.385740
     16       0.565961  -0.314380  -0.117350  -0.073305   0.029874   0.136962
     17       0.140405   0.154456  -0.305650  -0.093440   0.109261  -0.069397
     18      -0.048197   0.341670   0.616203  -0.482240   0.433148  -0.375126
     19      -0.388925  -0.289155   0.022494  -0.076677   0.029023   0.087955
     20       0.454275   0.180757  -0.036879  -0.098581   0.089867  -0.196259
                 12         13         14         15         16         17    
      0       0.041326   0.148888   0.023722  -0.026485   0.016642   0.002074
      1      -0.044598   0.030487   0.058988   0.049330  -0.020274  -0.042125
      2      -0.155918   0.030453  -0.012405  -0.025975  -0.056415   0.012976
      3      -0.065526   0.011651  -0.286045   0.120171  -0.000061  -0.068963
      4       0.071247   0.002249  -0.053616   0.006990  -0.005096   0.777678
      5       0.244103   0.002353  -0.060286   0.028234  -0.018591  -0.245806
      6       0.013441  -0.010548   0.091295  -0.028660   0.000596  -0.094145
      7      -0.016007  -0.025035   0.178353  -0.057502   0.002397  -0.300197
      8      -0.049734   0.004572  -0.028009   0.009242   0.001017   0.062813
      9       0.013636  -0.015081   0.111805  -0.053442   0.001180   0.144138
     10      -0.013792   0.021052  -0.132839   0.062711  -0.001360  -0.252031
     11      -0.050812  -0.010208   0.068610  -0.032068   0.005244   0.111989
     12      -0.086018  -0.471243   0.172267   0.294431  -0.195673   0.235368
     13       0.077461  -0.314757   0.123943   0.243969   0.205941   0.144664
     14       0.263807  -0.029588   0.011327   0.047721   0.688895   0.014569
     15       0.556254  -0.468253  -0.038090   0.019784  -0.334967  -0.090729
     16       0.225783  -0.063555  -0.569175  -0.590880   0.335815  -0.096925
     17       0.236219  -0.320724  -0.261358  -0.208106  -0.107683  -0.084478
     18      -0.611640  -0.566640  -0.232020  -0.127416   0.304873  -0.141114
     19      -0.147803   0.051448  -0.341164  -0.406860  -0.255923  -0.047384
     20       0.045059   0.048858   0.471783   0.495759   0.213143   0.069782
                 18         19         20    
      0      -0.044812  -0.022022   0.015639
      1      -0.015405   0.024912  -0.088648
      2      -0.006279   0.086244   0.029649
      3       0.003279  -0.000219  -0.000172
      4       0.000312   0.000173  -0.004585
      5       0.000790   0.000693   0.001300
      6      -0.000441   0.000041  -0.000038
      7      -0.000333  -0.000013   0.001524
      8      -0.000036  -0.000099  -0.000430
      9      -0.000599   0.000054  -0.000125
     10       0.000384  -0.000072   0.001273
     11      -0.000243  -0.000256  -0.000435
     12       0.224252  -0.014636  -0.372282
     13      -0.439656   0.024022   0.690547
     14       0.197435   0.006642  -0.314997
     15       0.265597   0.323389   0.166986
     16       0.172847   0.216614   0.091806
     17      -0.515096  -0.588522  -0.300988
     18       0.021554  -0.045239   0.023583
     19       0.445841  -0.538184   0.284196
     20       0.387499  -0.448409   0.260938


-----------
IR SPECTRUM
-----------

 Mode   freq       eps      Int      T**2         TX        TY        TZ
       cm**-1   L/(mol*cm) km/mol    a.u.
----------------------------------------------------------------------------
  6:     18.60   0.000144    0.73  0.002414  (-0.013701  0.018832  0.043264)
  7:    425.78   0.000139    0.70  0.000102  ( 0.005548 -0.007546  0.003781)
  8:    597.50   0.000995    5.03  0.000520  (-0.005725  0.006427  0.021113)
  9:    634.59   0.000807    4.08  0.000397  (-0.018771 -0.005337 -0.003981)
 10:    887.93   0.018220   92.08  0.006403  (-0.077282 -0.012031 -0.016917)
 11:    967.99   0.001253    6.33  0.000404  (-0.004556 -0.019053  0.004501)
 12:   1016.27   0.001474    7.45  0.000453  (-0.005531  0.005749  0.019721)
 13:   1281.32   0.001099    5.56  0.000268  (-0.014918 -0.006440 -0.001933)
 14:   1421.06   0.052273  264.17  0.011479  (-0.102534 -0.023817 -0.019963)
 15:   1439.51   0.019115   96.60  0.004144  ( 0.061771 -0.003371  0.017800)
 16:   1448.56   0.000255    1.29  0.000055  (-0.004314  0.002119  0.005652)
 17:   1832.60   0.104641  528.81  0.017819  (-0.012153  0.126671 -0.040319)
 18:   3033.38   0.006043   30.54  0.000622  (-0.023655 -0.007032 -0.003564)
 19:   3117.81   0.011452   57.87  0.001146  (-0.007765  0.009068  0.031682)
 20:   3141.37   0.013285   67.14  0.001320  ( 0.007887 -0.033421  0.011855)

* The epsilon (eps) is given for a Dirac delta lineshape.
** The dipole moment derivative (T) already includes vibrational overlap.

The first frequency considered to be a vibration is 6
The total number of vibrations considered is 15


--------------------------
THERMOCHEMISTRY AT 298.15K
--------------------------

Temperature         ...   298.15 K
Pressure            ...     1.00 atm
Total Mass          ...    59.04 AMU
Quasi RRHO          ...     True
Cut-Off Frequency   ...     1.00 cm^-1

Throughout the following assumptions are being made:
  (1) The electronic state is orbitally nondegenerate
  (2) There are no thermally accessible electronically excited states
  (3) Hindered rotations indicated by low frequency modes are not
      treated as such but are treated as vibrations and this may
      cause some error
  (4) All equations used are the standard statistical mechanics
      equations for an ideal gas
  (5) All vibrations are strictly harmonic

freq.      18.60  E(vib)   ...       0.57 
freq.     425.78  E(vib)   ...       0.18 
freq.     597.50  E(vib)   ...       0.10 
freq.     634.59  E(vib)   ...       0.09 
freq.     887.93  E(vib)   ...       0.04 
freq.     967.99  E(vib)   ...       0.03 
freq.    1016.27  E(vib)   ...       0.02 
freq.    1281.32  E(vib)   ...       0.01 
freq.    1421.06  E(vib)   ...       0.00 
freq.    1439.51  E(vib)   ...       0.00 
freq.    1448.56  E(vib)   ...       0.00 
freq.    1832.60  E(vib)   ...       0.00 
freq.    3033.38  E(vib)   ...       0.00 
freq.    3117.81  E(vib)   ...       0.00 
freq.    3141.37  E(vib)   ...       0.00 

------------
INNER ENERGY
------------

The inner energy is: U= E(el) + E(ZPE) + E(vib) + E(rot) + E(trans)
    E(el)   - is the total energy from the electronic structure calculation
              = E(kin-el) + E(nuc-el) + E(el-el) + E(nuc-nuc)
    E(ZPE)  - the the zero temperature vibrational energy from the frequency calculation
    E(vib)  - the the finite temperature correction to E(ZPE) due to population
              of excited vibrational states
    E(rot)  - is the rotational thermal energy
    E(trans)- is the translational thermal energy

Summary of contributions to the inner energy U:
Electronic energy                ...   -228.23267387 Eh
Zero point energy                ...      0.04844357 Eh      30.40 kcal/mol
Thermal vibrational correction   ...      0.00165617 Eh       1.04 kcal/mol
Thermal rotational correction    ...      0.00141627 Eh       0.89 kcal/mol
Thermal translational correction ...      0.00141627 Eh       0.89 kcal/mol
-----------------------------------------------------------------------
Total thermal energy                   -228.17974160 Eh


Summary of corrections to the electronic energy:
(perhaps to be used in another calculation)
Total thermal correction                  0.00448871 Eh       2.82 kcal/mol
Non-thermal (ZPE) correction              0.04844357 Eh      30.40 kcal/mol
-----------------------------------------------------------------------
Total correction                          0.05293228 Eh      33.22 kcal/mol


--------
ENTHALPY
--------

The enthalpy is H = U + kB*T
                kB is Boltzmann's constant
Total thermal energy              ...   -228.17974160 Eh 
Thermal Enthalpy correction       ...      0.00094421 Eh       0.59 kcal/mol
-----------------------------------------------------------------------
Total Enthalpy                    ...   -228.17879739 Eh


Note: Only C1 symmetry has been detected, increase convergence thresholds 
      if your molecule has a higher symmetry. Symmetry factor of 1.0 is   
      used for the rotational entropy correction. 
 

Note: Rotational entropy computed according to Herzberg 
Infrared and Raman Spectra, Chapter V,1, Van Nostrand Reinhold, 1945 
Point Group:  C1, Symmetry Number:   1  
Rotational constants in cm-1:     0.384495     0.333105     0.184636 

Vibrational entropy computed according to the QRRHO of S. Grimme
Chem.Eur.J. 2012 18 9955 using a reference frequency of 100.0 cm-1


-------
ENTROPY
-------

The entropy contributions are T*S = T*(S(el)+S(vib)+S(rot)+S(trans))
     S(el)   - electronic entropy
     S(vib)  - vibrational entropy
     S(rot)  - rotational entropy
     S(trans)- translational entropy
The entropies will be listed as multiplied by the temperature to get
units of energy

Electronic entropy                ...      0.00000000 Eh      0.00 kcal/mol
Vibrational entropy               ...      0.00316307 Eh      1.98 kcal/mol
Rotational entropy                ...      0.01127855 Eh      7.08 kcal/mol
Translational entropy             ...      0.01812503 Eh     11.37 kcal/mol
-----------------------------------------------------------------------
Final entropy term                ...      0.03256665 Eh     20.44 kcal/mol

In case the symmetry of your molecule has not been determined correctly
or in case you have a reason to use a different symmetry number we print 
out the resulting rotational entropy values for sn=1,12:

 non-linear molecules -----------------------------------
|  sn= 1 | S(rot)=       0.01127855 Eh      7.08 kcal/mol|
|  sn= 2 | S(rot)=       0.01062409 Eh      6.67 kcal/mol|
|  sn= 3 | S(rot)=       0.01024126 Eh      6.43 kcal/mol|
|  sn= 4 | S(rot)=       0.00996964 Eh      6.26 kcal/mol|
|  sn= 5 | S(rot)=       0.00975895 Eh      6.12 kcal/mol|
|  sn= 6 | S(rot)=       0.00958680 Eh      6.02 kcal/mol|
|  sn= 7 | S(rot)=       0.00944126 Eh      5.92 kcal/mol|
|  sn= 8 | S(rot)=       0.00931518 Eh      5.85 kcal/mol|
|  sn= 9 | S(rot)=       0.00920397 Eh      5.78 kcal/mol|
|  sn=10 | S(rot)=       0.00910449 Eh      5.71 kcal/mol|
|  sn=11 | S(rot)=       0.00901450 Eh      5.66 kcal/mol|
|  sn=12 | S(rot)=       0.00893235 Eh      5.61 kcal/mol|
 linear molecules ---------------------------------------
|  Dinfh | S(rot)=       0.00692088 Eh      4.34 kcal/mol|
|  Cinfv | S(rot)=       0.00757533 Eh      4.75 kcal/mol|
 --------------------------------------------------------


-------------------
GIBBS FREE ENERGY
-------------------

The Gibbs free energy is G = H - T*S

Total enthalpy                    ...   -228.17879739 Eh 
Total entropy correction          ...     -0.03256665 Eh    -20.44 kcal/mol
-----------------------------------------------------------------------
Final Gibbs free energy         ...   -228.21136403 Eh

For completeness - the Gibbs free energy minus the electronic energy
G-E(el)                           ...      0.02130984 Eh     13.37 kcal/mol


Maximum memory used throughout the entire PROP-calculation: 13.9 MB

--------------------------------
SUGGESTED CITATIONS FOR THIS RUN
--------------------------------

Below you find a list of papers that are relevant to this ORCA run
We neither can nor want to force you to cite these papers, but we appreciate if you do
You receive ORCA, which is the product of decades of hard work by many enthusiastic individuals, for free
The only thing we kindly ask in return is that you cite our papers,
We deeply appreciate it, if you show your appreciation for ORCA by not just citing the generic ORCA reference.

Please note that relegating all ORCA citations to the supporting information does *not* help us.
SI sections are not indexed - citations you put there will not count into any citation statistics
But we need these citations in order to attract the funding resources that allow us to do what we are doing

Therefore, if you are a happy ORCA user, please consider citing a few of the papers listed below in the main body of your paper

In addition to the list printed below, the program has created the file /lustre/project/xlzhang/jingyi/chemsmart/test_pka/orca/pka_scale_frag3_pka_A_opt.bibtex that contains the list in bibtex format
You can import this file easily into all common literature databanks and citation aid programs


List of essential papers. We consider these as the minimum necessary citations

  1. Neese, F.
     Software update: the ORCA program system, version 6.0
     WIRES Comput. Molec. Sci. 2025 15(1), e70019
     doi.org/10.1002/wcms.7019

List of papers to cite with high priority. The work reported in these papers was absolutely
necessary for this run to complete.
Our perspective: the developers of density functionals and basis sets usually get cited in chemistry papers
Good! But without the algorithms to do something with them, the functionals or basis sets would not do anything.
Hence, in our opinion, the algorithm design and method developments papers are equally worthy of getting cited

  1. Neese, F.
     An improvement of the resolution of the identity approximation for the formation of the Coulomb matrix
     J. Comp. Chem. 2003 24(14), 1740-1747
     doi.org/10.1002/jcc.10318
  2. Neese, F.; Wennmohs, F.; Hansen, A.; Becker, U.
     Efficient, approximate and parallel Hartree-Fock and hybrid DFT calculations. A 'chain-of-spheres' algorithm for the Hartree-Fock exchange
     Chem. Phys. 2009 356(1-3), 98-109
     doi.org/10.1016/j.chemphys.2008.10.036
  3. Bykov, D.; Petrenko, T.; Izsak, R.; Kossmann, S.; Becker, U.; Valeev, E.; Neese, F.
     Efficient implementation of the analytic second derivatives of Hartree-Fock and hybrid DFT energies: a detailed analysis of different approximations
     Molec. Phys. 2015 113 , 1961-1977
     doi.org/10.1080/00268976.2015.1025114
  4. Helmich-Paris, B.; de Souza, B.; Neese, F.; Izsák, R.
     An improved chain of spheres for exchange algorithm
     J. Chem. Phys. 2021 155(10), 104109
     doi.org/10.1063/5.0058766
  5. Neese, F.
     The SHARK Integral Generation and Digestion System
     J. Comp. Chem. 2022 44(3), 381
     doi.org/10.1002/jcc.26942

List of suggested additional citations. These are papers that are important in the 'surrounding' of 
of this run, or papers that preceded the highly important papers. If you like your results we are grateful for a citation.

  1. Izsak, R.; Neese, F.
     An overlap fitted chain of spheres exchange method
     J. Chem. Phys. 2011 135 , 144105
     doi.org/10.1063/1.3646921
  2. Izsak, R.; Hansen, A.; Neese, F.
     The resolution of identity and chain of spheres approximations for the LPNO-CCSD singles Fock term
     Molec. Phys. 2012 110 , 2413-2417
     doi.org/10.1080/00268976.2012.687466
  3. Neese, F.
     The ORCA program system
     WIRES Comput. Molec. Sci. 2012 2(1), 73-78
     doi.org/10.1002/wcms.81
  4. Izsak, R.; Neese, F.; Klopper, W.
     Robust fitting techniques in the chain of spheres approximation to the Fock exchange: The role of the complementary space
     J. Chem. Phys. 2013 139 , 
     doi.org/10.1063/1.4819264
  5. Neese, F.
     Software update: the ORCA program system, version 4.0
     WIRES Comput. Molec. Sci. 2018 8(1), 1-6
     doi.org/10.1002/wcms.1327
  6. Neese, F.; Wennmohs, F.; Becker, U.; Riplinger, C.
     The ORCA quantum chemistry program package
     J. Chem. Phys. 2020 152(22), 224108
     doi.org/10.1063/5.0004608
  7. Neese, F.
     Software update: The ORCA program system—Version 5.0
     WIRES Comput. Molec. Sci. 2022 12(1), e1606
     doi.org/10.1002/wcms.1606

List of optional additional citations

  1. Neese, F.
     Approximate second-order SCF convergence for spin unrestricted wavefunctions
     Chem. Phys. Lett. 2000 325(1-3), 93-98
     doi.org/10.1016/s0009-2614(00)00662-x

Timings for individual modules:

Sum of individual times          ...      311.024 sec (=   5.184 min)
Startup calculation              ...       54.587 sec (=   0.910 min)  17.6 %
SCF iterations                   ...      177.225 sec (=   2.954 min)  57.0 %
Property integrals               ...       30.374 sec (=   0.506 min)   9.8 %
SCF Response                     ...       12.757 sec (=   0.213 min)   4.1 %
Property calculations            ...        5.470 sec (=   0.091 min)   1.8 %
SCF Gradient evaluation          ...       30.554 sec (=   0.509 min)   9.8 %
Geometry relaxation              ...        0.057 sec (=   0.001 min)   0.0 %
                             ****ORCA TERMINATED NORMALLY****
TOTAL RUN TIME: 0 days 0 hours 6 minutes 25 seconds 535 msec
