 Entering Gaussian System, Link 0=/project/xlzhang/shared/bin/g16/g16
 Input=/lustre/project/xlzhang/jingyi/chemsmart/test_pka/gaussian/pka_scale_frag5_pka_A_sp.com
 Output=/lustre/project/xlzhang/jingyi/chemsmart/test_pka/gaussian/pka_scale_frag5_pka_A_sp.log
 Initial command:
 /project/xlzhang/shared/bin/g16/l1.exe "/lustre/project/xlzhang/jingyi/chemsmart/test_pka/gaussian/Gau-826951.inp" -scrdir="/lustre/project/xlzhang/jingyi/chemsmart/test_pka/gaussian/"
 Entering Link 1 = /project/xlzhang/shared/bin/g16/l1.exe PID=    826959.
  
 Copyright (c) 1988-2017, Gaussian, Inc.  All Rights Reserved.
  
 This is part of the Gaussian(R) 16 program.  It is based on
 the Gaussian(R) 09 system (copyright 2009, Gaussian, Inc.),
 the Gaussian(R) 03 system (copyright 2003, Gaussian, Inc.),
 the Gaussian(R) 98 system (copyright 1998, Gaussian, Inc.),
 the Gaussian(R) 94 system (copyright 1995, Gaussian, Inc.),
 the Gaussian 92(TM) system (copyright 1992, Gaussian, Inc.),
 the Gaussian 90(TM) system (copyright 1990, Gaussian, Inc.),
 the Gaussian 88(TM) system (copyright 1988, Gaussian, Inc.),
 the Gaussian 86(TM) system (copyright 1986, Carnegie Mellon
 University), and the Gaussian 82(TM) system (copyright 1983,
 Carnegie Mellon University). Gaussian is a federally registered
 trademark of Gaussian, Inc.
  
 This software contains proprietary and confidential information,
 including trade secrets, belonging to Gaussian, Inc.
  
 This software is provided under written license and may be
 used, copied, transmitted, or stored only in accord with that
 written license.
  
 The following legend is applicable only to US Government
 contracts under FAR:
  
                    RESTRICTED RIGHTS LEGEND
  
 Use, reproduction and disclosure by the US Government is
 subject to restrictions as set forth in subparagraphs (a)
 and (c) of the Commercial Computer Software - Restricted
 Rights clause in FAR 52.227-19.
  
 Gaussian, Inc.
 340 Quinnipiac St., Bldg. 40, Wallingford CT 06492
  
  
 ---------------------------------------------------------------
 Warning -- This program may not be used in any manner that
 competes with the business of Gaussian, Inc. or will provide
 assistance to any competitor of Gaussian, Inc.  The licensee
 of this program is prohibited from giving any competitor of
 Gaussian, Inc. access to this program.  By using this program,
 the user acknowledges that Gaussian, Inc. is engaged in the
 business of creating and licensing software in the field of
 computational chemistry and represents and warrants to the
 licensee that it is not a competitor of Gaussian, Inc. and that
 it will not use this program in any manner prohibited above.
 ---------------------------------------------------------------
  

 Cite this work as:
 Gaussian 16, Revision B.01,
 M. J. Frisch, G. W. Trucks, H. B. Schlegel, G. E. Scuseria, 
 M. A. Robb, J. R. Cheeseman, G. Scalmani, V. Barone, 
 G. A. Petersson, H. Nakatsuji, X. Li, M. Caricato, A. V. Marenich, 
 J. Bloino, B. G. Janesko, R. Gomperts, B. Mennucci, H. P. Hratchian, 
 J. V. Ortiz, A. F. Izmaylov, J. L. Sonnenberg, D. Williams-Young, 
 F. Ding, F. Lipparini, F. Egidi, J. Goings, B. Peng, A. Petrone, 
 T. Henderson, D. Ranasinghe, V. G. Zakrzewski, J. Gao, N. Rega, 
 G. Zheng, W. Liang, M. Hada, M. Ehara, K. Toyota, R. Fukuda, 
 J. Hasegawa, M. Ishida, T. Nakajima, Y. Honda, O. Kitao, H. Nakai, 
 T. Vreven, K. Throssell, J. A. Montgomery, Jr., J. E. Peralta, 
 F. Ogliaro, M. J. Bearpark, J. J. Heyd, E. N. Brothers, K. N. Kudin, 
 V. N. Staroverov, T. A. Keith, R. Kobayashi, J. Normand, 
 K. Raghavachari, A. P. Rendell, J. C. Burant, S. S. Iyengar, 
 J. Tomasi, M. Cossi, J. M. Millam, M. Klene, C. Adamo, R. Cammi, 
 J. W. Ochterski, R. L. Martin, K. Morokuma, O. Farkas, 
 J. B. Foresman, and D. J. Fox, Gaussian, Inc., Wallingford CT, 2016.
 
 ******************************************
 Gaussian 16:  ES64L-G16RevB.01 20-Dec-2017
                10-Jun-2026 
 ******************************************
 %chk=pka_scale_frag5_pka_A_sp.chk
 %nprocshared=64
 Will use up to   64 processors via shared memory.
 %mem=180GB
 -------------------------------------------------
 # mn15 def2svp scrf=(smd,solvent=TetraHydroFuran)
 -------------------------------------------------
 1/38=1,172=1/1;
 2/12=2,17=6,18=5,40=1/2;
 3/5=43,7=101,11=2,25=1,30=1,70=32201,72=20,74=-73/1,2,3;
 4//1;
 5/5=2,38=5,53=20/2;
 6/7=2,8=2,9=2,10=2,28=1/1;
 99/5=1,9=1/99;
 ----------------------------
 Gaussian pKa calculation job
 ----------------------------
 Symbolic Z-matrix:
 Charge = -1 Multiplicity = 1
 C                     0.07396   0.15962  -0.00005 
 C                     0.56886  -1.15072  -0.00018 
 C                     1.94381  -1.39348  -0.00016 
 C                     2.84917  -0.32699   0.00003 
 C                     2.36475   0.98432   0.00021 
 C                     0.98884   1.22102   0.00015 
 C                    -1.42617   0.50293  -0.00011 
 O                    -1.68971   1.71117  -0.00031 
 S                    -2.52253  -0.8019    0.00019 
 H                    -0.17643  -1.95177  -0.00026 
 H                     2.3157   -2.42297  -0.00032 
 H                     3.92681  -0.51765   0.00008 
 H                     3.06673   1.82446   0.00038 
 H                     0.56612   2.22873   0.00019 
 
                          Input orientation:                          
 ---------------------------------------------------------------------
 Center     Atomic      Atomic             Coordinates (Angstroms)
 Number     Number       Type             X           Y           Z
 ---------------------------------------------------------------------
      1          6           0        0.073960    0.159619   -0.000050
      2          6           0        0.568859   -1.150716   -0.000175
      3          6           0        1.943807   -1.393476   -0.000163
      4          6           0        2.849168   -0.326989    0.000031
      5          6           0        2.364750    0.984322    0.000208
      6          6           0        0.988837    1.221023    0.000147
      7          6           0       -1.426171    0.502932   -0.000108
      8          8           0       -1.689713    1.711169   -0.000313
      9         16           0       -2.522530   -0.801903    0.000194
     10          1           0       -0.176428   -1.951770   -0.000260
     11          1           0        2.315703   -2.422973   -0.000319
     12          1           0        3.926807   -0.517647    0.000075
     13          1           0        3.066732    1.824462    0.000379
     14          1           0        0.566118    2.228727    0.000185
 ---------------------------------------------------------------------
                    Distance matrix (angstroms):
                    1          2          3          4          5
     1  C    0.000000
     2  C    1.400679   0.000000
     3  C    2.430727   1.396214   0.000000
     4  C    2.817546   2.424528   1.398954   0.000000
     5  C    2.434718   2.789913   2.414770   1.397926   0.000000
     6  C    1.401277   2.408636   2.783446   2.420160   1.396125
     7  C    1.538914   2.591273   3.866926   4.355146   3.821363
     8  O    2.349010   3.645756   4.779256   4.975493   4.119099
     9  S    2.768806   3.111006   4.505344   5.392651   5.203471
    10  H    2.126184   1.094139   2.192507   3.434260   3.883069
    11  H    3.419824   2.161042   1.094610   2.162807   3.407648
    12  H    3.911920   3.417103   2.167802   1.094375   2.167010
    13  H    3.424673   3.884721   3.408238   2.162424   1.094812
    14  H    2.126835   3.379444   3.875356   3.426952   2.187149
                    6          7          8          9         10
     6  C    0.000000
     7  C    2.519508   0.000000
     8  O    2.723027   1.236645   0.000000
     9  S    4.052398   1.704288   2.647473   0.000000
    10  H    3.380009   2.754527   3.963225   2.612736   0.000000
    11  H    3.878051   4.750004   5.756256   5.102584   2.536286
    12  H    3.413889   5.449400   6.042592   6.455598   4.346636
    13  H    2.163744   4.683227   4.757794   6.175568   4.977752
    14  H    1.092776   2.635827   2.314442   4.327177   4.245931
                   11         12         13         14
    11  H    0.000000
    12  H    2.495180   0.000000
    13  H    4.313322   2.495036   0.000000
    14  H    4.969845   4.340138   2.533081   0.000000
 Stoichiometry    C7H5OS(1-)
 Framework group  C1[X(C7H5OS)]
 Deg. of freedom    36
 Full point group                 C1      NOp   1
 Largest Abelian subgroup         C1      NOp   1
 Largest concise Abelian subgroup C1      NOp   1
                         Standard orientation:                         
 ---------------------------------------------------------------------
 Center     Atomic      Atomic             Coordinates (Angstroms)
 Number     Number       Type             X           Y           Z
 ---------------------------------------------------------------------
      1          6           0       -0.073960    0.159619    0.000050
      2          6           0       -0.568859   -1.150716    0.000175
      3          6           0       -1.943807   -1.393476    0.000163
      4          6           0       -2.849168   -0.326989   -0.000031
      5          6           0       -2.364750    0.984322   -0.000208
      6          6           0       -0.988837    1.221023   -0.000147
      7          6           0        1.426171    0.502932    0.000108
      8          8           0        1.689713    1.711169    0.000313
      9         16           0        2.522530   -0.801902   -0.000194
     10          1           0        0.176428   -1.951770    0.000260
     11          1           0       -2.315702   -2.422973    0.000319
     12          1           0       -3.926807   -0.517648   -0.000075
     13          1           0       -3.066732    1.824462   -0.000379
     14          1           0       -0.566118    2.228727   -0.000185
 ---------------------------------------------------------------------
 Rotational constants (GHZ):           3.1763285           0.9550363           0.7342632
 Standard basis: def2SVP (5D, 7F)
 There are   164 symmetry adapted cartesian basis functions of A   symmetry.
 There are   155 symmetry adapted basis functions of A   symmetry.
   155 basis functions,   272 primitive gaussians,   164 cartesian basis functions
    36 alpha electrons       36 beta electrons
       nuclear repulsion energy       451.4154113744 Hartrees.
 NAtoms=   14 NActive=   14 NUniq=   14 SFac= 1.00D+00 NAtFMM=   60 NAOKFM=F Big=F
 Integral buffers will be    131072 words long.
 Raffenetti 2 integral format.
 Two-electron integral symmetry is turned on.
 ------------------------------------------------------------------------------
 Polarizable Continuum Model (PCM)
 =================================
 Model                : PCM.
 Atomic radii         : SMD-Coulomb.
 Polarization charges : Total charges.
 Charge compensation  : None.
 Solution method      : On-the-fly selection.
 Cavity type          : VdW (van der Waals Surface) (Alpha=1.000).
 Cavity algorithm     : GePol (No added spheres)
                        Default sphere list used, NSphG=   14.
                        Lebedev-Laikov grids with approx.  5.0 points / Ang**2.
                        Smoothing algorithm: York/Karplus (Gamma=1.0000).
                        Polarization charges: spherical gaussians, with
                                              point-specific exponents (IZeta= 3).
                        Self-potential: point-specific (ISelfS= 7).
                        Self-field    : sphere-specific E.n sum rule (ISelfD= 2).
 Solvent              : TetraHydroFuran, Eps=   7.425700 Eps(inf)=   1.974025
 ------------------------------------------------------------------------------
 Spheres list:
 ISph  on   Nord     Re0    Alpha      Xe            Ye            Ze
    1   C      1    1.8500  1.000     -0.073960      0.159619      0.000050
    2   C      2    1.8500  1.000     -0.568859     -1.150716      0.000175
    3   C      3    1.8500  1.000     -1.943807     -1.393476      0.000163
    4   C      4    1.8500  1.000     -2.849168     -0.326989     -0.000031
    5   C      5    1.8500  1.000     -2.364750      0.984322     -0.000208
    6   C      6    1.8500  1.000     -0.988837      1.221023     -0.000147
    7   C      7    1.8500  1.000      1.426171      0.502932      0.000108
    8   O      8    2.2940  1.000      1.689713      1.711169      0.000313
    9   S      9    2.4900  1.000      2.522530     -0.801902     -0.000194
   10   H     10    1.2000  1.000      0.176428     -1.951770      0.000260
   11   H     11    1.2000  1.000     -2.315702     -2.422973      0.000319
   12   H     12    1.2000  1.000     -3.926807     -0.517648     -0.000075
   13   H     13    1.2000  1.000     -3.066732      1.824462     -0.000379
   14   H     14    1.2000  1.000     -0.566118      2.228727     -0.000185
 ------------------------------------------------------------------------------
 ------------------------------------------------------------------------------
 Atomic radii for non-electrostatic terms: SMD-CDS.
 ------------------------------------------------------------------------------
 Nuclear repulsion after PCM non-electrostatic terms =      451.4096629346 Hartrees.
 One-electron integrals computed using PRISM.
   1 Symmetry operations used in ECPInt.
 ECPInt:  NShTT=    2556 NPrTT=    9872 LenC2=    2508 LenP2D=    7517.
 LDataN:  DoStor=T MaxTD1= 4 Len=   56
 NBasis=   155 RedAO= T EigKep=  3.03D-04  NBF=   155
 NBsUse=   155 1.00D-06 EigRej= -1.00D+00 NBFU=   155
 ExpMin= 1.22D-01 ExpMax= 9.18D+03 ExpMxC= 1.38D+03 IAcc=3 IRadAn=         5 AccDes= 0.00D+00
 Harris functional with IExCor= 1009 and IRadAn=       5 diagonalized for initial guess.
 HarFok:  IExCor= 1009 AccDes= 0.00D+00 IRadAn=         5 IDoV= 1 UseB2=F ITyADJ=14
 ICtDFT=  3500011 ScaDFX=  1.000000  1.000000  1.000000  1.000000
 FoFCou: FMM=F IPFlag=           0 FMFlag=      100000 FMFlg1=           0
         NFxFlg=           0 DoJE=T BraDBF=F KetDBF=T FulRan=T
         wScrn=  0.000000 ICntrl=       500 IOpCl=  0 I1Cent=   200000004 NGrid=           0
         NMat0=    1 NMatS0=      1 NMatT0=    0 NMatD0=    1 NMtDS0=    0 NMtDT0=    0
 Petite list used in FoFCou.
 Requested convergence on RMS density matrix=1.00D-08 within 128 cycles.
 Requested convergence on MAX density matrix=1.00D-06.
 Requested convergence on             energy=1.00D-06.
 No special actions if energy rises.
 Inv3:  Mode=1 IEnd=     5989707.
 Iteration    1 A*A^-1 deviation from unit magnitude is 4.66D-15 for   1397.
 Iteration    1 A*A^-1 deviation from orthogonality  is 1.83D-15 for   1413   1412.
 Iteration    1 A^-1*A deviation from unit magnitude is 4.66D-15 for   1397.
 Iteration    1 A^-1*A deviation from orthogonality  is 2.06D-15 for   1390   1148.
 Error on total polarization charges =  0.02018
 SCF Done:  E(RMN15) =  -742.341726224     A.U. after   13 cycles
            NFock= 13  Conv=0.98D-08     -V/T= 2.0066
 SMD-CDS (non-electrostatic) energy       (kcal/mol) =      -3.61
 (included in total energy above)

 **********************************************************************

            Population analysis using the SCF Density.

 **********************************************************************

 Orbital symmetries:
       Occupied  (A) (A) (A) (A) (A) (A) (A) (A) (A) (A) (A) (A)
                 (A) (A) (A) (A) (A) (A) (A) (A) (A) (A) (A) (A)
                 (A) (A) (A) (A) (A) (A) (A) (A) (A) (A) (A) (A)
       Virtual   (A) (A) (A) (A) (A) (A) (A) (A) (A) (A) (A) (A)
                 (A) (A) (A) (A) (A) (A) (A) (A) (A) (A) (A) (A)
                 (A) (A) (A) (A) (A) (A) (A) (A) (A) (A) (A) (A)
                 (A) (A) (A) (A) (A) (A) (A) (A) (A) (A) (A) (A)
                 (A) (A) (A) (A) (A) (A) (A) (A) (A) (A) (A) (A)
                 (A) (A) (A) (A) (A) (A) (A) (A) (A) (A) (A) (A)
                 (A) (A) (A) (A) (A) (A) (A) (A) (A) (A) (A) (A)
                 (A) (A) (A) (A) (A) (A) (A) (A) (A) (A) (A) (A)
                 (A) (A) (A) (A) (A) (A) (A) (A) (A) (A) (A) (A)
                 (A) (A) (A) (A) (A) (A) (A) (A) (A) (A) (A)
 The electronic state is 1-A.
 Alpha  occ. eigenvalues --  -87.63411 -18.72489 -10.08267 -10.03461 -10.03272
 Alpha  occ. eigenvalues --  -10.03243 -10.02497 -10.02457 -10.02157  -7.57482
 Alpha  occ. eigenvalues --   -5.77130  -5.76410  -5.75926  -0.98696  -0.86571
 Alpha  occ. eigenvalues --   -0.76066  -0.75115  -0.68033  -0.61414  -0.60177
 Alpha  occ. eigenvalues --   -0.54319  -0.49005  -0.46343  -0.44401  -0.43079
 Alpha  occ. eigenvalues --   -0.42259  -0.40719  -0.37086  -0.36503  -0.36053
 Alpha  occ. eigenvalues --   -0.34052  -0.26736  -0.25977  -0.22623  -0.19389
 Alpha  occ. eigenvalues --   -0.18044
 Alpha virt. eigenvalues --    0.01898   0.04164   0.11873   0.13521   0.17491
 Alpha virt. eigenvalues --    0.19322   0.22473   0.22743   0.22952   0.24887
 Alpha virt. eigenvalues --    0.32131   0.32540   0.34812   0.35362   0.37336
 Alpha virt. eigenvalues --    0.37925   0.39880   0.43935   0.45571   0.47146
 Alpha virt. eigenvalues --    0.50324   0.52300   0.52534   0.54116   0.55062
 Alpha virt. eigenvalues --    0.55654   0.57734   0.59208   0.63325   0.63546
 Alpha virt. eigenvalues --    0.64480   0.68555   0.69281   0.71030   0.72244
 Alpha virt. eigenvalues --    0.73263   0.73528   0.75203   0.76747   0.78437
 Alpha virt. eigenvalues --    0.78864   0.79312   0.79827   0.81796   0.82587
 Alpha virt. eigenvalues --    0.82874   0.84832   0.87108   0.90610   0.90944
 Alpha virt. eigenvalues --    0.94902   0.96239   1.00823   1.10038   1.11181
 Alpha virt. eigenvalues --    1.13183   1.14945   1.22548   1.23910   1.25910
 Alpha virt. eigenvalues --    1.26819   1.28576   1.30574   1.31093   1.33356
 Alpha virt. eigenvalues --    1.34592   1.39637   1.40624   1.54811   1.58202
 Alpha virt. eigenvalues --    1.68871   1.69605   1.71588   1.73484   1.75054
 Alpha virt. eigenvalues --    1.75082   1.77207   1.77627   1.79292   1.80108
 Alpha virt. eigenvalues --    1.82152   1.90116   1.94997   1.95047   1.96552
 Alpha virt. eigenvalues --    1.99578   1.99751   2.00210   2.10752   2.12104
 Alpha virt. eigenvalues --    2.14532   2.15051   2.15870   2.26252   2.26684
 Alpha virt. eigenvalues --    2.28274   2.28760   2.30948   2.33167   2.37744
 Alpha virt. eigenvalues --    2.49035   2.51179   2.59127   2.60245   2.60509
 Alpha virt. eigenvalues --    2.71375   2.71470   2.75995   2.77993   2.80282
 Alpha virt. eigenvalues --    2.84238   2.87659   2.99544   3.06459   3.14540
 Alpha virt. eigenvalues --    3.15420   3.31561   3.54214   3.60794
          Condensed to atoms (all electrons):
               1          2          3          4          5          6
     1  C    5.928195   0.205843   0.127105  -0.187534   0.121985   0.204525
     2  C    0.205843   5.290316   0.189623   0.136252  -0.173032   0.058748
     3  C    0.127105   0.189623   5.211278   0.181678   0.137879  -0.175048
     4  C   -0.187534   0.136252   0.181678   5.242580   0.168698   0.151432
     5  C    0.121985  -0.173032   0.137879   0.168698   5.285879   0.113974
     6  C    0.204525   0.058748  -0.175048   0.151432   0.113974   5.353703
     7  C    0.069750  -0.056004   0.011666  -0.002504   0.022364  -0.065706
     8  O   -0.170467   0.005647  -0.000088  -0.000066   0.003206   0.013249
     9  S   -0.163451  -0.014614   0.001014  -0.000001  -0.000037   0.007814
    10  H   -0.082169   0.415320  -0.075655   0.015635  -0.003243   0.018243
    11  H    0.017142  -0.077221   0.454972  -0.082793   0.016462  -0.002696
    12  H   -0.002235   0.015519  -0.075797   0.450846  -0.076805   0.015522
    13  H    0.017017  -0.002215   0.016024  -0.081468   0.456449  -0.081345
    14  H   -0.087463   0.016912  -0.002244   0.014710  -0.073523   0.435622
               7          8          9         10         11         12
     1  C    0.069750  -0.170467  -0.163451  -0.082169   0.017142  -0.002235
     2  C   -0.056004   0.005647  -0.014614   0.415320  -0.077221   0.015519
     3  C    0.011666  -0.000088   0.001014  -0.075655   0.454972  -0.075797
     4  C   -0.002504  -0.000066  -0.000001   0.015635  -0.082793   0.450846
     5  C    0.022364   0.003206  -0.000037  -0.003243   0.016462  -0.076805
     6  C   -0.065706   0.013249   0.007814   0.018243  -0.002696   0.015522
     7  C    4.928607   0.695233   0.420741  -0.020778  -0.000118   0.000030
     8  O    0.695233   7.805365  -0.079247   0.000649   0.000001   0.000000
     9  S    0.420741  -0.079247  16.303397   0.067071  -0.000038   0.000001
    10  H   -0.020778   0.000649   0.067071   0.726532  -0.013871  -0.000163
    11  H   -0.000118   0.000001  -0.000038  -0.013871   0.711147  -0.013615
    12  H    0.000030   0.000000   0.000001  -0.000163  -0.013615   0.706453
    13  H   -0.000243  -0.000011   0.000003   0.000041  -0.000253  -0.013605
    14  H   -0.016180   0.034515   0.001274  -0.000437   0.000035  -0.000198
              13         14
     1  C    0.017017  -0.087463
     2  C   -0.002215   0.016912
     3  C    0.016024  -0.002244
     4  C   -0.081468   0.014710
     5  C    0.456449  -0.073523
     6  C   -0.081345   0.435622
     7  C   -0.000243  -0.016180
     8  O   -0.000011   0.034515
     9  S    0.000003   0.001274
    10  H    0.000041  -0.000437
    11  H   -0.000253   0.000035
    12  H   -0.013605  -0.000198
    13  H    0.710862  -0.012710
    14  H   -0.012710   0.712571
 Mulliken charges:
               1
     1  C    0.001755
     2  C   -0.011096
     3  C   -0.002407
     4  C   -0.007468
     5  C   -0.000256
     6  C   -0.048039
     7  C    0.013141
     8  O   -0.307988
     9  S   -0.543928
    10  H   -0.047177
    11  H   -0.009155
    12  H   -0.005955
    13  H   -0.008546
    14  H   -0.022883
 Sum of Mulliken charges =  -1.00000
 Mulliken charges with hydrogens summed into heavy atoms:
               1
     1  C    0.001755
     2  C   -0.058272
     3  C   -0.011562
     4  C   -0.013422
     5  C   -0.008802
     6  C   -0.070922
     7  C    0.013141
     8  O   -0.307988
     9  S   -0.543928
 Electronic spatial extent (au):  <R**2>=           1477.1745
 Charge=             -1.0000 electrons
 Dipole moment (field-independent basis, Debye):
    X=             -9.8815    Y=             -0.8562    Z=             -0.0000  Tot=              9.9186
 Quadrupole moment (field-independent basis, Debye-Ang):
   XX=            -84.2297   YY=            -67.1965   ZZ=            -64.0583
   XY=             -0.3318   XZ=              0.0006   YZ=             -0.0026
 Traceless Quadrupole moment (field-independent basis, Debye-Ang):
   XX=            -12.4015   YY=              4.6317   ZZ=              7.7698
   XY=             -0.3318   XZ=              0.0006   YZ=             -0.0026
 Octapole moment (field-independent basis, Debye-Ang**2):
  XXX=            -75.7827  YYY=             -4.3803  ZZZ=              0.0020  XYY=            -21.2438
  XXY=              4.3936  XXZ=              0.0005  XZZ=              5.4157  YZZ=              3.7880
  YYZ=             -0.0016  XYZ=             -0.0015
 Hexadecapole moment (field-independent basis, Debye-Ang**3):
 XXXX=          -1595.8102 YYYY=           -498.0520 ZZZZ=            -71.3097 XXXY=             24.6106
 XXXZ=              0.0117 YYYX=             -4.2242 YYYZ=             -0.0084 ZZZX=              0.0034
 ZZZY=              0.0028 XXYY=           -346.4002 XXZZ=           -277.5716 YYZZ=            -98.8062
 XXYZ=             -0.0089 YYXZ=             -0.0034 ZZXY=              5.7780
 N-N= 4.514096629346D+02 E-N=-2.663579103811D+03  KE= 7.374780604377D+02
 1\1\GINC-CHPC-CN078\SP\RMN15\def2SVP\C7H5O1S1(1-)\S1155246976\10-Jun-2
 026\0\\# mn15 def2svp scrf=(smd,solvent=TetraHydroFuran)\\Gaussian pKa
  calculation job\\-1,1\C,0,0.07396,0.159619,-0.00005\C,0,0.568859,-1.1
 50716,-0.000175\C,0,1.943807,-1.393476,-0.000163\C,0,2.849168,-0.32698
 9,0.000031\C,0,2.36475,0.984322,0.000208\C,0,0.988837,1.221023,0.00014
 7\C,0,-1.426171,0.502932,-0.000108\O,0,-1.689713,1.711169,-0.000313\S,
 0,-2.52253,-0.801903,0.000194\H,0,-0.176428,-1.95177,-0.00026\H,0,2.31
 5703,-2.422973,-0.000319\H,0,3.926807,-0.517647,0.000075\H,0,3.066732,
 1.824462,0.000379\H,0,0.566118,2.228727,0.000185\\Version=ES64L-G16Rev
 B.01\State=1-A\HF=-742.3417262\RMSD=9.775e-09\Dipole=3.8876972,-0.3368
 375,0.0000088\Quadrupole=-9.2202254,3.4435407,5.7766847,0.2466875,0.00
 04717,0.0019054\PG=C01 [X(C7H5O1S1)]\\@


 THERE'S NOTHING SO GREAT AS THE GREAT OUTDOORS.

                                       -- ZIGGY
 Job cpu time:       0 days  0 hours  6 minutes 17.0 seconds.
 Elapsed time:       0 days  0 hours  0 minutes  6.3 seconds.
 File lengths (MBytes):  RWF=     51 Int=      0 D2E=      0 Chk=      3 Scr=      1
 Normal termination of Gaussian 16 at Wed Jun 10 15:32:50 2026.
2:48 2026.
