 Entering Gaussian System, Link 0=/project/xlzhang/shared/bin/g16/g16
 Input=/lustre/project/xlzhang/jingyi/chemsmart/test_pka/gaussian/pka_scale_frag4_pka_A_opt.com
 Output=/lustre/project/xlzhang/jingyi/chemsmart/test_pka/gaussian/pka_scale_frag4_pka_A_opt.log
 Initial command:
 /project/xlzhang/shared/bin/g16/l1.exe "/lustre/project/xlzhang/jingyi/chemsmart/test_pka/gaussian/Gau-755636.inp" -scrdir="/lustre/project/xlzhang/jingyi/chemsmart/test_pka/gaussian/"
 Entering Link 1 = /project/xlzhang/shared/bin/g16/l1.exe PID=    755637.
  
 Copyright (c) 1988-2017, Gaussian, Inc.  All Rights Reserved.
  
 This is part of the Gaussian(R) 16 program.  It is based on
 the Gaussian(R) 09 system (copyright 2009, Gaussian, Inc.),
 the Gaussian(R) 03 system (copyright 2003, Gaussian, Inc.),
 the Gaussian(R) 98 system (copyright 1998, Gaussian, Inc.),
 the Gaussian(R) 94 system (copyright 1995, Gaussian, Inc.),
 the Gaussian 92(TM) system (copyright 1992, Gaussian, Inc.),
 the Gaussian 90(TM) system (copyright 1990, Gaussian, Inc.),
 the Gaussian 88(TM) system (copyright 1988, Gaussian, Inc.),
 the Gaussian 86(TM) system (copyright 1986, Carnegie Mellon
 University), and the Gaussian 82(TM) system (copyright 1983,
 Carnegie Mellon University). Gaussian is a federally registered
 trademark of Gaussian, Inc.
  
 This software contains proprietary and confidential information,
 including trade secrets, belonging to Gaussian, Inc.
  
 This software is provided under written license and may be
 used, copied, transmitted, or stored only in accord with that
 written license.
  
 The following legend is applicable only to US Government
 contracts under FAR:
  
                    RESTRICTED RIGHTS LEGEND
  
 Use, reproduction and disclosure by the US Government is
 subject to restrictions as set forth in subparagraphs (a)
 and (c) of the Commercial Computer Software - Restricted
 Rights clause in FAR 52.227-19.
  
 Gaussian, Inc.
 340 Quinnipiac St., Bldg. 40, Wallingford CT 06492
  
  
 ---------------------------------------------------------------
 Warning -- This program may not be used in any manner that
 competes with the business of Gaussian, Inc. or will provide
 assistance to any competitor of Gaussian, Inc.  The licensee
 of this program is prohibited from giving any competitor of
 Gaussian, Inc. access to this program.  By using this program,
 the user acknowledges that Gaussian, Inc. is engaged in the
 business of creating and licensing software in the field of
 computational chemistry and represents and warrants to the
 licensee that it is not a competitor of Gaussian, Inc. and that
 it will not use this program in any manner prohibited above.
 ---------------------------------------------------------------
  

 Cite this work as:
 Gaussian 16, Revision B.01,
 M. J. Frisch, G. W. Trucks, H. B. Schlegel, G. E. Scuseria, 
 M. A. Robb, J. R. Cheeseman, G. Scalmani, V. Barone, 
 G. A. Petersson, H. Nakatsuji, X. Li, M. Caricato, A. V. Marenich, 
 J. Bloino, B. G. Janesko, R. Gomperts, B. Mennucci, H. P. Hratchian, 
 J. V. Ortiz, A. F. Izmaylov, J. L. Sonnenberg, D. Williams-Young, 
 F. Ding, F. Lipparini, F. Egidi, J. Goings, B. Peng, A. Petrone, 
 T. Henderson, D. Ranasinghe, V. G. Zakrzewski, J. Gao, N. Rega, 
 G. Zheng, W. Liang, M. Hada, M. Ehara, K. Toyota, R. Fukuda, 
 J. Hasegawa, M. Ishida, T. Nakajima, Y. Honda, O. Kitao, H. Nakai, 
 T. Vreven, K. Throssell, J. A. Montgomery, Jr., J. E. Peralta, 
 F. Ogliaro, M. J. Bearpark, J. J. Heyd, E. N. Brothers, K. N. Kudin, 
 V. N. Staroverov, T. A. Keith, R. Kobayashi, J. Normand, 
 K. Raghavachari, A. P. Rendell, J. C. Burant, S. S. Iyengar, 
 J. Tomasi, M. Cossi, J. M. Millam, M. Klene, C. Adamo, R. Cammi, 
 J. W. Ochterski, R. L. Martin, K. Morokuma, O. Farkas, 
 J. B. Foresman, and D. J. Fox, Gaussian, Inc., Wallingford CT, 2016.
 
 ******************************************
 Gaussian 16:  ES64L-G16RevB.01 20-Dec-2017
                10-Jun-2026 
 ******************************************
 %chk=pka_scale_frag4_pka_A_opt.chk
 %nprocshared=64
 Will use up to   64 processors via shared memory.
 %mem=180GB
 -----------------------
 # opt freq mn15 def2svp
 -----------------------
 1/18=20,19=15,26=3,38=1/1,3;
 2/9=110,12=2,17=6,18=5,40=1/2;
 3/5=43,7=101,11=2,25=1,30=1,71=1,74=-73/1,2,3;
 4//1;
 5/5=2,38=5/2;
 6/7=2,8=2,9=2,10=2,28=1/1;
 7//1,2,3,16;
 1/18=20,19=15,26=3/3(2);
 2/9=110/2;
 99//99;
 2/9=110/2;
 3/5=43,7=101,11=2,25=1,30=1,71=1,74=-73/1,2,3;
 4/5=5,16=3,69=1/1;
 5/5=2,38=5/2;
 7//1,2,3,16;
 1/18=20,19=15,26=3/3(-5);
 2/9=110/2;
 6/7=2,8=2,9=2,10=2,19=2,28=1/1;
 99/9=1/99;
 ----------------------------
 Gaussian pKa calculation job
 ----------------------------
 Symbolic Z-matrix:
 Charge = -1 Multiplicity = 1
 C                     0.04512   1.74166   0.29268 
 C                    -1.10452   0.95722   0.17689 
 C                    -0.98737  -0.42158  -0.05698 
 C                     0.28052  -1.01618  -0.17512 
 C                     1.42455  -0.21384  -0.05624 
 C                     1.31131   1.16319   0.17728 
 O                    -2.28238   1.63954   0.30852 
 N                    -2.17813  -1.2673   -0.18249 
 O                    -3.28444  -0.71532  -0.07391 
 O                    -2.0128   -2.47632  -0.38838 
 N                     2.75718  -0.82183  -0.17755 
 O                     2.81306  -2.04141  -0.38381 
 O                     3.74121  -0.07848  -0.06625 
 H                    -0.04716   2.81148   0.47416 
 H                     0.37638  -2.08619  -0.35668 
 H                     2.19168   1.79739   0.27159 
 

 GradGradGradGradGradGradGradGradGradGradGradGradGradGradGradGradGradGrad
 Berny optimization.
 Initialization pass.
                           ----------------------------
                           !    Initial Parameters    !
                           ! (Angstroms and Degrees)  !
 --------------------------                            --------------------------
 ! Name  Definition              Value          Derivative Info.                !
 --------------------------------------------------------------------------------
 ! R1    R(1,2)                  1.3966         estimate D2E/DX2                !
 ! R2    R(1,6)                  1.3969         estimate D2E/DX2                !
 ! R3    R(1,14)                 1.089          estimate D2E/DX2                !
 ! R4    R(2,3)                  1.4034         estimate D2E/DX2                !
 ! R5    R(2,7)                  1.3676         estimate D2E/DX2                !
 ! R6    R(3,4)                  1.4054         estimate D2E/DX2                !
 ! R7    R(3,8)                  1.4659         estimate D2E/DX2                !
 ! R8    R(4,5)                  1.4024         estimate D2E/DX2                !
 ! R9    R(4,15)                 1.0895         estimate D2E/DX2                !
 ! R10   R(5,6)                  1.4013         estimate D2E/DX2                !
 ! R11   R(5,11)                 1.4698         estimate D2E/DX2                !
 ! R12   R(6,16)                 1.0891         estimate D2E/DX2                !
 ! R13   R(8,9)                  1.2411         estimate D2E/DX2                !
 ! R14   R(8,10)                 1.2375         estimate D2E/DX2                !
 ! R15   R(11,12)                1.2382         estimate D2E/DX2                !
 ! R16   R(11,13)                1.2383         estimate D2E/DX2                !
 ! A1    A(2,1,6)              120.4462         estimate D2E/DX2                !
 ! A2    A(2,1,14)             119.7254         estimate D2E/DX2                !
 ! A3    A(6,1,14)             119.8283         estimate D2E/DX2                !
 ! A4    A(1,2,3)              119.798          estimate D2E/DX2                !
 ! A5    A(1,2,7)              114.8832         estimate D2E/DX2                !
 ! A6    A(3,2,7)              125.3188         estimate D2E/DX2                !
 ! A7    A(2,3,4)              120.3312         estimate D2E/DX2                !
 ! A8    A(2,3,8)              120.8823         estimate D2E/DX2                !
 ! A9    A(4,3,8)              118.7865         estimate D2E/DX2                !
 ! A10   A(3,4,5)              119.1293         estimate D2E/DX2                !
 ! A11   A(3,4,15)             120.5907         estimate D2E/DX2                !
 ! A12   A(5,4,15)             120.28           estimate D2E/DX2                !
 ! A13   A(4,5,6)              120.6926         estimate D2E/DX2                !
 ! A14   A(4,5,11)             119.7345         estimate D2E/DX2                !
 ! A15   A(6,5,11)             119.5729         estimate D2E/DX2                !
 ! A16   A(1,6,5)              119.6026         estimate D2E/DX2                !
 ! A17   A(1,6,16)             118.9745         estimate D2E/DX2                !
 ! A18   A(5,6,16)             121.4229         estimate D2E/DX2                !
 ! A19   A(3,8,9)              117.3861         estimate D2E/DX2                !
 ! A20   A(3,8,10)             117.993          estimate D2E/DX2                !
 ! A21   A(9,8,10)             124.6209         estimate D2E/DX2                !
 ! A22   A(5,11,12)            117.524          estimate D2E/DX2                !
 ! A23   A(5,11,13)            117.6962         estimate D2E/DX2                !
 ! A24   A(12,11,13)           124.7798         estimate D2E/DX2                !
 ! D1    D(6,1,2,3)              0.0002         estimate D2E/DX2                !
 ! D2    D(6,1,2,7)            180.0            estimate D2E/DX2                !
 ! D3    D(14,1,2,3)          -179.9997         estimate D2E/DX2                !
 ! D4    D(14,1,2,7)             0.0001         estimate D2E/DX2                !
 ! D5    D(2,1,6,5)              0.0            estimate D2E/DX2                !
 ! D6    D(2,1,6,16)          -179.9999         estimate D2E/DX2                !
 ! D7    D(14,1,6,5)           179.9999         estimate D2E/DX2                !
 ! D8    D(14,1,6,16)            0.0            estimate D2E/DX2                !
 ! D9    D(1,2,3,4)             -0.0003         estimate D2E/DX2                !
 ! D10   D(1,2,3,8)            179.9996         estimate D2E/DX2                !
 ! D11   D(7,2,3,4)            179.9999         estimate D2E/DX2                !
 ! D12   D(7,2,3,8)             -0.0002         estimate D2E/DX2                !
 ! D13   D(2,3,4,5)              0.0002         estimate D2E/DX2                !
 ! D14   D(2,3,4,15)          -180.0            estimate D2E/DX2                !
 ! D15   D(8,3,4,5)           -179.9996         estimate D2E/DX2                !
 ! D16   D(8,3,4,15)             0.0002         estimate D2E/DX2                !
 ! D17   D(2,3,8,9)              0.0044         estimate D2E/DX2                !
 ! D18   D(2,3,8,10)          -179.9962         estimate D2E/DX2                !
 ! D19   D(4,3,8,9)           -179.9958         estimate D2E/DX2                !
 ! D20   D(4,3,8,10)             0.0037         estimate D2E/DX2                !
 ! D21   D(3,4,5,6)              0.0            estimate D2E/DX2                !
 ! D22   D(3,4,5,11)           179.9997         estimate D2E/DX2                !
 ! D23   D(15,4,5,6)          -179.9998         estimate D2E/DX2                !
 ! D24   D(15,4,5,11)           -0.0001         estimate D2E/DX2                !
 ! D25   D(4,5,6,1)             -0.0001         estimate D2E/DX2                !
 ! D26   D(4,5,6,16)           179.9999         estimate D2E/DX2                !
 ! D27   D(11,5,6,1)          -179.9998         estimate D2E/DX2                !
 ! D28   D(11,5,6,16)            0.0001         estimate D2E/DX2                !
 ! D29   D(4,5,11,12)            0.004          estimate D2E/DX2                !
 ! D30   D(4,5,11,13)         -179.996          estimate D2E/DX2                !
 ! D31   D(6,5,11,12)         -179.9963         estimate D2E/DX2                !
 ! D32   D(6,5,11,13)            0.0038         estimate D2E/DX2                !
 --------------------------------------------------------------------------------
 Trust Radius=3.00D-01 FncErr=1.00D-07 GrdErr=1.00D-06 EigMax=2.50D+02 EigMin=1.00D-04
 Number of steps in this run=     82 maximum allowed number of steps=    100.
 GradGradGradGradGradGradGradGradGradGradGradGradGradGradGradGradGradGrad

                          Input orientation:                          
 ---------------------------------------------------------------------
 Center     Atomic      Atomic             Coordinates (Angstroms)
 Number     Number       Type             X           Y           Z
 ---------------------------------------------------------------------
      1          6           0        0.045118    1.741658    0.292676
      2          6           0       -1.104524    0.957221    0.176888
      3          6           0       -0.987373   -0.421584   -0.056980
      4          6           0        0.280517   -1.016184   -0.175122
      5          6           0        1.424551   -0.213837   -0.056240
      6          6           0        1.311312    1.163185    0.177277
      7          8           0       -2.282377    1.639542    0.308523
      8          7           0       -2.178128   -1.267303   -0.182494
      9          8           0       -3.284438   -0.715315   -0.073906
     10          8           0       -2.012800   -2.476324   -0.388380
     11          7           0        2.757182   -0.821833   -0.177550
     12          8           0        2.813057   -2.041409   -0.383809
     13          8           0        3.741211   -0.078481   -0.066255
     14          1           0       -0.047164    2.811480    0.474159
     15          1           0        0.376382   -2.086195   -0.356684
     16          1           0        2.191682    1.797395    0.271588
 ---------------------------------------------------------------------
                    Distance matrix (angstroms):
                    1          2          3          4          5
     1  C    0.000000
     2  C    1.396575   0.000000
     3  C    2.422377   1.403397   0.000000
     4  C    2.807123   2.436510   1.405366   0.000000
     5  C    2.418375   2.796774   2.420855   1.402393   0.000000
     6  C    1.396852   2.424599   2.801843   2.436468   1.401265
     7  O    2.329787   1.367563   2.461477   3.722260   4.160454
     8  N    3.771266   2.496054   1.465909   2.471447   3.755665
     9  O    4.154159   2.759040   2.315830   3.579060   4.735648
    10  O    4.742386   3.596349   2.320190   2.727048   4.128504
    11  N    3.761368   4.266548   3.767815   2.484280   1.469790
    12  O    4.736107   4.965239   4.144143   2.740144   2.318463
    13  O    4.135559   4.961144   4.741025   3.587136   2.320633
    14  H    1.089024   2.155147   3.408637   3.896147   3.405850
    15  H    3.896647   3.426392   2.172689   1.089530   2.166714
    16  H    2.147392   3.402915   3.890786   3.430500   2.177387
                    6          7          8          9         10
     6  C    0.000000
     7  O    3.627497   0.000000
     8  N    4.267657   2.949866   0.000000
     9  O    4.971194   2.587611   1.241130   0.000000
    10  O    4.961423   4.183144   1.237520   2.194791   0.000000
    11  N    2.481278   5.629546   4.955376   6.043447   5.053169
    12  O    3.583222   6.323936   5.054868   6.247720   4.845417
    13  O    2.739609   6.275004   6.038657   7.054457   6.241960
    14  H    2.156495   2.529239   4.648513   4.818569   5.706888
    15  H    3.423109   4.625215   2.688205   3.919295   2.421032
    16  H    1.089113   4.476995   5.356659   6.034978   6.031409
                   11         12         13         14         15
    11  N    0.000000
    12  O    1.238155   0.000000
    13  O    1.238254   2.194401   0.000000
    14  H    4.635736   5.698026   4.795385   0.000000
    15  H    2.701649   2.437237   3.929038   4.985671   0.000000
    16  H    2.716960   3.943610   2.456439   2.466138   4.332702
                   16
    16  H    0.000000
 Stoichiometry    C6H3N2O5(1-)
 Framework group  C1[X(C6H3N2O5)]
 Deg. of freedom    42
 Full point group                 C1      NOp   1
 Largest Abelian subgroup         C1      NOp   1
 Largest concise Abelian subgroup C1      NOp   1
                         Standard orientation:                         
 ---------------------------------------------------------------------
 Center     Atomic      Atomic             Coordinates (Angstroms)
 Number     Number       Type             X           Y           Z
 ---------------------------------------------------------------------
      1          6           0        0.077491    2.072388    0.000001
      2          6           0        1.196789    1.237168   -0.000000
      3          6           0        1.027404   -0.155969   -0.000001
      4          6           0       -0.262388   -0.714083    0.000005
      5          6           0       -1.375402    0.139091    0.000007
      6          6           0       -1.209993    1.530559    0.000004
      7          8           0        2.399917    1.887331   -0.000004
      8          7           0        2.185471   -1.054730   -0.000012
      9          8           0        3.312147   -0.534149    0.000065
     10          8           0        1.974374   -2.274112   -0.000084
     11          7           0       -2.730409   -0.430328    0.000007
     12          8           0       -2.832513   -1.664267    0.000082
     13          8           0       -3.685738    0.357466   -0.000067
     14          1           0        0.210301    3.153283   -0.000003
     15          1           0       -0.398786   -1.795042    0.000005
     16          1           0       -2.065857    2.204105    0.000003
 ---------------------------------------------------------------------
 Rotational constants (GHZ):           1.5244651           0.5479226           0.4030563
 Standard basis: def2SVP (5D, 7F)
 There are   210 symmetry adapted cartesian basis functions of A   symmetry.
 There are   197 symmetry adapted basis functions of A   symmetry.
   197 basis functions,   346 primitive gaussians,   210 cartesian basis functions
    47 alpha electrons       47 beta electrons
       nuclear repulsion energy       756.8399188181 Hartrees.
 NAtoms=   16 NActive=   16 NUniq=   16 SFac= 1.00D+00 NAtFMM=   60 NAOKFM=F Big=F
 Integral buffers will be    131072 words long.
 Raffenetti 2 integral format.
 Two-electron integral symmetry is turned on.
 One-electron integrals computed using PRISM.
   1 Symmetry operations used in ECPInt.
 ECPInt:  NShTT=    3828 NPrTT=   14884 LenC2=    3621 LenP2D=   10340.
 LDataN:  DoStor=T MaxTD1= 4 Len=   56
 NBasis=   197 RedAO= T EigKep=  2.09D-04  NBF=   197
 NBsUse=   197 1.00D-06 EigRej= -1.00D+00 NBFU=   197
 ExpMin= 1.22D-01 ExpMax= 2.27D+03 ExpMxC= 3.41D+02 IAcc=3 IRadAn=         5 AccDes= 0.00D+00
 Harris functional with IExCor= 1009 and IRadAn=       5 diagonalized for initial guess.
 HarFok:  IExCor= 1009 AccDes= 0.00D+00 IRadAn=         5 IDoV= 1 UseB2=F ITyADJ=14
 ICtDFT=  3500011 ScaDFX=  1.000000  1.000000  1.000000  1.000000
 FoFCou: FMM=F IPFlag=           0 FMFlag=      100000 FMFlg1=           0
         NFxFlg=           0 DoJE=T BraDBF=F KetDBF=T FulRan=T
         wScrn=  0.000000 ICntrl=       500 IOpCl=  0 I1Cent=   200000004 NGrid=           0
         NMat0=    1 NMatS0=      1 NMatT0=    0 NMatD0=    1 NMtDS0=    0 NMtDT0=    0
 Petite list used in FoFCou.
 Requested convergence on RMS density matrix=1.00D-08 within 128 cycles.
 Requested convergence on MAX density matrix=1.00D-06.
 Requested convergence on             energy=1.00D-06.
 No special actions if energy rises.
 Integral accuracy reduced to 1.0D-05 until final iterations.
 EnCoef did     2 forward-backward iterations
 EnCoef did     2 forward-backward iterations
 Initial convergence to 1.0D-05 achieved.  Increase integral accuracy.
 SCF Done:  E(RMN15) =  -714.557910129     A.U. after   21 cycles
            NFock= 21  Conv=0.58D-08     -V/T= 2.0094

 **********************************************************************

            Population analysis using the SCF Density.

 **********************************************************************

 Orbital symmetries:
       Occupied  (A) (A) (A) (A) (A) (A) (A) (A) (A) (A) (A) (A)
                 (A) (A) (A) (A) (A) (A) (A) (A) (A) (A) (A) (A)
                 (A) (A) (A) (A) (A) (A) (A) (A) (A) (A) (A) (A)
                 (A) (A) (A) (A) (A) (A) (A) (A) (A) (A) (A)
       Virtual   (A) (A) (A) (A) (A) (A) (A) (A) (A) (A) (A) (A)
                 (A) (A) (A) (A) (A) (A) (A) (A) (A) (A) (A) (A)
                 (A) (A) (A) (A) (A) (A) (A) (A) (A) (A) (A) (A)
                 (A) (A) (A) (A) (A) (A) (A) (A) (A) (A) (A) (A)
                 (A) (A) (A) (A) (A) (A) (A) (A) (A) (A) (A) (A)
                 (A) (A) (A) (A) (A) (A) (A) (A) (A) (A) (A) (A)
                 (A) (A) (A) (A) (A) (A) (A) (A) (A) (A) (A) (A)
                 (A) (A) (A) (A) (A) (A) (A) (A) (A) (A) (A) (A)
                 (A) (A) (A) (A) (A) (A) (A) (A) (A) (A) (A) (A)
                 (A) (A) (A) (A) (A) (A) (A) (A) (A) (A) (A) (A)
                 (A) (A) (A) (A) (A) (A) (A) (A) (A) (A) (A) (A)
                 (A) (A) (A) (A) (A) (A) (A) (A) (A) (A) (A) (A)
                 (A) (A) (A) (A) (A) (A)
 The electronic state is 1-A.
 Alpha  occ. eigenvalues --  -18.71469 -18.71328 -18.69579 -18.69411 -18.60285
 Alpha  occ. eigenvalues --  -14.21060 -14.19390  -9.97388  -9.97305  -9.96436
 Alpha  occ. eigenvalues --   -9.96217  -9.95020  -9.92643  -1.11900  -1.10041
 Alpha  occ. eigenvalues --   -0.94572  -0.92592  -0.82943  -0.77774  -0.71348
 Alpha  occ. eigenvalues --   -0.67754  -0.60927  -0.56705  -0.51683  -0.47701
 Alpha  occ. eigenvalues --   -0.46552  -0.45717  -0.43979  -0.43048  -0.42156
 Alpha  occ. eigenvalues --   -0.40838  -0.37810  -0.36619  -0.34947  -0.30801
 Alpha  occ. eigenvalues --   -0.29370  -0.25432  -0.22977  -0.22454  -0.22246
 Alpha  occ. eigenvalues --   -0.21753  -0.21147  -0.20088  -0.19635  -0.18358
 Alpha  occ. eigenvalues --   -0.11012  -0.09790
 Alpha virt. eigenvalues --    0.06878   0.08686   0.15779   0.19081   0.23237
 Alpha virt. eigenvalues --    0.27923   0.29961   0.33063   0.33150   0.33493
 Alpha virt. eigenvalues --    0.40709   0.41193   0.42040   0.43217   0.45941
 Alpha virt. eigenvalues --    0.46128   0.48272   0.48314   0.52408   0.53981
 Alpha virt. eigenvalues --    0.57157   0.59513   0.60402   0.61432   0.63375
 Alpha virt. eigenvalues --    0.66804   0.68203   0.68233   0.69188   0.72125
 Alpha virt. eigenvalues --    0.74321   0.75905   0.75992   0.79007   0.80230
 Alpha virt. eigenvalues --    0.82652   0.84810   0.85543   0.85985   0.86576
 Alpha virt. eigenvalues --    0.91742   0.92109   0.92561   0.95058   0.96530
 Alpha virt. eigenvalues --    0.96795   1.01689   1.04415   1.07237   1.07558
 Alpha virt. eigenvalues --    1.09951   1.11436   1.12603   1.14447   1.14995
 Alpha virt. eigenvalues --    1.17396   1.18436   1.19901   1.21130   1.22415
 Alpha virt. eigenvalues --    1.25282   1.25337   1.31431   1.32405   1.34659
 Alpha virt. eigenvalues --    1.37035   1.37936   1.38862   1.39733   1.43992
 Alpha virt. eigenvalues --    1.46368   1.49804   1.50621   1.52797   1.55204
 Alpha virt. eigenvalues --    1.57198   1.58882   1.60893   1.61988   1.62928
 Alpha virt. eigenvalues --    1.63993   1.78454   1.83146   1.85378   1.85378
 Alpha virt. eigenvalues --    1.86058   1.86798   1.90891   1.91284   1.92523
 Alpha virt. eigenvalues --    1.94555   1.97401   1.99267   2.01543   2.04898
 Alpha virt. eigenvalues --    2.10520   2.12768   2.16875   2.18160   2.23125
 Alpha virt. eigenvalues --    2.24524   2.29402   2.33476   2.34440   2.36520
 Alpha virt. eigenvalues --    2.37555   2.42822   2.44248   2.47002   2.48740
 Alpha virt. eigenvalues --    2.49535   2.50859   2.55494   2.64763   2.65568
 Alpha virt. eigenvalues --    2.65983   2.68238   2.74105   2.74492   2.76139
 Alpha virt. eigenvalues --    2.77537   2.78481   2.79355   2.81212   2.82377
 Alpha virt. eigenvalues --    2.85207   2.87911   2.88764   2.89414   2.90379
 Alpha virt. eigenvalues --    2.93260   2.95212   3.01594   3.10053   3.13299
 Alpha virt. eigenvalues --    3.13595   3.16394   3.28937   3.31596   3.34853
 Alpha virt. eigenvalues --    3.36435   3.36813   3.47753   3.49599   3.55733
 Alpha virt. eigenvalues --    3.69774   3.82337   3.82763   3.84494   3.85530
          Condensed to atoms (all electrons):
               1          2          3          4          5          6
     1  C    5.592062   0.082346   0.099788  -0.175497   0.217210  -0.024916
     2  C    0.082346   5.568620  -0.476205   0.201493  -0.272520   0.216214
     3  C    0.099788  -0.476205   6.335307  -0.047544   0.241275  -0.199126
     4  C   -0.175497   0.201493  -0.047544   5.618107   0.005277   0.092650
     5  C    0.217210  -0.272520   0.241275   0.005277   5.695303   0.031743
     6  C   -0.024916   0.216214  -0.199126   0.092650   0.031743   5.551942
     7  O   -0.101271   0.682372  -0.122346   0.006483  -0.000691   0.009722
     8  N    0.007874  -0.079656   0.324340  -0.080590   0.010147  -0.001117
     9  O    0.001025   0.002165  -0.088894   0.005602   0.000198  -0.000049
    10  O   -0.000087   0.001921  -0.126253   0.020075   0.003553   0.000013
    11  N    0.007398  -0.001112   0.008192  -0.070761   0.319069  -0.066097
    12  O    0.000062  -0.000012   0.003300   0.017160  -0.116891   0.005806
    13  O    0.002731  -0.000082   0.000138   0.005249  -0.118635   0.021971
    14  H    0.436805  -0.082360   0.036848  -0.005895   0.020034  -0.097120
    15  H   -0.005210   0.024153  -0.063599   0.432814  -0.076643   0.019308
    16  H   -0.064044   0.018739  -0.005227   0.020436  -0.083849   0.435816
               7          8          9         10         11         12
     1  C   -0.101271   0.007874   0.001025  -0.000087   0.007398   0.000062
     2  C    0.682372  -0.079656   0.002165   0.001921  -0.001112  -0.000012
     3  C   -0.122346   0.324340  -0.088894  -0.126253   0.008192   0.003300
     4  C    0.006483  -0.080590   0.005602   0.020075  -0.070761   0.017160
     5  C   -0.000691   0.010147   0.000198   0.003553   0.319069  -0.116891
     6  C    0.009722  -0.001117  -0.000049   0.000013  -0.066097   0.005806
     7  O    7.932376  -0.007386  -0.010530  -0.000041   0.000000  -0.000000
     8  N   -0.007386   5.950233   0.359977   0.333191   0.000001  -0.000002
     9  O   -0.010530   0.359977   8.056701  -0.096224   0.000000  -0.000000
    10  O   -0.000041   0.333191  -0.096224   8.143632  -0.000001  -0.000000
    11  N    0.000000   0.000001   0.000000  -0.000001   5.947110   0.339326
    12  O   -0.000000  -0.000002  -0.000000  -0.000000   0.339326   8.112108
    13  O   -0.000000   0.000000  -0.000000  -0.000000   0.341183  -0.095882
    14  H    0.005315   0.000025   0.000029   0.000002  -0.000098   0.000002
    15  H   -0.000011  -0.019464   0.000453   0.025549  -0.016671   0.023276
    16  H   -0.000140   0.000003  -0.000000  -0.000000  -0.017318   0.000389
              13         14         15         16
     1  C    0.002731   0.436805  -0.005210  -0.064044
     2  C   -0.000082  -0.082360   0.024153   0.018739
     3  C    0.000138   0.036848  -0.063599  -0.005227
     4  C    0.005249  -0.005895   0.432814   0.020436
     5  C   -0.118635   0.020034  -0.076643  -0.083849
     6  C    0.021971  -0.097120   0.019308   0.435816
     7  O   -0.000000   0.005315  -0.000011  -0.000140
     8  N    0.000000   0.000025  -0.019464   0.000003
     9  O   -0.000000   0.000029   0.000453  -0.000000
    10  O   -0.000000   0.000002   0.025549  -0.000000
    11  N    0.341183  -0.000098  -0.016671  -0.017318
    12  O   -0.095882   0.000002   0.023276   0.000389
    13  O    8.115551  -0.000008   0.000466   0.020817
    14  H   -0.000008   0.754920   0.000003  -0.016553
    15  H    0.000466   0.000003   0.670920  -0.000220
    16  H    0.020817  -0.016553  -0.000220   0.725768
 Mulliken charges:
               1
     1  C   -0.076275
     2  C    0.113924
     3  C    0.080005
     4  C   -0.045060
     5  C    0.125422
     6  C    0.003240
     7  O   -0.393852
     8  N    0.202426
     9  O   -0.230453
    10  O   -0.305329
    11  N    0.209780
    12  O   -0.288641
    13  O   -0.293499
    14  H   -0.051948
    15  H   -0.015123
    16  H   -0.034617
 Sum of Mulliken charges =  -1.00000
 Mulliken charges with hydrogens summed into heavy atoms:
               1
     1  C   -0.128223
     2  C    0.113924
     3  C    0.080005
     4  C   -0.060183
     5  C    0.125422
     6  C   -0.031378
     7  O   -0.393852
     8  N    0.202426
     9  O   -0.230453
    10  O   -0.305329
    11  N    0.209780
    12  O   -0.288641
    13  O   -0.293499
 Electronic spatial extent (au):  <R**2>=           2492.0338
 Charge=             -1.0000 electrons
 Dipole moment (field-independent basis, Debye):
    X=             -3.5078    Y=              0.2294    Z=              0.0000  Tot=              3.5153
 Quadrupole moment (field-independent basis, Debye-Ang):
   XX=           -123.8513   YY=            -90.2353   ZZ=            -72.1044
   XY=             -7.8555   XZ=             -0.0002   YZ=              0.0000
 Traceless Quadrupole moment (field-independent basis, Debye-Ang):
   XX=            -28.4543   YY=              5.1617   ZZ=             23.2926
   XY=             -7.8555   XZ=             -0.0002   YZ=              0.0000
 Octapole moment (field-independent basis, Debye-Ang**2):
  XXX=              5.4579  YYY=              2.3607  ZZZ=             -0.0001  XYY=            -25.0582
  XXY=             -5.7311  XXZ=             -0.0000  XZZ=              1.5342  YZZ=             -8.5638
  YYZ=              0.0005  XYZ=             -0.0016
 Hexadecapole moment (field-independent basis, Debye-Ang**3):
 XXXX=          -2644.9244 YYYY=           -923.8059 ZZZZ=            -65.7310 XXXY=            -46.8530
 XXXZ=             -0.0073 YYYX=            -27.9643 YYYZ=             -0.0015 ZZZX=              0.0001
 ZZZY=             -0.0000 XXYY=           -607.5612 XXZZ=           -337.0478 YYZZ=           -156.7719
 XXYZ=              0.0025 YYXZ=              0.0033 ZZXY=              0.5532
 N-N= 7.568399188181D+02 E-N=-3.202134553990D+03  KE= 7.079247965766D+02
   1 Symmetry operations used in ECPInt.
 ECPInt:  NShTT=    3828 NPrTT=   14884 LenC2=    3621 LenP2D=   10340.
 LDataN:  DoStor=T MaxTD1= 5 Len=  102
 Calling FoFJK, ICntrl=      2127 FMM=F ISym2X=0 I1Cent= 0 IOpClX= 0 NMat=1 NMatS=1 NMatT=0.
 ***** Axes restored to original set *****
 -------------------------------------------------------------------
 Center     Atomic                   Forces (Hartrees/Bohr)
 Number     Number              X              Y              Z
 -------------------------------------------------------------------
      1        6           0.066802374   -0.008901908   -0.002447598
      2        6          -0.148025377    0.089670375    0.017203218
      3        6           0.014227244   -0.038410510   -0.006670598
      4        6          -0.004871525    0.004997346    0.000911026
      5        6           0.009803372   -0.021399801   -0.003743277
      6        6          -0.021571695    0.027989236    0.005020590
      7        8           0.093120982   -0.055274858   -0.010630758
      8        7          -0.014975916    0.014540920    0.002658221
      9        8           0.029706591   -0.028575947   -0.005231412
     10        8          -0.003469786    0.014165638    0.002434392
     11        7          -0.009951598    0.000505899    0.000226253
     12        8           0.005415066    0.021261036    0.003505609
     13        8          -0.014175922   -0.016393594   -0.002561509
     14        1          -0.005340941   -0.000486423   -0.000006248
     15        1          -0.000777309    0.000010840    0.000012886
     16        1           0.004084441   -0.003698247   -0.000680796
 -------------------------------------------------------------------
 Cartesian Forces:  Max     0.148025377 RMS     0.033468576

 GradGradGradGradGradGradGradGradGradGradGradGradGradGradGradGradGradGrad
 Berny optimization.
 FormGI is forming the generalized inverse of G from B-inverse, IUseBI=4.
 Internal  Forces:  Max     0.108805109 RMS     0.017408489
 Search for a local minimum.
 Step number   1 out of a maximum of   82
 All quantities printed in internal units (Hartrees-Bohrs-Radians)
 Mixed Optimization -- RFO/linear search
 Second derivative matrix not updated -- first step.
 ITU=  0
     Eigenvalues ---    0.00769   0.00769   0.00820   0.00820   0.01650
     Eigenvalues ---    0.01688   0.02034   0.02040   0.02069   0.02082
     Eigenvalues ---    0.02101   0.02116   0.02132   0.16000   0.16000
     Eigenvalues ---    0.16000   0.22374   0.23497   0.24609   0.25000
     Eigenvalues ---    0.25000   0.25000   0.25000   0.25000   0.25000
     Eigenvalues ---    0.25000   0.34867   0.34915   0.34926   0.35765
     Eigenvalues ---    0.36234   0.41399   0.41700   0.44991   0.45262
     Eigenvalues ---    0.45670   0.46042   0.51448   0.86602   0.87732
     Eigenvalues ---    0.87771   0.88024
 RFO step:  Lambda=-4.30872876D-02 EMin= 7.68597323D-03
 Linear search not attempted -- first point.
 Maximum step size (   0.300) exceeded in Quadratic search.
    -- Step size scaled by   0.978
 Iteration  1 RMS(Cart)=  0.08141543 RMS(Int)=  0.00327838
 Iteration  2 RMS(Cart)=  0.00427980 RMS(Int)=  0.00015678
 Iteration  3 RMS(Cart)=  0.00000484 RMS(Int)=  0.00015676
 Iteration  4 RMS(Cart)=  0.00000000 RMS(Int)=  0.00015676
 Variable       Old X    -DE/DX   Delta X   Delta X   Delta X     New X
                                 (Linear)    (Quad)   (Total)
    R1        2.63914   0.03901   0.00000   0.07842   0.07869   2.71783
    R2        2.63967  -0.02136   0.00000  -0.04145  -0.04145   2.59822
    R3        2.05796  -0.00003   0.00000  -0.00007  -0.00007   2.05789
    R4        2.65204   0.04006   0.00000   0.08234   0.08262   2.73465
    R5        2.58432  -0.10881   0.00000  -0.19091  -0.19091   2.39340
    R6        2.65576  -0.01333   0.00000  -0.02653  -0.02653   2.62923
    R7        2.77017  -0.00921   0.00000  -0.02223  -0.02223   2.74794
    R8        2.65014  -0.01083   0.00000  -0.02431  -0.02459   2.62555
    R9        2.05891  -0.00008   0.00000  -0.00020  -0.00020   2.05871
   R10        2.64801   0.01070   0.00000   0.01811   0.01782   2.66583
   R11        2.77750  -0.01928   0.00000  -0.04708  -0.04708   2.73042
   R12        2.05813   0.00109   0.00000   0.00272   0.00272   2.06084
   R13        2.34540  -0.03964   0.00000  -0.04266  -0.04266   2.30273
   R14        2.33857  -0.01471   0.00000  -0.01559  -0.01559   2.32299
   R15        2.33977  -0.02128   0.00000  -0.02261  -0.02261   2.31717
   R16        2.33996  -0.02134   0.00000  -0.02268  -0.02268   2.31728
    A1        2.10218   0.00924   0.00000   0.03899   0.03925   2.14143
    A2        2.08960  -0.01014   0.00000  -0.04606  -0.04619   2.04341
    A3        2.09140   0.00089   0.00000   0.00707   0.00694   2.09834
    A4        2.09087  -0.02420   0.00000  -0.07149  -0.07090   2.01997
    A5        2.00509   0.01360   0.00000   0.04074   0.04045   2.04554
    A6        2.18723   0.01060   0.00000   0.03075   0.03045   2.21768
    A7        2.10018   0.00399   0.00000   0.01765   0.01793   2.11811
    A8        2.10979   0.01977   0.00000   0.06381   0.06367   2.17346
    A9        2.07322  -0.02375   0.00000  -0.08146  -0.08160   1.99161
   A10        2.07920   0.00579   0.00000   0.01509   0.01482   2.09402
   A11        2.10470  -0.00369   0.00000  -0.01139  -0.01126   2.09345
   A12        2.09928  -0.00210   0.00000  -0.00370  -0.00356   2.09572
   A13        2.10648   0.00550   0.00000   0.00752   0.00696   2.11344
   A14        2.08976  -0.00471   0.00000  -0.01029  -0.01001   2.07975
   A15        2.08694  -0.00079   0.00000   0.00277   0.00305   2.08999
   A16        2.08746  -0.00032   0.00000  -0.00777  -0.00806   2.07940
   A17        2.07650   0.00577   0.00000   0.03089   0.03103   2.10753
   A18        2.11923  -0.00545   0.00000  -0.02312  -0.02297   2.09626
   A19        2.04877   0.01825   0.00000   0.06092   0.06092   2.10969
   A20        2.05937  -0.00735   0.00000  -0.02452  -0.02452   2.03484
   A21        2.17504  -0.01090   0.00000  -0.03640  -0.03640   2.13865
   A22        2.05118   0.00638   0.00000   0.02128   0.02128   2.07246
   A23        2.05419   0.00218   0.00000   0.00727   0.00727   2.06145
   A24        2.17782  -0.00855   0.00000  -0.02855  -0.02855   2.14927
    D1        0.00000  -0.00000   0.00000  -0.00000  -0.00000   0.00000
    D2        3.14159  -0.00000   0.00000  -0.00000  -0.00000   3.14159
    D3       -3.14159  -0.00000   0.00000  -0.00000  -0.00000  -3.14159
    D4        0.00000  -0.00000   0.00000  -0.00000  -0.00000  -0.00000
    D5        0.00000  -0.00000   0.00000  -0.00000  -0.00000  -0.00000
    D6       -3.14159  -0.00000   0.00000  -0.00000  -0.00000  -3.14159
    D7        3.14159  -0.00000   0.00000   0.00000   0.00000   3.14159
    D8       -0.00000  -0.00000   0.00000  -0.00000  -0.00000  -0.00000
    D9       -0.00001   0.00000   0.00000   0.00000   0.00000  -0.00000
   D10        3.14158   0.00000   0.00000   0.00000   0.00000   3.14159
   D11        3.14159   0.00000   0.00000   0.00000   0.00000  -3.14159
   D12       -0.00000   0.00000   0.00000   0.00000   0.00000  -0.00000
   D13        0.00000  -0.00000   0.00000  -0.00000  -0.00000   0.00000
   D14       -3.14159  -0.00000   0.00000  -0.00000  -0.00000   3.14159
   D15       -3.14159  -0.00000   0.00000  -0.00000  -0.00000  -3.14159
   D16        0.00000   0.00000   0.00000   0.00000   0.00000   0.00000
   D17        0.00008   0.00000   0.00000   0.00000   0.00000   0.00008
   D18       -3.14153   0.00000   0.00000   0.00001   0.00001  -3.14152
   D19       -3.14152   0.00000   0.00000   0.00000   0.00000  -3.14152
   D20        0.00006   0.00000   0.00000   0.00001   0.00001   0.00007
   D21       -0.00000   0.00000   0.00000   0.00000   0.00000   0.00000
   D22        3.14159   0.00000   0.00000   0.00000   0.00000   3.14159
   D23       -3.14159   0.00000   0.00000   0.00000   0.00000  -3.14159
   D24       -0.00000   0.00000   0.00000   0.00000   0.00000  -0.00000
   D25       -0.00000  -0.00000   0.00000  -0.00000  -0.00000  -0.00000
   D26        3.14159  -0.00000   0.00000  -0.00000  -0.00000   3.14159
   D27       -3.14159  -0.00000   0.00000  -0.00000  -0.00000  -3.14159
   D28        0.00000  -0.00000   0.00000  -0.00000  -0.00000   0.00000
   D29        0.00007  -0.00000   0.00000  -0.00001  -0.00001   0.00006
   D30       -3.14152  -0.00000   0.00000  -0.00001  -0.00001  -3.14153
   D31       -3.14153  -0.00000   0.00000  -0.00001  -0.00001  -3.14154
   D32        0.00007  -0.00000   0.00000  -0.00001  -0.00001   0.00006
         Item               Value     Threshold  Converged?
 Maximum Force            0.108805     0.000450     NO 
 RMS     Force            0.017408     0.000300     NO 
 Maximum Displacement     0.377987     0.001800     NO 
 RMS     Displacement     0.080911     0.001200     NO 
 Predicted change in Energy=-2.346286D-02
 GradGradGradGradGradGradGradGradGradGradGradGradGradGradGradGradGradGrad

                          Input orientation:                          
 ---------------------------------------------------------------------
 Center     Atomic      Atomic             Coordinates (Angstroms)
 Number     Number       Type             X           Y           Z
 ---------------------------------------------------------------------
      1          6           0        0.080418    1.777725    0.298250
      2          6           0       -1.149165    1.039374    0.191357
      3          6           0       -1.010421   -0.380749   -0.049778
      4          6           0        0.241497   -0.976197   -0.167833
      5          6           0        1.390993   -0.204111   -0.054124
      6          6           0        1.315358    1.184818    0.180865
      7          8           0       -2.228248    1.690578    0.316352
      8          7           0       -2.123721   -1.305689   -0.189737
      9          8           0       -3.275144   -0.915337   -0.107729
     10          8           0       -1.837937   -2.484019   -0.392155
     11          7           0        2.681972   -0.840729   -0.179665
     12          8           0        2.726242   -2.048991   -0.383845
     13          8           0        3.683734   -0.141144   -0.076002
     14          1           0        0.001446    2.848579    0.479720
     15          1           0        0.319175   -2.047576   -0.349369
     16          1           0        2.228008    1.775484    0.267386
 ---------------------------------------------------------------------
                    Distance matrix (angstroms):
                    1          2          3          4          5
     1  C    0.000000
     2  C    1.438215   0.000000
     3  C    2.443371   1.447116   0.000000
     4  C    2.797725   2.474972   1.391328   0.000000
     5  C    2.401968   2.838823   2.407905   1.389383   0.000000
     6  C    1.374916   2.468833   2.813084   2.438187   1.410697
     7  O    2.310381   1.266535   2.430545   3.666847   4.101951
     8  N    3.821492   2.567940   1.454146   2.388159   3.685794
     9  O    4.321712   2.903470   2.327684   3.517681   4.720333
    10  O    4.724321   3.637196   2.285990   2.578351   3.967144
    11  N    3.721933   4.283696   3.723200   2.444260   1.444877
    12  O    4.702062   4.988750   4.105762   2.715051   2.301127
    13  O    4.099513   4.982169   4.700339   3.543266   2.293709
    14  H    1.088989   2.163395   3.425318   3.886626   3.396285
    15  H    3.887074   3.460877   2.153113   1.089423   2.152748
    16  H    2.147813   3.457302   3.903506   3.421606   2.173191
                    6          7          8          9         10
     6  C    0.000000
     7  O    3.582080   0.000000
     8  N    4.262304   3.040504   0.000000
     9  O    5.056347   2.840181   1.218554   0.000000
    10  O    4.871549   4.252245   1.229271   2.146444   0.000000
    11  N    2.469910   5.546513   4.828144   5.958017   4.814055
    12  O    3.573095   6.246729   4.910429   6.113758   4.584871
    13  O    2.726419   6.201667   5.924156   7.001882   6.006485
    14  H    2.140977   2.517775   4.714069   5.024759   5.707898
    15  H    3.423726   4.572346   2.558050   3.776173   2.201237
    16  H    1.090551   4.457334   5.351648   6.137256   5.925392
                   11         12         13         14         15
    11  N    0.000000
    12  O    1.226192   0.000000
    13  O    1.226251   2.156719   0.000000
    14  H    4.607711   5.670666   4.775617   0.000000
    15  H    2.658588   2.407314   3.876785   4.976011   0.000000
    16  H    2.692676   3.911386   2.431155   2.480766   4.317386
                   16
    16  H    0.000000
 Stoichiometry    C6H3N2O5(1-)
 Framework group  C1[X(C6H3N2O5)]
 Deg. of freedom    42
 Full point group                 C1      NOp   1
 Largest Abelian subgroup         C1      NOp   1
 Largest concise Abelian subgroup C1      NOp   1
                         Standard orientation:                         
 ---------------------------------------------------------------------
 Center     Atomic      Atomic             Coordinates (Angstroms)
 Number     Number       Type             X           Y           Z
 ---------------------------------------------------------------------
      1          6           0        0.038824    2.118771   -0.000001
      2          6           0        1.241776    1.330501   -0.000000
      3          6           0        1.052881   -0.104234    0.000001
      4          6           0       -0.219554   -0.666998    0.000005
      5          6           0       -1.341260    0.152857    0.000007
      6          6           0       -1.216550    1.558031    0.000003
      7          8           0        2.343421    1.955391   -0.000008
      8          7           0        2.133003   -1.077823   -0.000008
      9          8           0        3.297733   -0.719664    0.000067
     10          8           0        1.805682   -2.262715   -0.000089
     11          7           0       -2.654195   -0.450360    0.000008
     12          8           0       -2.741166   -1.673463    0.000074
     13          8           0       -3.630792    0.291225   -0.000056
     14          1           0        0.155624    3.201478   -0.000005
     15          1           0       -0.335078   -1.750278    0.000005
     16          1           0       -2.107927    2.186323    0.000002
 ---------------------------------------------------------------------
 Rotational constants (GHZ):           1.4660412           0.5718927           0.4114060
 Standard basis: def2SVP (5D, 7F)
 There are   210 symmetry adapted cartesian basis functions of A   symmetry.
 There are   197 symmetry adapted basis functions of A   symmetry.
   197 basis functions,   346 primitive gaussians,   210 cartesian basis functions
    47 alpha electrons       47 beta electrons
       nuclear repulsion energy       761.9540766435 Hartrees.
 NAtoms=   16 NActive=   16 NUniq=   16 SFac= 1.00D+00 NAtFMM=   60 NAOKFM=F Big=F
 Integral buffers will be    131072 words long.
 Raffenetti 2 integral format.
 Two-electron integral symmetry is turned on.
 One-electron integrals computed using PRISM.
   1 Symmetry operations used in ECPInt.
 ECPInt:  NShTT=    3828 NPrTT=   14884 LenC2=    3632 LenP2D=   10367.
 LDataN:  DoStor=T MaxTD1= 4 Len=   56
 NBasis=   197 RedAO= T EigKep=  2.34D-04  NBF=   197
 NBsUse=   197 1.00D-06 EigRej= -1.00D+00 NBFU=   197
 Initial guess from the checkpoint file:  "pka_scale_frag4_pka_A_opt.chk"
 B after Tr=    -0.000000   -0.000000   -0.000000
         Rot=    1.000000   -0.000000   -0.000000    0.000947 Ang=  -0.11 deg.
 ExpMin= 1.22D-01 ExpMax= 2.27D+03 ExpMxC= 3.41D+02 IAcc=3 IRadAn=         5 AccDes= 0.00D+00
 Harris functional with IExCor= 1009 and IRadAn=       5 diagonalized for initial guess.
 HarFok:  IExCor= 1009 AccDes= 0.00D+00 IRadAn=         5 IDoV= 1 UseB2=F ITyADJ=14
 ICtDFT=  3500011 ScaDFX=  1.000000  1.000000  1.000000  1.000000
 FoFCou: FMM=F IPFlag=           0 FMFlag=      100000 FMFlg1=           0
         NFxFlg=           0 DoJE=T BraDBF=F KetDBF=T FulRan=T
         wScrn=  0.000000 ICntrl=       500 IOpCl=  0 I1Cent=   200000004 NGrid=           0
         NMat0=    1 NMatS0=      1 NMatT0=    0 NMatD0=    1 NMtDS0=    0 NMtDT0=    0
 Petite list used in FoFCou.
 Requested convergence on RMS density matrix=1.00D-08 within 128 cycles.
 Requested convergence on MAX density matrix=1.00D-06.
 Requested convergence on             energy=1.00D-06.
 No special actions if energy rises.
 Integral accuracy reduced to 1.0D-05 until final iterations.
 Initial convergence to 1.0D-05 achieved.  Increase integral accuracy.
 SCF Done:  E(RMN15) =  -714.583632511     A.U. after   17 cycles
            NFock= 17  Conv=0.37D-08     -V/T= 2.0089
   1 Symmetry operations used in ECPInt.
 ECPInt:  NShTT=    3828 NPrTT=   14884 LenC2=    3632 LenP2D=   10367.
 LDataN:  DoStor=T MaxTD1= 5 Len=  102
 Calling FoFJK, ICntrl=      2127 FMM=F ISym2X=0 I1Cent= 0 IOpClX= 0 NMat=1 NMatS=1 NMatT=0.
 ***** Axes restored to original set *****
 -------------------------------------------------------------------
 Center     Atomic                   Forces (Hartrees/Bohr)
 Number     Number              X              Y              Z
 -------------------------------------------------------------------
      1        6           0.031865948   -0.008943953   -0.001958754
      2        6          -0.057327317    0.035766232    0.006837498
      3        6           0.007756362   -0.013893638   -0.002450117
      4        6           0.002702127    0.003371070    0.000529018
      5        6           0.008496458   -0.010272713   -0.001850744
      6        6          -0.009348178    0.013605038    0.002424508
      7        8           0.023705494   -0.025271656   -0.004592715
      8        7          -0.001175528    0.002156823    0.000379968
      9        8           0.003536032    0.004924692    0.000779166
     10        8          -0.003716051   -0.004105348   -0.000638359
     11        7          -0.006624754    0.000855609    0.000237829
     12        8           0.000413348   -0.000010361   -0.000007205
     13        8           0.001763440    0.001422097    0.000214226
     14        1          -0.003863332    0.001157648    0.000249687
     15        1           0.000133112    0.001587509    0.000265471
     16        1           0.001682840   -0.002349049   -0.000419476
 -------------------------------------------------------------------
 Cartesian Forces:  Max     0.057327317 RMS     0.012766423

 GradGradGradGradGradGradGradGradGradGradGradGradGradGradGradGradGradGrad
 Berny optimization.
 Using GEDIIS/GDIIS optimizer.
 FormGI is forming the generalized inverse of G from B-inverse, IUseBI=4.
 Internal  Forces:  Max     0.033644256 RMS     0.006527130
 Search for a local minimum.
 Step number   2 out of a maximum of   82
 All quantities printed in internal units (Hartrees-Bohrs-Radians)
 Mixed Optimization -- RFO/linear search
 Update second derivatives using D2CorX and points    1    2
 DE= -2.57D-02 DEPred=-2.35D-02 R= 1.10D+00
 TightC=F SS=  1.41D+00  RLast= 3.00D-01 DXNew= 5.0454D-01 8.9997D-01
 Trust test= 1.10D+00 RLast= 3.00D-01 DXMaxT set to 5.05D-01
 ITU=  1  0
 Use linear search instead of GDIIS.
     Eigenvalues ---    0.00769   0.00769   0.00820   0.00820   0.01659
     Eigenvalues ---    0.01688   0.02034   0.02040   0.02069   0.02082
     Eigenvalues ---    0.02101   0.02117   0.02132   0.15539   0.16000
     Eigenvalues ---    0.16003   0.20535   0.23039   0.23492   0.24875
     Eigenvalues ---    0.25000   0.25000   0.25000   0.25000   0.25000
     Eigenvalues ---    0.28999   0.34842   0.34914   0.34916   0.35964
     Eigenvalues ---    0.36421   0.41167   0.41949   0.42918   0.45239
     Eigenvalues ---    0.45539   0.46246   0.49514   0.86872   0.87747
     Eigenvalues ---    0.87910   0.90305
 RFO step:  Lambda=-1.04265380D-02 EMin= 7.68597322D-03
 Quartic linear search produced a step of  0.19082.
 Iteration  1 RMS(Cart)=  0.04915857 RMS(Int)=  0.00163555
 Iteration  2 RMS(Cart)=  0.00188258 RMS(Int)=  0.00013405
 Iteration  3 RMS(Cart)=  0.00000174 RMS(Int)=  0.00013404
 Iteration  4 RMS(Cart)=  0.00000000 RMS(Int)=  0.00013404
 Variable       Old X    -DE/DX   Delta X   Delta X   Delta X     New X
                                 (Linear)    (Quad)   (Total)
    R1        2.71783   0.01805   0.01502   0.04748   0.06270   2.78053
    R2        2.59822  -0.00677  -0.00791  -0.01806  -0.02600   2.57221
    R3        2.05789   0.00146  -0.00001   0.00481   0.00480   2.06269
    R4        2.73465   0.00874   0.01577   0.02494   0.04095   2.77560
    R5        2.39340  -0.03364  -0.03643  -0.08051  -0.11694   2.27646
    R6        2.62923   0.00243  -0.00506   0.00610   0.00107   2.63030
    R7        2.74794  -0.00091  -0.00424  -0.00304  -0.00728   2.74065
    R8        2.62555   0.00028  -0.00469  -0.00045  -0.00536   2.62020
    R9        2.05871  -0.00160  -0.00004  -0.00527  -0.00531   2.05340
   R10        2.66583   0.00657   0.00340   0.01614   0.01929   2.68512
   R11        2.73042  -0.00501  -0.00898  -0.01644  -0.02542   2.70500
   R12        2.06084   0.00010   0.00052   0.00035   0.00087   2.06172
   R13        2.30273  -0.00171  -0.00814  -0.00401  -0.01216   2.29058
   R14        2.32299   0.00317  -0.00297   0.00360   0.00062   2.32361
   R15        2.31717   0.00003  -0.00431  -0.00087  -0.00518   2.31198
   R16        2.31728   0.00227  -0.00433   0.00212  -0.00221   2.31507
    A1        2.14143   0.00538   0.00749   0.02668   0.03434   2.17577
    A2        2.04341  -0.00656  -0.00881  -0.03867  -0.04757   1.99584
    A3        2.09834   0.00118   0.00132   0.01199   0.01323   2.11157
    A4        2.01997  -0.01062  -0.01353  -0.04478  -0.05780   1.96217
    A5        2.04554   0.01665   0.00772   0.07391   0.08138   2.12691
    A6        2.21768  -0.00602   0.00581  -0.02914  -0.02358   2.19410
    A7        2.11811   0.00404   0.00342   0.01961   0.02332   2.14143
    A8        2.17346  -0.01849   0.01215  -0.08609  -0.07409   2.09938
    A9        1.99161   0.01446  -0.01557   0.06648   0.05077   2.04238
   A10        2.09402   0.00177   0.00283   0.00710   0.00974   2.10376
   A11        2.09345  -0.00063  -0.00215  -0.00156  -0.00362   2.08983
   A12        2.09572  -0.00114  -0.00068  -0.00554  -0.00613   2.08959
   A13        2.11344  -0.00149   0.00133  -0.01045  -0.00960   2.10384
   A14        2.07975   0.00148  -0.00191   0.00867   0.00700   2.08675
   A15        2.08999   0.00001   0.00058   0.00177   0.00260   2.09259
   A16        2.07940   0.00093  -0.00154   0.00183  -0.00000   2.07939
   A17        2.10753   0.00255   0.00592   0.01838   0.02445   2.13199
   A18        2.09626  -0.00347  -0.00438  -0.02021  -0.02445   2.07181
   A19        2.10969  -0.01256   0.01162  -0.05827  -0.04665   2.06305
   A20        2.03484   0.01160  -0.00468   0.05327   0.04859   2.08343
   A21        2.13865   0.00096  -0.00695   0.00501  -0.00194   2.13671
   A22        2.07246   0.00075   0.00406   0.00305   0.00712   2.07958
   A23        2.06145  -0.00056   0.00139  -0.00266  -0.00127   2.06018
   A24        2.14927  -0.00020  -0.00545  -0.00040  -0.00584   2.14343
    D1        0.00000  -0.00000  -0.00000  -0.00000  -0.00000   0.00000
    D2        3.14159  -0.00000  -0.00000   0.00000   0.00000   3.14159
    D3       -3.14159  -0.00000  -0.00000  -0.00000  -0.00000  -3.14159
    D4       -0.00000  -0.00000  -0.00000   0.00000   0.00000  -0.00000
    D5       -0.00000   0.00000  -0.00000   0.00000   0.00000   0.00000
    D6       -3.14159  -0.00000  -0.00000  -0.00000  -0.00000  -3.14159
    D7        3.14159   0.00000   0.00000   0.00000   0.00000  -3.14159
    D8       -0.00000   0.00000  -0.00000   0.00000   0.00000   0.00000
    D9       -0.00000   0.00000   0.00000  -0.00000  -0.00000  -0.00000
   D10        3.14159   0.00000   0.00000   0.00001   0.00001   3.14159
   D11       -3.14159  -0.00000   0.00000  -0.00001  -0.00000   3.14159
   D12       -0.00000   0.00000   0.00000   0.00000   0.00000   0.00000
   D13        0.00000  -0.00000  -0.00000   0.00000   0.00000   0.00000
   D14        3.14159   0.00000  -0.00000   0.00000   0.00000  -3.14159
   D15       -3.14159  -0.00000  -0.00000  -0.00000  -0.00000   3.14159
   D16        0.00000  -0.00000   0.00000  -0.00000  -0.00000   0.00000
   D17        0.00008  -0.00000   0.00000  -0.00001  -0.00001   0.00007
   D18       -3.14152   0.00000   0.00000  -0.00000   0.00000  -3.14152
   D19       -3.14152  -0.00000   0.00000  -0.00001  -0.00001  -3.14152
   D20        0.00007   0.00000   0.00000   0.00001   0.00001   0.00008
   D21        0.00000   0.00000   0.00000  -0.00000   0.00000   0.00000
   D22        3.14159   0.00000   0.00000   0.00000   0.00000   3.14159
   D23       -3.14159   0.00000   0.00000  -0.00000  -0.00000  -3.14159
   D24       -0.00000   0.00000   0.00000   0.00000   0.00000  -0.00000
   D25       -0.00000  -0.00000  -0.00000  -0.00000  -0.00000  -0.00000
   D26        3.14159  -0.00000  -0.00000   0.00000   0.00000   3.14159
   D27       -3.14159  -0.00000  -0.00000  -0.00000  -0.00000   3.14159
   D28        0.00000  -0.00000  -0.00000  -0.00000  -0.00000   0.00000
   D29        0.00006  -0.00000  -0.00000  -0.00002  -0.00002   0.00004
   D30       -3.14153  -0.00000  -0.00000  -0.00002  -0.00002  -3.14155
   D31       -3.14154  -0.00000  -0.00000  -0.00002  -0.00002  -3.14155
   D32        0.00006  -0.00000  -0.00000  -0.00001  -0.00002   0.00004
         Item               Value     Threshold  Converged?
 Maximum Force            0.033644     0.000450     NO 
 RMS     Force            0.006527     0.000300     NO 
 Maximum Displacement     0.223035     0.001800     NO 
 RMS     Displacement     0.049052     0.001200     NO 
 Predicted change in Energy=-6.472844D-03
 GradGradGradGradGradGradGradGradGradGradGradGradGradGradGradGradGradGrad

                          Input orientation:                          
 ---------------------------------------------------------------------
 Center     Atomic      Atomic             Coordinates (Angstroms)
 Number     Number       Type             X           Y           Z
 ---------------------------------------------------------------------
      1          6           0        0.087904    1.759763    0.295121
      2          6           0       -1.186229    1.031314    0.190528
      3          6           0       -0.992594   -0.403982   -0.053942
      4          6           0        0.267547   -0.983697   -0.169465
      5          6           0        1.412249   -0.209648   -0.055358
      6          6           0        1.318005    1.188217    0.181403
      7          8           0       -2.248419    1.589038    0.299536
      8          7           0       -2.137478   -1.284411   -0.185962
      9          8           0       -3.245263   -0.802058   -0.089073
     10          8           0       -1.955962   -2.483241   -0.390352
     11          7           0        2.697657   -0.827501   -0.177662
     12          8           0        2.762916   -2.032082   -0.381501
     13          8           0        3.690336   -0.117382   -0.072114
     14          1           0       -0.019494    2.830661    0.476999
     15          1           0        0.355061   -2.051535   -0.350546
     16          1           0        2.237972    1.768562    0.266081
 ---------------------------------------------------------------------
                    Distance matrix (angstroms):
                    1          2          3          4          5
     1  C    0.000000
     2  C    1.471391   0.000000
     3  C    2.443586   1.468786   0.000000
     4  C    2.788312   2.510642   1.391894   0.000000
     5  C    2.399022   2.890075   2.412683   1.386548   0.000000
     6  C    1.361156   2.509161   2.815911   2.437987   1.420903
     7  O    2.342557   1.204652   2.382051   3.628912   4.094107
     8  N    3.801416   2.531641   1.450291   2.423808   3.711164
     9  O    4.221437   2.771110   2.287840   3.518421   4.695157
    10  O    4.759238   3.644449   2.316154   2.690988   4.077535
    11  N    3.705168   4.321496   3.716535   2.435139   1.431424
    12  O    4.689520   5.030642   4.106320   2.714948   2.291711
    13  O    4.078732   5.016908   4.691728   3.532063   2.280017
    14  H    1.091530   2.163559   3.419318   3.879386   3.402466
    15  H    3.874823   3.488881   2.149089   1.086613   2.144138
    16  H    2.150282   3.503483   3.906266   3.412800   2.167592
                    6          7          8          9         10
     6  C    0.000000
     7  O    3.590820   0.000000
     8  N    4.264881   2.916286   0.000000
     9  O    4.985756   2.619552   1.212121   0.000000
    10  O    4.952310   4.140644   1.229600   2.139964   0.000000
    11  N    2.468904   5.525491   4.856683   5.943635   4.943974
    12  O    3.574207   6.220112   4.960959   6.139763   4.740404
    13  O    2.719709   6.190219   5.944606   6.969333   6.130192
    14  H    2.138669   2.557583   4.675382   4.891081   5.721868
    15  H    3.421436   4.522664   2.613106   3.819934   2.351336
    16  H    1.091013   4.490106   5.354396   6.066307   6.008146
                   11         12         13         14         15
    11  N    0.000000
    12  O    1.223448   0.000000
    13  O    1.225080   2.149862   0.000000
    14  H    4.603656   5.667901   4.770254   0.000000
    15  H    2.648755   2.408132   3.865557   4.965981   0.000000
    16  H    2.673529   3.890993   2.404271   2.503736   4.303338
                   16
    16  H    0.000000
 Stoichiometry    C6H3N2O5(1-)
 Framework group  C1[X(C6H3N2O5)]
 Deg. of freedom    42
 Full point group                 C1      NOp   1
 Largest Abelian subgroup         C1      NOp   1
 Largest concise Abelian subgroup C1      NOp   1
                         Standard orientation:                         
 ---------------------------------------------------------------------
 Center     Atomic      Atomic             Coordinates (Angstroms)
 Number     Number       Type             X           Y           Z
 ---------------------------------------------------------------------
      1          6           0        0.019025    2.097894   -0.000005
      2          6           0        1.270138    1.323486   -0.000003
      3          6           0        1.031957   -0.125860   -0.000001
      4          6           0       -0.245822   -0.677811    0.000004
      5          6           0       -1.366126    0.139154    0.000004
      6          6           0       -1.228469    1.553374   -0.000003
      7          8           0        2.349343    1.858746   -0.000007
      8          7           0        2.149137   -1.050660   -0.000001
      9          8           0        3.271579   -0.593096    0.000067
     10          8           0        1.930421   -2.260651   -0.000082
     11          7           0       -2.670351   -0.450738    0.000009
     12          8           0       -2.773026   -1.669871    0.000057
     13          8           0       -3.640663    0.297135   -0.000039
     14          1           0        0.159672    3.180324   -0.000008
     15          1           0       -0.366496   -1.757703    0.000008
     16          1           0       -2.130125    2.167642   -0.000005
 ---------------------------------------------------------------------
 Rotational constants (GHZ):           1.5148180           0.5635903           0.4107647
 Standard basis: def2SVP (5D, 7F)
 There are   210 symmetry adapted cartesian basis functions of A   symmetry.
 There are   197 symmetry adapted basis functions of A   symmetry.
   197 basis functions,   346 primitive gaussians,   210 cartesian basis functions
    47 alpha electrons       47 beta electrons
       nuclear repulsion energy       763.8899827953 Hartrees.
 NAtoms=   16 NActive=   16 NUniq=   16 SFac= 1.00D+00 NAtFMM=   60 NAOKFM=F Big=F
 Integral buffers will be    131072 words long.
 Raffenetti 2 integral format.
 Two-electron integral symmetry is turned on.
 One-electron integrals computed using PRISM.
   1 Symmetry operations used in ECPInt.
 ECPInt:  NShTT=    3828 NPrTT=   14884 LenC2=    3631 LenP2D=   10368.
 LDataN:  DoStor=T MaxTD1= 4 Len=   56
 NBasis=   197 RedAO= T EigKep=  2.63D-04  NBF=   197
 NBsUse=   197 1.00D-06 EigRej= -1.00D+00 NBFU=   197
 Initial guess from the checkpoint file:  "pka_scale_frag4_pka_A_opt.chk"
 B after Tr=     0.000000   -0.000000    0.000000
         Rot=    0.999996    0.000000    0.000000   -0.002737 Ang=   0.31 deg.
 ExpMin= 1.22D-01 ExpMax= 2.27D+03 ExpMxC= 3.41D+02 IAcc=3 IRadAn=         5 AccDes= 0.00D+00
 Harris functional with IExCor= 1009 and IRadAn=       5 diagonalized for initial guess.
 HarFok:  IExCor= 1009 AccDes= 0.00D+00 IRadAn=         5 IDoV= 1 UseB2=F ITyADJ=14
 ICtDFT=  3500011 ScaDFX=  1.000000  1.000000  1.000000  1.000000
 FoFCou: FMM=F IPFlag=           0 FMFlag=      100000 FMFlg1=           0
         NFxFlg=           0 DoJE=T BraDBF=F KetDBF=T FulRan=T
         wScrn=  0.000000 ICntrl=       500 IOpCl=  0 I1Cent=   200000004 NGrid=           0
         NMat0=    1 NMatS0=      1 NMatT0=    0 NMatD0=    1 NMtDS0=    0 NMtDT0=    0
 Petite list used in FoFCou.
 Requested convergence on RMS density matrix=1.00D-08 within 128 cycles.
 Requested convergence on MAX density matrix=1.00D-06.
 Requested convergence on             energy=1.00D-06.
 No special actions if energy rises.
 Integral accuracy reduced to 1.0D-05 until final iterations.
 Initial convergence to 1.0D-05 achieved.  Increase integral accuracy.
 SCF Done:  E(RMN15) =  -714.586293907     A.U. after   15 cycles
            NFock= 15  Conv=0.41D-08     -V/T= 2.0086
   1 Symmetry operations used in ECPInt.
 ECPInt:  NShTT=    3828 NPrTT=   14884 LenC2=    3631 LenP2D=   10368.
 LDataN:  DoStor=T MaxTD1= 5 Len=  102
 Calling FoFJK, ICntrl=      2127 FMM=F ISym2X=0 I1Cent= 0 IOpClX= 0 NMat=1 NMatS=1 NMatT=0.
 ***** Axes restored to original set *****
 -------------------------------------------------------------------
 Center     Atomic                   Forces (Hartrees/Bohr)
 Number     Number              X              Y              Z
 -------------------------------------------------------------------
      1        6           0.000810021    0.001861960    0.000302255
      2        6           0.031520685   -0.018080132   -0.003492672
      3        6           0.006062028   -0.008424276   -0.001505491
      4        6          -0.007156579    0.000514634    0.000188117
      5        6           0.003670525   -0.000590422   -0.000151520
      6        6          -0.000555629   -0.000201180   -0.000025911
      7        8          -0.035751442    0.026223998    0.004924366
      8        7           0.005781565    0.000010399   -0.000077942
      9        8          -0.010983831    0.001759564    0.000450590
     10        8           0.006094307   -0.001940053   -0.000413673
     11        7          -0.003693927    0.001829381    0.000360931
     12        8          -0.000581867   -0.006198676   -0.001035815
     13        8           0.005856777    0.004517234    0.000677462
     14        1          -0.000459189    0.001440887    0.000249167
     15        1          -0.000734589   -0.002210720   -0.000361808
     16        1           0.000121145   -0.000512598   -0.000088056
 -------------------------------------------------------------------
 Cartesian Forces:  Max     0.035751442 RMS     0.008922621

 GradGradGradGradGradGradGradGradGradGradGradGradGradGradGradGradGradGrad
 Berny optimization.
 Using GEDIIS/GDIIS optimizer.
 FormGI is forming the generalized inverse of G from B-inverse, IUseBI=4.
 Internal  Forces:  Max     0.044109737 RMS     0.006343726
 Search for a local minimum.
 Step number   3 out of a maximum of   82
 All quantities printed in internal units (Hartrees-Bohrs-Radians)
 Mixed Optimization -- RFO/linear search
 Update second derivatives using D2CorX and points    1    2    3
 DE= -2.66D-03 DEPred=-6.47D-03 R= 4.11D-01
 Trust test= 4.11D-01 RLast= 2.24D-01 DXMaxT set to 5.05D-01
 ITU=  0  1  0
 Use linear search instead of GDIIS.
     Eigenvalues ---    0.00769   0.00769   0.00820   0.00820   0.01660
     Eigenvalues ---    0.01692   0.02033   0.02040   0.02068   0.02085
     Eigenvalues ---    0.02102   0.02118   0.02132   0.15304   0.16001
     Eigenvalues ---    0.16008   0.20470   0.22917   0.23557   0.24982
     Eigenvalues ---    0.25000   0.25000   0.25000   0.25000   0.25374
     Eigenvalues ---    0.33756   0.34811   0.34916   0.35026   0.36011
     Eigenvalues ---    0.36860   0.38710   0.41377   0.43445   0.45265
     Eigenvalues ---    0.45850   0.47038   0.69063   0.87059   0.87744
     Eigenvalues ---    0.88060   0.93409
 RFO step:  Lambda=-1.45609428D-03 EMin= 7.68597322D-03
 Quartic linear search produced a step of -0.35653.
 Iteration  1 RMS(Cart)=  0.02432834 RMS(Int)=  0.00032491
 Iteration  2 RMS(Cart)=  0.00040803 RMS(Int)=  0.00003551
 Iteration  3 RMS(Cart)=  0.00000012 RMS(Int)=  0.00003551
 Variable       Old X    -DE/DX   Delta X   Delta X   Delta X     New X
                                 (Linear)    (Quad)   (Total)
    R1        2.78053   0.00259  -0.02235   0.02676   0.00436   2.78488
    R2        2.57221   0.00203   0.00927  -0.00645   0.00283   2.57505
    R3        2.06269   0.00150  -0.00171   0.00470   0.00299   2.06568
    R4        2.77560   0.01036  -0.01460   0.02897   0.01430   2.78990
    R5        2.27646   0.04411   0.04169   0.01359   0.05528   2.33174
    R6        2.63030  -0.00358  -0.00038  -0.00381  -0.00421   2.62609
    R7        2.74065  -0.00060   0.00260  -0.00344  -0.00084   2.73981
    R8        2.62020   0.00286   0.00191   0.00223   0.00419   2.62439
    R9        2.05340   0.00217   0.00189   0.00175   0.00365   2.05705
   R10        2.68512   0.00088  -0.00688   0.00810   0.00129   2.68641
   R11        2.70500   0.00136   0.00906  -0.00681   0.00226   2.70726
   R12        2.06172  -0.00018  -0.00031  -0.00003  -0.00034   2.06137
   R13        2.29058   0.01078   0.00433   0.00473   0.00907   2.29965
   R14        2.32361   0.00286  -0.00022   0.00288   0.00266   2.32627
   R15        2.31198   0.00625   0.00185   0.00333   0.00518   2.31717
   R16        2.31507   0.00742   0.00079   0.00535   0.00614   2.32120
    A1        2.17577   0.00048  -0.01224   0.01609   0.00381   2.17959
    A2        1.99584  -0.00056   0.01696  -0.02306  -0.00609   1.98975
    A3        2.11157   0.00008  -0.00472   0.00697   0.00227   2.11385
    A4        1.96217  -0.00313   0.02061  -0.02987  -0.00939   1.95278
    A5        2.12691  -0.00602  -0.02901   0.01814  -0.01080   2.11611
    A6        2.19410   0.00915   0.00841   0.01172   0.02020   2.21430
    A7        2.14143   0.00079  -0.00831   0.01216   0.00377   2.14519
    A8        2.09938   0.01040   0.02641  -0.00701   0.01945   2.11883
    A9        2.04238  -0.01119  -0.01810  -0.00515  -0.02321   2.01917
   A10        2.10376   0.00165  -0.00347   0.00764   0.00421   2.10797
   A11        2.08983  -0.00177   0.00129  -0.00692  -0.00565   2.08418
   A12        2.08959   0.00011   0.00219  -0.00072   0.00144   2.09103
   A13        2.10384  -0.00156   0.00342  -0.00997  -0.00643   2.09742
   A14        2.08675   0.00113  -0.00250   0.00694   0.00438   2.09114
   A15        2.09259   0.00043  -0.00093   0.00303   0.00204   2.09463
   A16        2.07939   0.00177   0.00000   0.00395   0.00403   2.08343
   A17        2.13199  -0.00036  -0.00872   0.01112   0.00236   2.13434
   A18        2.07181  -0.00141   0.00872  -0.01506  -0.00639   2.06542
   A19        2.06305   0.00871   0.01663   0.00082   0.01745   2.08050
   A20        2.08343  -0.01102  -0.01732  -0.00653  -0.02386   2.05958
   A21        2.13671   0.00230   0.00069   0.00571   0.00640   2.14311
   A22        2.07958  -0.00121  -0.00254  -0.00043  -0.00297   2.07661
   A23        2.06018   0.00030   0.00045   0.00006   0.00052   2.06070
   A24        2.14343   0.00091   0.00208   0.00037   0.00245   2.14588
    D1        0.00000   0.00000   0.00000  -0.00000   0.00000   0.00000
    D2        3.14159  -0.00000  -0.00000  -0.00000  -0.00000   3.14159
    D3       -3.14159   0.00000   0.00000  -0.00000  -0.00000  -3.14159
    D4       -0.00000  -0.00000  -0.00000  -0.00000  -0.00000  -0.00001
    D5        0.00000  -0.00000  -0.00000  -0.00000  -0.00000   0.00000
    D6       -3.14159  -0.00000   0.00000  -0.00000  -0.00000   3.14159
    D7       -3.14159  -0.00000  -0.00000   0.00000   0.00000  -3.14159
    D8        0.00000  -0.00000  -0.00000   0.00000   0.00000   0.00000
    D9       -0.00000   0.00000   0.00000   0.00000   0.00000  -0.00000
   D10        3.14159  -0.00000  -0.00000   0.00000   0.00000  -3.14159
   D11        3.14159   0.00000   0.00000   0.00000   0.00001  -3.14159
   D12        0.00000   0.00000  -0.00000   0.00001   0.00001   0.00001
   D13        0.00000  -0.00000  -0.00000  -0.00000  -0.00000  -0.00000
   D14       -3.14159  -0.00000  -0.00000   0.00000  -0.00000  -3.14159
   D15        3.14159   0.00000   0.00000  -0.00001  -0.00000   3.14159
   D16        0.00000   0.00000   0.00000  -0.00000  -0.00000  -0.00000
   D17        0.00007   0.00000   0.00001   0.00005   0.00006   0.00013
   D18       -3.14152  -0.00000  -0.00000  -0.00004  -0.00004  -3.14156
   D19       -3.14152   0.00000   0.00000   0.00006   0.00006  -3.14146
   D20        0.00008  -0.00000  -0.00000  -0.00004  -0.00004   0.00004
   D21        0.00000   0.00000  -0.00000   0.00000   0.00000   0.00000
   D22        3.14159   0.00000  -0.00000   0.00000   0.00000  -3.14159
   D23       -3.14159   0.00000   0.00000  -0.00000  -0.00000  -3.14159
   D24       -0.00000   0.00000  -0.00000   0.00000   0.00000   0.00000
   D25       -0.00000   0.00000   0.00000  -0.00000   0.00000  -0.00000
   D26        3.14159   0.00000  -0.00000   0.00000   0.00000   3.14159
   D27        3.14159   0.00000   0.00000  -0.00000  -0.00000   3.14159
   D28        0.00000  -0.00000   0.00000  -0.00000  -0.00000  -0.00000
   D29        0.00004  -0.00000   0.00001  -0.00005  -0.00004   0.00000
   D30       -3.14155  -0.00000   0.00001  -0.00007  -0.00006   3.14158
   D31       -3.14155  -0.00000   0.00001  -0.00005  -0.00004   3.14159
   D32        0.00004  -0.00000   0.00001  -0.00007  -0.00006  -0.00002
         Item               Value     Threshold  Converged?
 Maximum Force            0.044110     0.000450     NO 
 RMS     Force            0.006344     0.000300     NO 
 Maximum Displacement     0.119760     0.001800     NO 
 RMS     Displacement     0.024503     0.001200     NO 
 Predicted change in Energy=-2.090665D-03
 GradGradGradGradGradGradGradGradGradGradGradGradGradGradGradGradGradGrad

                          Input orientation:                          
 ---------------------------------------------------------------------
 Center     Atomic      Atomic             Coordinates (Angstroms)
 Number     Number       Type             X           Y           Z
 ---------------------------------------------------------------------
      1          6           0        0.090818    1.766265    0.296180
      2          6           0       -1.192560    1.049182    0.193638
      3          6           0       -0.998704   -0.393611   -0.052095
      4          6           0        0.256874   -0.977728   -0.168296
      5          6           0        1.410029   -0.212068   -0.055727
      6          6           0        1.318687    1.186669    0.181135
      7          8           0       -2.268252    1.642591    0.308853
      8          7           0       -2.126201   -1.294926   -0.187878
      9          8           0       -3.255586   -0.850898   -0.097200
     10          8           0       -1.892588   -2.486241   -0.391787
     11          7           0        2.693903   -0.835666   -0.178982
     12          8           0        2.750623   -2.043403   -0.383185
     13          8           0        3.692540   -0.128206   -0.074039
     14          1           0       -0.012559    2.839127    0.478328
     15          1           0        0.333750   -2.048296   -0.349683
     16          1           0        2.243432    1.759226    0.264429
 ---------------------------------------------------------------------
                    Distance matrix (angstroms):
                    1          2          3          4          5
     1  C    0.000000
     2  C    1.473697   0.000000
     3  C    2.444058   1.476353   0.000000
     4  C    2.787976   2.517980   1.389666   0.000000
     5  C    2.403739   2.902827   2.415567   1.388766   0.000000
     6  C    1.362655   2.515039   2.814602   2.436014   1.421588
     7  O    2.362343   1.233905   2.426552   3.670150   4.135508
     8  N    3.810562   2.551879   1.449847   2.404173   3.700671
     9  O    4.266464   2.819746   2.303185   3.515468   4.709330
    10  O    4.742468   3.651298   2.300764   2.635478   4.023938
    11  N    3.711047   4.335446   3.721136   2.441189   1.432619
    12  O    4.695708   5.044353   4.109609   2.720409   2.293078
    13  O    4.086377   5.032106   4.698797   3.540391   2.284124
    14  H    1.093113   2.162718   3.421173   3.880605   3.408631
    15  H    3.876471   3.495596   2.145221   1.088543   2.148608
    16  H    2.152860   3.509304   3.904657   3.409484   2.164039
                    6          7          8          9         10
     6  C    0.000000
     7  O    3.618053   0.000000
     8  N    4.261659   2.982604   0.000000
     9  O    5.015289   2.712415   1.216920   0.000000
    10  O    4.912310   4.204673   1.231010   2.149161   0.000000
    11  N    2.471991   5.568008   4.841942   5.950070   4.879096
    12  O    3.578025   6.265347   4.937791   6.130123   4.664288
    13  O    2.725653   6.230037   5.935650   6.985648   6.070827
    14  H    2.142699   2.559017   4.690597   4.946184   5.714118
    15  H    3.422991   4.563631   2.577811   3.792208   2.269394
    16  H    1.090831   4.513410   5.350339   6.097764   5.963327
                   11         12         13         14         15
    11  N    0.000000
    12  O    1.226191   0.000000
    13  O    1.228328   2.156562   0.000000
    14  H    4.610975   5.675956   4.778905   0.000000
    15  H    2.658934   2.417110   3.878684   4.969148   0.000000
    16  H    2.670768   3.890583   2.403513   2.510266   4.303631
                   16
    16  H    0.000000
 Stoichiometry    C6H3N2O5(1-)
 Framework group  C1[X(C6H3N2O5)]
 Deg. of freedom    42
 Full point group                 C1      NOp   1
 Largest Abelian subgroup         C1      NOp   1
 Largest concise Abelian subgroup C1      NOp   1
                         Standard orientation:                         
 ---------------------------------------------------------------------
 Center     Atomic      Atomic             Coordinates (Angstroms)
 Number     Number       Type             X           Y           Z
 ---------------------------------------------------------------------
      1          6           0        0.031009    2.105160   -0.000010
      2          6           0        1.286757    1.333875   -0.000015
      3          6           0        1.038705   -0.121490   -0.000017
      4          6           0       -0.238222   -0.669786   -0.000012
      5          6           0       -1.361984    0.146199   -0.000004
      6          6           0       -1.218053    1.560482   -0.000006
      7          8           0        2.384238    1.897840   -0.000024
      8          7           0        2.131717   -1.074055   -0.000021
      9          8           0        3.277240   -0.663359    0.000110
     10          8           0        1.853392   -2.273188   -0.000059
     11          7           0       -2.668678   -0.441124    0.000005
     12          8           0       -2.770819   -1.663053    0.000006
     13          8           0       -3.640191    0.310509    0.000031
     14          1           0        0.174708    3.188787   -0.000009
     15          1           0       -0.355346   -1.752010   -0.000012
     16          1           0       -2.120786    2.172842   -0.000002
 ---------------------------------------------------------------------
 Rotational constants (GHZ):           1.4884340           0.5652860           0.4096912
 Standard basis: def2SVP (5D, 7F)
 There are   210 symmetry adapted cartesian basis functions of A   symmetry.
 There are   197 symmetry adapted basis functions of A   symmetry.
   197 basis functions,   346 primitive gaussians,   210 cartesian basis functions
    47 alpha electrons       47 beta electrons
       nuclear repulsion energy       761.6304613368 Hartrees.
 NAtoms=   16 NActive=   16 NUniq=   16 SFac= 1.00D+00 NAtFMM=   60 NAOKFM=F Big=F
 Integral buffers will be    131072 words long.
 Raffenetti 2 integral format.
 Two-electron integral symmetry is turned on.
 One-electron integrals computed using PRISM.
   1 Symmetry operations used in ECPInt.
 ECPInt:  NShTT=    3828 NPrTT=   14884 LenC2=    3631 LenP2D=   10363.
 LDataN:  DoStor=T MaxTD1= 4 Len=   56
 NBasis=   197 RedAO= T EigKep=  2.64D-04  NBF=   197
 NBsUse=   197 1.00D-06 EigRej= -1.00D+00 NBFU=   197
 Initial guess from the checkpoint file:  "pka_scale_frag4_pka_A_opt.chk"
 B after Tr=    -0.000000    0.000000   -0.000000
[...]
     6         -0.61384462          1.05938267          3.13605364
     8         -2.24369341          3.87533206         -2.85605594
     7          0.43459226         -0.74942161         -4.63931928
     8         -0.35258971          0.61119399         -6.32129795
     8          1.58135006         -2.72986947         -5.05783835
     7          1.66730369         -2.88024564          4.17876311
     8          2.77049198         -4.78593384          3.45082607
     8          1.37242274         -2.37222686          6.42695781
     1         -2.55116462          4.40528179          1.92173515
     1          1.95129665         -3.36959570         -0.82551199
     1         -0.81251781          1.40202891          5.15933655

 Electric dipole moment (dipole orientation):
 (Debye = 10**-18 statcoulomb cm , SI units = C m)
                  (au)            (Debye)         (10**-30 SI)
   Tot        0.100516D+01      0.255486D+01      0.852211D+01
   x          0.000000D+00      0.000000D+00      0.000000D+00
   y          0.000000D+00      0.000000D+00      0.000000D+00
   z          0.100516D+01      0.255486D+01      0.852211D+01

 Dipole polarizability, Alpha (dipole orientation).
 (esu units = cm**3 , SI units = C**2 m**2 J**-1)
 Alpha(0;0):
               (au)            (10**-24 esu)      (10**-40 SI)
   iso        0.107067D+03      0.158657D+02      0.176529D+02
   aniso      0.109213D+03      0.161836D+02      0.180067D+02
   xx         0.623385D+02      0.923761D+01      0.102782D+02
   yx        -0.388494D+02     -0.575688D+01     -0.640540D+01
   yy         0.106945D+03      0.158476D+02      0.176329D+02
   zx         0.107388D+02      0.159132D+01      0.177058D+01
   zy        -0.185777D+02     -0.275294D+01     -0.306306D+01
   zz         0.151917D+03      0.225117D+02      0.250477D+02

 ----------------------------------------------------------------------
 1\1\GINC-CHPC-CN079\Freq\RMN15\def2SVP\C6H3N2O5(1-)\S1155246976\10-Jun
 -2026\0\\#N Geom=AllCheck Guess=TCheck SCRF=Check GenChk RMN15/def2SVP
  Freq\\Gaussian pKa calculation job\\-1,1\C,0.0890966614,1.7665391317,
 0.2962468153\C,-1.1890061756,1.0452644442,0.1929514767\C,-0.9972815335
 ,-0.3962319815,-0.0525528207\C,0.2578678651,-0.9793437624,-0.168608576
 9\C,1.4115652849,-0.2125971931,-0.0558890392\C,1.3169098461,1.18608730
 04,0.1810216125\O,-2.2600605207,1.6420315898,0.3087057303\N,-2.1273839
 815,-1.2947056526,-0.1878035338\O,-3.2563497646,-0.8461182677,-0.09641
 49244\O,-1.9001019401,-2.4873202849,-0.3918512907\N,2.6953447207,-0.83
 34095609,-0.1787092886\O,2.7533754909,-2.0421619039,-0.3829189467\O,3.
 6944857721,-0.1244644627,-0.0733298349\H,-0.0161749425,2.8393545968,0.
 4784269454\H,0.3306884042,-2.0505270254,-0.350047169\H,2.2412330141,1.
 7596196934,0.2644652543\\Version=ES64L-G16RevB.01\State=1-A\HF=-714.58
 8192\RMSD=4.272e-09\RMSF=6.691e-05\ZeroPoint=0.0988657\Thermal=0.10812
 68\Dipole=0.938283,0.3574757,0.0467436\DipoleDeriv=-0.5850902,0.440909
 9,0.0792906,-0.1786778,0.0979322,0.0579908,-0.0250502,0.0491745,-0.222
 6385,1.301407,-0.65222,-0.1252451,-0.5666039,0.7257252,0.0932333,-0.11
 08244,0.094441,0.2375331,-1.2763765,-0.5224887,-0.0718202,0.3833994,-0
 .5915302,-0.0821844,0.0808032,-0.0692883,-0.14879,1.5482912,0.3359703,
 0.0349989,0.0222778,-0.1170896,-0.0247503,-0.0177981,-0.0291968,0.0233
 379,-1.7779088,0.101583,0.0403035,0.1435357,-0.6435857,-0.086319,0.047
 4702,-0.0857452,-0.1582478,0.2357587,-0.316711,-0.0574177,-0.2683259,0
 .6479364,0.1215338,-0.0492413,0.1222274,-0.029777,-1.2936013,0.6242911
 ,0.1179464,0.5812169,-0.7926188,-0.0753109,0.1106919,-0.0759398,-0.408
 8985,2.0971449,0.4978642,0.0588625,0.710594,1.7187137,0.2236475,0.0946
 526,0.2267012,0.3670633,-1.3888388,-0.0362075,0.0093892,-0.0182413,-0.
 4468405,-0.025539,0.0123691,-0.0252542,-0.2980167,-0.5879368,-0.123034
 9,-0.0171811,-0.3462181,-1.3430687,-0.1644603,-0.0547536,-0.1677098,-0
 .3642772,2.9658705,-0.4063508,-0.1055696,-0.7750023,1.5662831,0.215802
 3,-0.1675308,0.2104952,0.388013,-0.7515087,0.256487,0.0492047,0.752324
 6,-1.3010916,-0.1747442,0.1326342,-0.16752,-0.3572431,-1.6822236,-0.16
 88788,-0.0092653,-0.4215264,-0.566116,-0.0331814,-0.0519939,-0.0368423
 ,-0.3387869,0.0387678,0.0425434,0.0081111,0.0054224,-0.1211677,-0.0382
 258,0.0018502,-0.0387552,0.0987893,0.1475855,0.0132159,0.001705,0.0130
 444,0.1000863,-0.0019794,0.0016602,-0.0019864,0.1103712,0.0086593,-0.0
 869731,-0.0133128,-0.0372196,0.066432,-0.005513,-0.0049392,-0.0048011,
 0.1015679\Polar=163.3649758,-8.0184162,115.773273,-3.1029806,12.900381
 5,42.0619448\Quadrupole=-20.0300617,3.419329,16.6107327,5.1108575,1.38
 53608,-2.3643357\PG=C01 [X(C6H3N2O5)]\NImag=1\\0.72782318,-0.11493762,
 0.69466826,-0.02800363,0.09841102,0.13703174,-0.16705374,-0.07792727,-
 0.01188527,0.84980721,-0.04902863,-0.16262048,-0.01322953,-0.17946752,
 0.61163553,-0.00701742,-0.01281819,-0.08199116,-0.03938713,0.07084627,
 0.21864891,0.02746836,-0.02434354,-0.00436276,-0.12324800,-0.01368661,
 -0.00155212,0.66210851,-0.02053992,-0.01324410,-0.00345127,0.00167401,
 -0.20254306,-0.02228819,-0.09301560,0.60129959,-0.00372272,-0.00339775
 ,0.00846874,0.00103402,-0.02206901,-0.07408117,-0.02339535,0.08269893,
 0.13236736,-0.03342811,0.00457662,0.00124377,0.02026155,0.06081685,0.0
 0994875,-0.30273540,0.09429111,0.01937168,0.73756569,-0.01103633,-0.00
 020040,0.00015698,0.03293812,-0.00307096,-0.00093030,0.13538075,-0.171
 34778,-0.02112321,0.00957984,0.74856922,-0.00138620,-0.00006525,-0.000
 19206,0.00525485,-0.00132644,-0.00062777,0.02629357,-0.02053903,-0.061
 18708,-0.00680531,0.10135713,0.16310147,0.00444058,0.03036238,0.005177
 14,-0.00077556,-0.02897680,-0.00495938,-0.07650504,0.01016468,0.002891
 21,-0.25449548,-0.15113285,-0.02266894,0.65425732,0.05972814,-0.022968
 04,-0.00621735,-0.02529513,-0.03062854,-0.00373322,-0.02748763,0.02468
 922,0.00347731,-0.11064316,-0.20294621,-0.02267571,0.07072215,0.704714
 12,0.01012219,-0.00579997,0.00778131,-0.00433939,-0.00368052,-0.006884
 17,-0.00345072,0.00294325,0.00690638,-0.01584964,-0.02210182,-0.062453
 69,0.00422518,0.09859265,0.12984541,-0.40905095,0.15599545,0.03123600,
 -0.03984944,-0.00332356,0.00002331,-0.01210834,0.00070932,0.00027651,0
 .01739351,-0.02115850,-0.00370768,-0.09716971,-0.02638801,-0.00387679,
 0.81656919,0.10687700,-0.18418396,-0.02240676,0.01970710,0.04901056,0.
 00778066,0.03212235,-0.01280462,-0.00243416,-0.04777707,-0.03576019,-0
 .00656422,0.01483293,-0.30260272,-0.04149741,-0.01146879,0.66381512,0.
 02296368,-0.02310593,-0.06438736,0.00390218,0.00810765,0.00246320,0.00
 556766,-0.00198745,-0.00147917,-0.00819216,-0.00694293,0.00619832,0.00
 306428,-0.04091089,-0.06439249,-0.01152862,0.08804113,0.15701931,-0.08
 763760,0.01822848,0.00464558,-0.54586679,0.24430032,0.04786035,0.00120
 444,0.04611336,0.00800937,-0.00203419,-0.00240322,-0.00031707,-0.00597
 438,0.01284521,0.00225841,0.00623413,-0.02002159,-0.00340985,0.6383374
 4,-0.00229911,0.02616569,0.00055394,0.24947037,-0.22682026,-0.02926304
 ,0.04976648,-0.04071664,-0.01063876,-0.01542261,-0.00660207,-0.0015934
 0,0.00984581,0.00214609,0.00010189,-0.00379312,-0.00342926,-0.00112293
 ,-0.28956179,0.24899342,0.00118804,0.00026217,0.02309623,0.04873046,-0
 .02918967,-0.07976433,0.00862367,-0.01058664,0.01633891,-0.00250893,-0
 .00177833,0.00389632,0.00175317,0.00005921,0.00069444,-0.00067680,-0.0
 0089212,0.00341710,-0.05740151,0.04070931,0.03943696,-0.00688809,0.000
 47090,0.00025976,0.03208564,-0.02156223,-0.00412401,-0.11805170,-0.024
 01700,-0.00344601,-0.06675990,-0.02108730,-0.00268048,0.01666732,0.017
 22414,0.00278153,0.00577563,-0.01023278,-0.00182335,-0.02653631,0.0062
 5422,0.00139327,0.88419522,-0.00226762,-0.00716652,-0.00216464,-0.0335
 5808,-0.01341658,-0.00134785,-0.01435647,-0.14085943,-0.01067966,-0.03
 327452,0.01792072,0.00441540,0.02653310,0.00600254,-0.00077064,0.00356
 619,-0.00906675,-0.00136863,0.00241992,0.00811527,0.00177935,-0.162362
 45,0.86204362,-0.00020028,-0.00220332,0.00550817,-0.00614269,-0.001520
 98,-0.00274277,-0.00182607,-0.01054743,-0.07797614,-0.00473207,0.00424
 448,-0.00471399,0.00435046,-0.00063792,0.00816344,0.00050076,-0.001172
 48,-0.00144800,0.00074466,0.00172485,-0.00237311,-0.03638344,0.1067041
 3,0.26041295,0.00471293,0.00117557,0.00012371,-0.01131878,0.00894282,0
 .00166173,-0.07908783,0.00123757,0.00158106,0.00883323,-0.00692428,-0.
 00123260,-0.00922048,-0.00479048,-0.00068894,-0.00275158,0.00607582,0.
 00106906,0.01172565,-0.00644946,-0.00121836,-0.57163327,0.16345212,0.0
 3442320,0.66638924,-0.00124552,0.00016067,0.00013222,0.00678175,-0.004
 43531,-0.00078003,-0.00571083,0.02448943,0.00111283,-0.00207744,-0.003
 29579,-0.00123157,-0.00114058,0.00217979,0.00055302,0.00024181,-0.0011
 4927,-0.00027542,-0.01162220,-0.01048570,-0.00201823,0.14114413,-0.185
 41414,-0.01957550,-0.22470289,0.22747290,-0.00028413,0.00009805,-0.000
 50016,0.00129664,-0.00080827,-0.00053533,0.00041577,0.00101638,0.01852
 653,-0.00041629,-0.00116366,0.00400106,-0.00007577,0.00060498,-0.00090
 453,0.00008638,-0.00035798,0.00040413,-0.00208775,-0.00209272,0.002151
 07,0.03065893,-0.01988946,-0.08471732,-0.04681110,0.03672136,0.0349913
 5,0.00052253,-0.00177360,-0.00033510,-0.01033987,0.00485008,0.00102626
 ,0.01172519,-0.03167144,-0.00522920,-0.01095531,-0.00426422,-0.0005248
 6,0.00320448,-0.00217891,-0.00042428,-0.00115225,-0.00076809,-0.000109
 55,0.00614583,-0.00096913,-0.00025591,-0.14562592,0.05058562,0.0094168
 5,-0.02018504,0.09962475,0.01747172,0.17050672,0.00129176,-0.00123802,
 0.00011821,-0.00452011,0.00302590,-0.00016504,-0.02939127,-0.06245429,
 -0.01331465,0.02027080,-0.00390857,-0.00138815,-0.01261391,-0.00298825
 ,-0.00018778,-0.00060165,0.00295366,0.00046471,-0.00020706,-0.00325439
 ,-0.00048057,0.07086771,-0.53816262,-0.07783037,0.06417690,-0.04948854
 ,-0.01416559,-0.10692191,0.65816639,0.00018107,0.00016152,-0.00202287,
 -0.00055222,-0.00029838,0.00434368,-0.00484255,-0.01327945,0.01692158,
 0.00360670,-0.00104033,0.00240061,-0.00218153,-0.00033611,-0.00083212,
 -0.00008141,0.00046707,0.00032551,-0.00012727,-0.00046882,-0.00046402,
 0.01283293,-0.07755093,-0.09514511,0.01149985,-0.01466345,0.02664311,-
 0.01999708,0.10739824,0.04768059,0.01395895,-0.00480758,-0.00094336,-0
 .00995933,0.00794427,0.00144179,0.01889473,-0.01463510,-0.00262710,-0.
 06989254,0.00720341,0.00208986,-0.15540775,0.03322460,0.00684772,-0.01
 335166,0.03579140,0.00609192,0.01057680,-0.00703186,-0.00133493,-0.011
 75146,-0.01199118,-0.00179523,0.00522477,0.00077536,0.00003784,0.00124
 269,0.00801649,0.00132683,0.79199990,-0.00688324,-0.00799938,-0.002026
 99,0.00349099,-0.00592118,-0.00059126,-0.01839135,0.00024869,-0.000966
 83,0.01479060,0.02083887,0.00470549,0.02034228,-0.12882356,-0.01056079
 ,0.03897395,-0.01443192,-0.00149073,-0.00465587,0.00323597,0.00061253,
 0.00584852,0.01253426,0.00134315,-0.00352523,-0.00151313,0.00001892,0.
 00071550,-0.00723474,-0.00116221,0.11329279,0.96182165,-0.00129192,-0.
 00205674,0.00429028,0.00069094,-0.00065441,-0.00282739,-0.00325850,-0.
 00102081,0.00742051,0.00336381,0.00481118,-0.00757775,0.00466330,-0.01
 073615,-0.06972947,0.00662669,-0.00144160,-0.00922241,-0.00093416,0.00
 064616,0.00011444,0.00120938,0.00159552,0.00431850,-0.00068650,-0.0000
 4164,-0.00132632,0.00009749,-0.00126539,-0.00060938,0.01135475,0.11933
 459,0.26339781,-0.00141281,0.00269053,0.00046495,0.00212329,-0.0003474
 8,-0.00007724,-0.00018434,0.00226062,0.00037281,-0.00361164,0.00286501
 ,0.00055746,-0.00245388,0.04569123,0.00796832,-0.00476467,-0.00386510,
 -0.00050109,-0.00222036,0.00120838,0.00023369,0.00227736,0.00123172,0.
 00017113,-0.00128231,-0.00015242,-0.00000581,-0.00090650,-0.00115176,-
 0.00017889,-0.14102972,0.04803228,0.00890550,0.14012347,0.00435565,-0.
 00004954,0.00003198,-0.00459932,0.00126369,0.00013838,0.01064317,-0.00
 239443,-0.00042950,-0.02235557,-0.00450814,-0.00072969,0.04621874,-0.0
 5138444,-0.01219906,0.00144433,0.00581498,-0.00002414,0.00444872,-0.00
 170365,-0.00033238,-0.00486742,-0.00852886,-0.00131959,0.00201520,0.00
 109437,0.00013457,-0.00016775,0.00556541,0.00091382,0.02525481,-0.5631
 6002,-0.08120831,-0.02238658,0.69635860,0.00074510,0.00005622,-0.00061
 092,-0.00079265,0.00007758,0.00085672,0.00178342,-0.00030991,-0.000821
 74,-0.00368732,-0.00108667,0.00157477,0.00806415,-0.01219783,0.0150456
 8,0.00039311,0.00004928,0.00585035,0.00077886,-0.00028612,-0.00016531,
 -0.00085554,-0.00140534,-0.00050646,0.00035915,0.00016517,0.00014800,-
 0.00001325,0.00092710,0.00030986,0.00506822,-0.08151192,-0.09655375,-0
 .00529664,0.11217791,0.05068264,-0.00422822,0.00057169,0.00015374,0.00
 291578,-0.00543089,-0.00095066,-0.00854170,0.00298410,0.00061123,0.008
 95572,0.00799739,0.00129555,-0.08224950,-0.02246507,-0.00236832,0.0015
 4833,-0.00931046,-0.00156974,-0.00405388,0.00362402,0.00066767,0.00513
 384,0.00600154,0.00091792,-0.00324766,-0.00062702,-0.00005441,-0.00088
 796,-0.00332403,-0.00054502,-0.44217155,-0.20873489,-0.03009194,0.0162
 7218,-0.04336409,-0.00713862,0.51270328,-0.00145076,0.00315297,0.00058
 598,0.00071876,-0.00171949,-0.00036958,-0.00057606,0.00326656,0.000720
 68,0.00502033,-0.00028513,-0.00104108,-0.01519948,0.01868168,0.0002914
 0,0.00616346,-0.01138804,-0.00224270,-0.00074861,0.00122832,0.00022277
 ,0.00090130,0.00007251,0.00024124,-0.00032726,0.00008885,-0.00004455,-
 0.00025838,0.00002550,-0.00001852,-0.18626624,-0.26451346,-0.02803637,
 -0.08099003,-0.08058247,-0.01713466,0.26792096,0.32897882,-0.00018767,
 0.00055736,-0.00010658,0.00008575,-0.00028239,0.00036550,0.00001058,0.
 00066996,-0.00085115,0.00079585,-0.00108218,0.00527767,-0.00113479,0.0
 0039240,0.01830537,0.00103635,-0.00202502,0.00105822,-0.00006930,0.000
 16093,-0.00000323,0.00005877,0.00016924,-0.00140831,-0.00000390,-0.000
 04041,0.00037411,-0.00002883,0.00002484,0.00016182,-0.02632508,-0.0277
 2853,-0.08676418,-0.01346840,-0.01765554,0.02516365,0.03834304,0.04638
 941,0.03838876,-0.05363516,0.02486621,0.00444474,0.00531753,-0.0269664
 6,-0.00453125,-0.00348097,-0.00057446,-0.00000853,-0.00149892,-0.00012
 589,-0.00000517,-0.00366547,0.00093423,0.00032335,0.00116886,0.0273324
 3,0.00464618,0.00241490,0.00354688,0.00051572,-0.00002331,-0.00156944,
 -0.00027607,0.00026230,0.00000687,-0.00000153,-0.00033000,-0.00034583,
 -0.00005148,0.00063695,0.00135510,0.00024997,-0.00059494,0.00037469,0.
 00005794,-0.00010936,-0.00006119,-0.00000981,0.05230046,0.02414077,-0.
 33689451,-0.05109254,0.00805859,-0.01434657,-0.00355076,-0.00321921,-0
 .00092986,-0.00056931,-0.00096775,0.00060714,0.00017899,0.00221350,0.0
 0209208,-0.00102536,-0.00246185,-0.00701432,-0.00184908,0.00001308,0.0
 0355124,0.00115787,0.00112330,-0.00052401,0.00003862,-0.00028875,0.000
 07136,0.00000420,-0.00045923,-0.00056989,-0.00011412,-0.00078816,-0.00
 011732,-0.00037289,0.00032010,-0.00030389,0.00010434,0.00036486,-0.000
 00686,0.00000569,-0.02828609,0.35391233,0.00432279,-0.05110279,-0.0442
 3678,0.00136780,-0.00305262,0.00552151,-0.00045421,-0.00060700,0.00262
 676,-0.00014662,0.00016715,-0.00034379,0.00053873,-0.00100757,0.007815
 36,-0.00037219,-0.00227274,0.00379483,-0.00007950,0.00110771,-0.003136
 99,0.00017780,0.00007701,-0.00083751,-0.00005147,0.00000008,0.00007125
 ,-0.00007062,-0.00011578,0.00012803,-0.00011133,-0.00040308,0.00209696
 ,0.00004902,0.00010329,-0.00093346,0.00006194,0.00001169,-0.00007008,-
 0.00515747,0.05586011,0.03411079,-0.00030771,0.00031915,0.00004967,-0.
 00441918,-0.00128247,-0.00005928,0.00276431,0.02462269,0.00422183,-0.0
 4854533,0.02136519,0.00367240,0.00580015,-0.02216649,-0.00371415,-0.00
 422329,-0.00161202,-0.00014862,-0.00036840,0.00183363,0.00029680,0.000
 89375,0.00539129,0.00081240,0.00171219,-0.00128914,-0.00023135,-0.0029
 5878,-0.00533852,-0.00085825,0.00207343,-0.00376371,-0.00073340,-0.002
 52224,0.00358046,0.00063554,0.00095913,0.00138901,0.00022684,-0.000014
 56,-0.00001986,-0.00000553,0.04888578,0.00003112,0.00080187,0.00023504
 ,0.00091622,0.00176757,-0.00082605,0.00097490,-0.00699041,-0.00254377,
 0.02162436,-0.35039690,-0.05202602,0.00166497,-0.00935579,-0.00280271,
 -0.00233667,0.00033625,-0.00065244,0.00008212,-0.00063169,0.00009650,0
 .00044236,-0.00304292,0.00045810,0.00000183,0.00016489,-0.00008623,-0.
 00607527,-0.00073154,-0.00002338,0.00053656,-0.00347421,0.00024104,0.0
 0359325,0.00134087,0.00020782,0.00018342,0.00048441,0.00000275,0.00003
 003,-0.00003665,0.00002155,-0.02179373,0.37010574,0.00000126,0.0002308
 9,-0.00055733,0.00031095,-0.00079485,0.00645597,0.00023771,-0.00288079
 ,0.00754317,0.00371756,-0.05202173,-0.05212441,0.00029819,-0.00246390,
 0.00672675,-0.00027071,-0.00066285,0.00430093,0.00000191,0.00007156,-0
 .00119935,-0.00001991,0.00038842,-0.00573391,-0.00001519,-0.00006766,0
 .00066556,-0.00098181,-0.00003393,-0.00007149,-0.00000848,0.00030149,-
 0.00489881,0.00063804,0.00020845,-0.00017098,0.00002338,-0.00001453,0.
 00045020,0.00000289,0.00002227,-0.00016347,-0.00395884,0.05782635,0.03
 838482,-0.01528413,-0.01546739,-0.00226894,0.00031968,0.00321830,0.000
 69629,-0.00022224,0.00039605,0.00005918,0.00094712,0.00080290,0.000164
 63,0.00354739,0.00104520,0.00018550,-0.26426777,-0.13768312,-0.0200219
 8,-0.00194729,-0.00002270,-0.00000605,0.00024119,0.00019825,0.00001848
 ,-0.00013336,-0.00000663,0.00000085,-0.00000583,-0.00020761,-0.0000316
 6,-0.00104423,-0.00088773,-0.00016541,0.00018711,-0.00059502,-0.000101
 45,-0.00299844,0.00376417,0.00067061,0.00125167,0.00025672,-0.00006916
 ,0.00027073,0.00012453,0.00002303,0.27913839,0.01326432,0.01161549,0.0
 0036369,0.00161152,-0.00118081,-0.00210181,0.00129092,0.00029111,0.000
 15686,0.00154762,-0.00561380,-0.00147644,-0.02383692,-0.00880797,-0.00
 185616,-0.13556236,-0.14009952,-0.01464020,0.00076912,0.00020768,0.000
 37823,-0.00014739,-0.00050708,0.00005301,-0.00006949,0.00005961,0.0000
 1001,-0.00026801,0.00029398,0.00001506,-0.00651955,-0.00149054,0.00020
 581,0.00100022,0.00117751,0.00016701,0.00360848,0.00251583,0.00044148,
 -0.00051707,0.00050974,0.00121299,-0.00123547,-0.00034149,-0.00010920,
 0.14506406,0.14137025,0.00256985,0.00077270,0.00842876,0.00042577,-0.0
 0212441,0.01079860,0.00020988,0.00016945,-0.00072349,0.00029022,-0.001
 46577,0.00277031,-0.00400540,-0.00220990,0.00391231,-0.01966493,-0.014
 61081,-0.04390246,0.00012726,0.00038946,-0.00203913,-0.00003963,0.0000
 4809,-0.00080044,-0.00000972,0.00000921,0.00000749,-0.00004182,0.00001
 416,0.00023019,-0.00111341,0.00012616,-0.00212903,0.00016716,0.0001898
 0,0.00013097,0.00064426,0.00043879,-0.00034177,-0.00019948,0.00120195,
 -0.00644342,-0.00020608,-0.00012855,0.00039236,0.02084607,0.01717967,0
 .02970876\\0.00019294,-0.00005602,-0.00001200,0.00007467,0.00005551,0.
 00000791,-0.00002578,-0.00002754,-0.00001069,0.00006784,-0.00004217,-0
 .00000639,0.00000702,0.00000018,0.00001294,-0.00000034,0.00003121,0.00
 000795,-0.00025601,0.00008413,0.00001736,0.00001470,0.00008238,0.00003
 891,0.00007711,-0.00017359,-0.00003909,-0.00013824,0.00005021,0.000001
 05,0.00004024,-0.00000486,-0.00006146,-0.00001508,0.00003590,0.0000280
 2,-0.00006829,-0.00002722,0.00001788,-0.00000211,-0.00002791,-0.000005
 10,0.00001996,0.00002947,0.00000467,0.00001136,-0.00000970,-0.00000195
 \\\@


 LET US LEARN TO DREAM, GENTLEMEN, THEN PERHAPS WE SHALL
 DISCOVER THE TRUTH;  BUT LET US BEWARE OF PUBLISHING
 OUR DREAMS ABROAD BEFORE THEY HAVE BEEN SCRUTINIZED
 BY OUR VIGILANT INTELLECT ... LET US ALWAYS ALLOW
 THE FRUIT TO HANG UNTIL IT IS RIPE.  UNRIPE FRUIT
 BRINGS EVEN THE GROWER BUT LITTLE PROFIT; IT DAMAGES
 THE HEALTH OF THOSE WHO CONSUME IT; IT ENDANGERS
 PARTICULARLY THE YOUTH WHO CANNOT YET DISTINGUISH
 BETWEEN RIPE AND UNRIPE FRUIT.

                                  -- KEKULE, 1890
 Job cpu time:       0 days  0 hours 29 minutes  2.8 seconds.
 Elapsed time:       0 days  0 hours  0 minutes 27.8 seconds.
 File lengths (MBytes):  RWF=     86 Int=      0 D2E=      0 Chk=      4 Scr=      1
 Normal termination of Gaussian 16 at Wed Jun 10 15:30:24 2026.
