49
3a_S.xyz    Empirical formula: C23H22NO2P    Energy(Hartree): -1433.830695    
C        2.3885920000   -1.0302870000    1.7286360000
C        3.5246780000   -1.7146850000    2.1903960000
C        2.4977630000   -0.2683640000    0.5733640000
C        4.7376460000   -1.6267800000    1.5060280000
C        4.8577660000   -0.8606680000    0.3378920000
C        3.7229720000   -0.1933570000   -0.1085580000
N        3.5892090000    0.6128190000   -1.2474850000
C        2.2980880000    1.0673130000   -1.3786710000
C        1.4976860000    0.6047010000   -0.1487950000
C        1.1654020000    1.8678270000    0.6609080000
H        0.5499740000    2.5530100000    0.0583400000
H        2.0938220000    2.3843300000    0.9469330000
H        0.6214420000    1.5951710000    1.5779340000
O        1.8640230000    1.7310030000   -2.2980300000
C        0.2463320000   -0.1264420000   -0.6646720000
H        0.5079030000   -1.1493130000   -0.9805310000
H       -0.1241770000    0.4043840000   -1.5599710000
C        4.6300480000    0.8812210000   -2.2047860000
H        5.4732990000    1.4125130000   -1.7362160000
H        4.1979420000    1.5099720000   -2.9939980000
H        5.0086880000   -0.0522870000   -2.6507460000
H        3.4572230000   -2.3219580000    3.0952820000
H        5.6109920000   -2.1647930000    1.8819440000
H        5.8051970000   -0.7938480000   -0.2011060000
H        1.4267030000   -1.0920940000    2.2445510000
P       -1.1351370000   -0.2884800000    0.5077380000
O       -0.7597700000   -0.6770780000    1.9090600000
C       -2.0526580000    1.2751700000    0.4780110000
C       -2.2105530000   -1.5230010000   -0.2638390000
C       -2.5759240000    1.6918400000    1.7089450000
C       -2.7180050000   -1.3978430000   -1.5643480000
C       -2.2618320000    2.0549230000   -0.6682080000
C       -2.5159370000   -2.6528290000    0.5031240000
C       -3.3158720000    2.8724170000    1.7901830000
C       -3.5267600000   -2.4025370000   -2.0938930000
C       -3.0003600000    3.2356750000   -0.5821730000
C       -3.3288960000   -3.6555000000   -0.0299600000
C       -3.5297710000    3.6426520000    0.6453450000
C       -3.8321740000   -3.5306230000   -1.3259560000
H       -2.3781830000    1.0792850000    2.5926340000
H       -2.4877800000   -0.5139040000   -2.1664080000
H       -1.8352200000    1.7628580000   -1.6319290000
H       -2.1051890000   -2.7216680000    1.5137820000
H       -3.7220060000    3.1952820000    2.7512960000
H       -3.9225800000   -2.3061920000   -3.1071740000
H       -3.1564000000    3.8443260000   -1.4753300000
H       -3.5695750000   -4.5371650000    0.5681200000
H       -4.1054470000    4.5687450000    0.7094480000
H       -4.4674610000   -4.3155370000   -1.7425980000
