
                                 *****************
                                 * O   R   C   A *
                                 *****************

                                            #,                                       
                                            ###                                      
                                            ####                                     
                                            #####                                    
                                            ######                                   
                                           ########,                                 
                                     ,,################,,,,,                         
                               ,,#################################,,                 
                          ,,##########################################,,             
                       ,#########################################, ''#####,          
                    ,#############################################,,   '####,        
                  ,##################################################,,,,####,       
                ,###########''''           ''''###############################       
              ,#####''   ,,,,##########,,,,          '''####'''          '####       
            ,##' ,,,,###########################,,,                        '##       
           ' ,,###''''                  '''############,,,                           
         ,,##''                                '''############,,,,        ,,,,,,###''
      ,#''                                            '''#######################'''  
     '                                                          ''''####''''         
             ,#######,   #######,   ,#######,      ##                                
            ,#'     '#,  ##    ##  ,#'     '#,    #''#        ,####,   ,####,        
            ##       ##  ##   ,#'  ##            #'  '#       #'       #'  '#        
            ##       ##  #######   ##           ,######,      #####,   #    #        
            '#,     ,#'  ##    ##  '#,     ,#' ,#      #,     #,   #   #,  ,#        
             '#######'   ##     ##  '#######'  #'      '#     '####' # '####'        



                #########################################################
                #                        -***-                          #
                #          Department of theory and spectroscopy        #
                #                                                       #
                #                      Frank Neese                      #
                #                                                       #
                #     Directorship, Architecture, Infrastructure        #
                #                    SHARK, DRIVERS                     #
                #        Core code/Algorithms in most modules           #
                #                                                       #
                #        Max Planck Institute fuer Kohlenforschung      #
                #                Kaiser Wilhelm Platz 1                 #
                #                 D-45470 Muelheim/Ruhr                 #
                #                      Germany                          #
                #                                                       #
                #                  All rights reserved                  #
                #                        -***-                          #
                #########################################################


                         Program Version 6.0.1  -  RELEASE   -


 With contributions from (in alphabetic order):
[Max-Planck-Institut fuer Kohlenforschung]                               
  Daniel Aravena         : Magnetic Suceptibility                        
  Michael Atanasov       : Ab Initio Ligand Field Theory (pilot matlab implementation)
  Alexander A. Auer      : GIAO ZORA, VPT2 properties, NMR spectrum      
  Ute Becker             : All parallelization in ORCA, NUMFREQ, NUMCALC 
  Giovanni Bistoni       : ED, misc. LED, open-shell LED, HFLD           
  Martin Brehm           : Molecular dynamics                            
  Dmytro Bykov           : pre 5.0 version of the SCF Hessian            
  Marcos Casanova-Páez   : Triplet and SCS-CIS(D). UHF-(DLPNO)-IP/EA/STEOM-CCSD. UHF-CVS-IP/STEOM-CCSD   
  Vijay G. Chilkuri      : MRCI spin determinant printing, contributions to CSF-ICE 
  Pauline Colinet        : FMM embedding                                 
  Dipayan Datta          : RHF DLPNO-CCSD density                        
  Achintya Kumar Dutta   : EOM-CC, STEOM-CC                              
  Nicolas Foglia         : Exact transition moments, OPA infrastructure, MCD improvements    
  Dmitry Ganyushin       : Spin-Orbit,Spin-Spin,Magnetic field MRCI      
  Miquel Garcia-Rates    : C-PCM and meta-GGA Hessian, CCSD/C-PCM, Gaussian charge scheme 
  Tiago L. C. Gouveia    : GS-ROHF, GS-ROCIS                             
  Yang Guo               : DLPNO-NEVPT2, F12-NEVPT2, CIM, IAO-localization        
  Andreas Hansen         : Spin unrestricted coupled pair/coupled cluster methods 
  Ingolf Harden          : AUTO-CI MPn and infrastructure                
  Benjamin Helmich-Paris : MC-RPA, TRAH-(SCF,CASSCF), AVAS, COSX integrals, SCF dyn. polar. 
  Lee Huntington         : MR-EOM, pCC                                   
  Robert Izsak           : Overlap fitted RIJCOSX, COSX-SCS-MP3, EOM     
  Riya Kayal             : Wick's Theorem for AUTO-CI, AUTO-CI UHF-CCSDT 
  Emily Kempfer          : AUTO-CI, RHF CISDT and CCSDT                  
  Christian Kollmar      : KDIIS, OOCD, Brueckner-CCSD(T), CCSD density, CASPT2, CASPT2-K, improved NEVPT2 
  Axel Koslowski         : Symmetry handling                             
  Simone Kossmann        : meta-GGA functionals, TD-DFT gradient, OOMP2, (MP2 Hessian; deprecated post 5.0) 
  Lucas Lang             : DCDCAS                                        
  Marvin Lechner         : AUTO-CI (C++ implementation), FIC-MRCC        
  Spencer Leger          : CASSCF response                               
  Dagmar Lenk            : GEPOL surface, SMD, ORCA-2-JSON               
  Dimitrios Liakos       : Extrapolation schemes; Compound Job, initial MDCI parallelization 
  Dimitrios Manganas     : Further ROCIS development; embedding schemes. LFT, Crystal Embedding 
  Dimitrios Pantazis     : SARC Basis sets                               
  Anastasios Papadopoulos: AUTO-CI, single reference methods and gradients 
  Taras Petrenko         : pre 6.0 DFT Hessian and TD-DFT gradient, (ASA, deprecated), ECA, 1-Electron XAS/XES, NRVS 
  Peter Pinski           : DLPNO-MP2, DLPNO-MP2 Gradient                 
  Christoph Reimann      : Effective Core Potentials                     
  Marius Retegan         : Local ZFS, SOC                                
  Christoph Riplinger    : Optimizer, TS searches, QM/MM, DLPNO-CCSD(T), (RO)-DLPNO pert. Triples 
  Michael Roemelt        : Original ROCIS implementation                 
  Masaaki Saitow         : Open-shell DLPNO-CCSD energy and density      
  Barbara Sandhoefer     : DKH picture change effects                    
  Kantharuban Sivalingam : CASSCF convergence/infrastructure, NEVPT2 and variants, FIC-MRCI 
  Bernardo de Souza      : ESD, SOC TD-DFT                               
  Georgi L. Stoychev     : AutoAux, RI-MP2 NMR, DLPNO-MP2 response, X2C  
  Van Anh Tran           : RI-MP2 g-tensors                              
  Willem Van den Heuvel  : Paramagnetic NMR                              
  Zikuan Wang            : NOTCH, Electric field optimization            
  Frank Wennmohs         : Technical directorship and infrastructure     
  Hang Xu                : AUTO-CI-Response properties                   
                                                                         
[FACCTs GmbH]                                                            
  Markus Bursch, Miquel Garcia-Rates, Christoph Riplinger, Bernardo de Souza, Georgi L. Stoychev 
                                                                 
  APM, Basis sets (HGBS, AHGBS, def-TZVP (Ac-Lr), def2-XVPD (La-Lu)), CI-OPT, improved COSX, DLPNO-Multilevel,           
  DOCKER, DRACO, updates on ESD, GOAT, IRC, LR-CPCM, MBIS, meta-GGA TD-DFT gradient, ML-optimized integration grids, 
  MM, NACMEs, nearIR, NEB, NEB-TS, NL-DFT gradient (VV10), 2- and 3-layer-ONIOM, interface openCOSMO-RS, QMMM,   
  Crystal-QMMM, SF, symmetry and pop. for TD-DFT, r2SCAN hybrids, SOLVATOR                                   
                                                                         
[Other institutions]                                                     
  V. Asgeirsson          : NEB                                           
  Christoph Bannwarth    : sTDA-DFT, sTD-DFT, PBEh-3c, B97-3c, D3        
  Sebastian Ehlert       : rSCAN, r2SCAN, r2SCAN-3c, D4, dhf basis sets  
  Marvin Friede          : D4 for Fr, Ra, Ac-Lr                          
  Lars Goerigk           : TD-DFT with DH, B97 family of functionals     
  Stefan Grimme          : VdW corrections, initial TS optimization, DFT functionals, gCP, sTDA/sTD-DF 
  Waldemar Hujo          : DFT-NL                                        
  H. Jonsson             : NEB                                           
  Holger Kruse           : gCP                                           
  Marcel Mueller         : wB97X-3c, vDZP basis set                      
  Hagen Neugebauer       : wr2SCAN                                       
  Tobias Risthaus        : range-separated hybrid DFT                    
  Lukas Wittmann         : regularized MP2, r2SCAN double-hybrids, wr2SCAN        
                                                                         
We gratefully acknowledge several colleagues who have allowed us to      
interface, adapt or use parts of their codes:                            
  Ed Valeev, F. Pavosevic, A. Kumar             : LibInt (2-el integral package), F12 methods 
  Garnet Chan, S. Sharma, J. Yang, R. Olivares  : DMRG                   
  Ulf Ekstrom                                   : XCFun DFT Library      
  Mihaly Kallay                                 : mrcc  (arbitrary order and MRCC methods)
  Frank Weinhold                                : gennbo (NPA and NBO analysis)           
  Simon Mueller                                 : openCOSMO-RS                            
  Christopher J. Cramer and Donald G. Truhlar   : smd solvation model                     
  S Lehtola, MJT Oliveira, MAL Marques          : LibXC Library                           
  Liviu Ungur et al                             : ANISO software                          


 Your calculation uses the libint2 library for the computation of 2-el integrals
 For citations please refer to: http://libint.valeyev.net

 Your ORCA version has been built with support for libXC version: 6.2.2
 For citations please refer to: https://libxc.gitlab.io

 This ORCA versions uses:
   CBLAS   interface :  Fast vector & matrix operations
   LAPACKE interface :  Fast linear algebra routines
   SCALAPACK package :  Parallel linear algebra routines
   Shared memory     :  Shared parallel matrices
   BLAS/LAPACK       :  OpenBLAS 0.3.27  USE64BITINT DYNAMIC_ARCH NO_AFFINITY Zen SINGLE_THREADED
        Core in use  :  Zen
   Copyright (c) 2011-2014, The OpenBLAS Project


Warning: RI is on but no J-basis has been assigned. Assigning Def2/J (nothing to worry about!)
================================================================================

----- Orbital basis set information -----
Your calculation utilizes the basis: def2-SVP
   F. Weigend and R. Ahlrichs, Phys. Chem. Chem. Phys. 7, 3297 (2005).

----- AuxJ basis set information -----
Your calculation utilizes the auxiliary basis: def2/J
   F. Weigend, Phys. Chem. Chem. Phys. 8, 1057 (2006).

================================================================================
                                        WARNINGS
                       Please study these warnings very carefully!
================================================================================


WARNING: Geometry Optimization
  ===> : Switching off AutoStart
         For restart on a previous wavefunction, please use MOREAD

================================================================================
                                       INPUT FILE
================================================================================
NAME = input.inp
|  1> ! Opt B3LYP def2-SVP TightSCF
|  2> %geom 
|  3> Constraints
|  4>   { B 8 9 C }
|  5>   { A 1 5  8 C} 
|  6> end
|  7> end
|  8> * xyz 0 1
|  9>  C                 -1.53366864   -0.71741591    0.00013594
| 10>  C                 -0.13226872   -0.71751959    0.00058413
| 11>  C                  0.56852129    0.49607631    0.00001077
| 12>  C                 -0.13208863    1.70977588   -0.00100688
| 13>  C                 -1.53348855    1.70987957   -0.00145414
| 14>  C                 -2.23427856    0.49628367   -0.00088152
| 15>  H                 -2.06873737   -1.64402330    0.00057299
| 16>  H                  0.40266250   -1.64420615    0.00136022
| 17>  H                  0.40298010    2.63638328   -0.00144537
| 18>  H                 -2.06841977    2.63656613   -0.00223167
| 19>  H                 -3.30427850    0.49636284   -0.00122406
| 20>  O                  1.99852121    0.49597050    0.00046412
| 21>  H                  2.31880809    0.49535354   -0.90453087
| 22> *
| 23> 
| 24>                          ****END OF INPUT****
================================================================================

                       *****************************
                       * Geometry Optimization Run *
                       *****************************

Geometry optimization settings:
Update method            Update   .... BFGS
Choice of coordinates    CoordSys .... (2022) Redundant Internals
Initial Hessian          InHess   .... Almloef's Model
Max. no of cycles        MaxIter  .... 50

Convergence Tolerances:
Energy Change            TolE     ....  5.0000e-06 Eh
Max. Gradient            TolMAXG  ....  3.0000e-04 Eh/bohr
RMS Gradient             TolRMSG  ....  1.0000e-04 Eh/bohr
Max. Displacement        TolMAXD  ....  4.0000e-03 bohr
RMS Displacement         TolRMSD  ....  2.0000e-03 bohr
Strict Convergence                .... False

------------------------------------------------------------------------------
                        ORCA OPTIMIZATION COORDINATE SETUP
------------------------------------------------------------------------------

The optimization will be done in redundant internal coordinates (2022)
Making redundant internal coordinates   ...  (2022 redundants) done
Evaluating the initial hessian          ...  (Almloef) done
Evaluating the coordinates              ...  done
Calculating the B-matrix                .... done
Calculating the G-matrix                .... done
Diagonalizing the G-matrix              .... done
The first mode is                       ....   27
The number of degrees of freedom        ....   33
Storing new coordinates                 .... done

    -----------------------------------------------------------------
                    Redundant Internal Coordinates


    -----------------------------------------------------------------
         Definition                    Initial Value    Approx d2E/dq
    -----------------------------------------------------------------
      1. B(C   1,C   0)                  1.4014         0.599171   
      2. B(C   2,C   1)                  1.4014         0.599171   
      3. B(C   3,C   2)                  1.4014         0.599171   
      4. B(C   4,C   3)                  1.4014         0.599171   
      5. B(C   5,C   0)                  1.4014         0.599171   
      6. B(C   5,C   4)                  1.4014         0.599171   
      7. B(H   6,C   0)                  1.0700         0.387554   
      8. B(H   7,C   1)                  1.0700         0.387554   
      9. B(H   8,C   3)                  1.0700         0.387554   
     10. B(H   9,H   8)                  2.4714         0.000431 C 
     11. B(H   9,C   4)                  1.0700         0.387554   
     12. B(H  10,C   5)                  1.0700         0.387554   
     13. B(O  11,C   2)                  1.4300         0.483123   
     14. B(H  12,O  11)                  0.9600         0.519956   
     15. A(C   1,C   0,H   6)          120.0000         0.355267   
     16. A(C   1,C   0,C   5)          120.0000         0.428769   
     17. A(C   5,C   0,H   6)          120.0000         0.355267   
     18. A(C   2,C   1,H   7)          120.0000         0.355267   
     19. A(C   0,C   1,H   7)          120.0000         0.355267   
     20. A(C   0,C   1,C   2)          120.0000         0.428769   
     21. A(C   3,C   2,O  11)          120.0000         0.409948   
     22. A(C   1,C   2,C   3)          120.0000         0.428769   
     23. A(C   1,C   2,O  11)          120.0000         0.409948   
     24. A(C   2,C   3,H   8)          120.0000         0.355267   
     25. A(C   4,C   3,H   8)          120.0000         0.355267   
     26. A(C   2,C   3,C   4)          120.0000         0.428769   
     27. A(C   3,C   4,C   5)          120.0000         0.428769   
     28. A(C   3,C   4,H   9)          120.0000         0.355267   
     29. A(C   5,C   4,H   9)          120.0000         0.355267   
     30. A(C   1,C   5,H   8)           69.0631         0.105398 C 
     31. A(C   4,C   5,H  10)          120.0000         0.355267   
     32. A(C   0,C   5,C   4)          120.0000         0.428769   
     33. A(C   0,C   5,H  10)          120.0000         0.355267   
     34. A(C   2,O  11,H  12)          109.4712         0.354684   
     35. D(C   2,C   1,C   0,H   6)    180.0000         0.024745   
     36. D(C   2,C   1,C   0,C   5)     -0.0002         0.024745   
     37. D(H   7,C   1,C   0,H   6)      0.0002         0.024745   
     38. D(H   7,C   1,C   0,C   5)   -180.0000         0.024745   
     39. D(C   3,C   2,C   1,H   7)    179.9999         0.024745   
     40. D(O  11,C   2,C   1,C   0)   -179.9998         0.024745   
     41. D(C   3,C   2,C   1,C   0)      0.0002         0.024745   
     42. D(O  11,C   2,C   1,H   7)     -0.0001         0.024745   
     43. D(C   4,C   3,C   2,C   1)     -0.0001         0.024745   
     44. D(C   4,C   3,C   2,O  11)    179.9999         0.024745   
     45. D(H   8,C   3,C   2,C   1)   -180.0000         0.024745   
     46. D(H   8,C   3,C   2,O  11)      0.0000         0.024745   
     47. D(C   5,C   4,C   3,C   2)      0.0001         0.024745   
     48. D(C   5,C   4,C   3,H   8)    179.9999         0.024745   
     49. D(H   9,C   4,C   3,C   2)   -180.0000         0.024745   
     50. D(H   9,C   4,C   3,H   8)     -0.0002         0.024745   
     51. D(C   4,C   5,C   0,C   1)      0.0002         0.024745   
     52. D(H  10,C   5,C   4,C   3)   -179.9999         0.024745   
     53. D(H  10,C   5,C   0,C   1)    180.0000         0.024745   
     54. D(H  10,C   5,C   0,H   6)     -0.0002         0.024745   
     55. D(C   0,C   5,C   4,C   3)     -0.0001         0.024745   
     56. D(C   4,C   5,C   0,H   6)   -180.0000         0.024745   
     57. D(C   0,C   5,C   4,H   9)    180.0000         0.024745   
     58. D(H  10,C   5,C   4,H   9)      0.0001         0.024745   
     59. D(H  12,O  11,C   2,C   1)     90.0000         0.016748   
     60. D(H  12,O  11,C   2,C   3)    -90.0000         0.016748   
    -----------------------------------------------------------------

Number of atoms                         .... 13
Number of degrees of freedom            .... 60


         *************************************************************
         *                GEOMETRY OPTIMIZATION CYCLE   1            *
         *************************************************************
---------------------------------
CARTESIAN COORDINATES (ANGSTROEM)
---------------------------------
  C     -1.533669   -0.717416    0.000136
  C     -0.132269   -0.717520    0.000584
  C      0.568521    0.496076    0.000011
  C     -0.132089    1.709776   -0.001007
  C     -1.533489    1.709880   -0.001454
  C     -2.234279    0.496284   -0.000882
  H     -2.068737   -1.644023    0.000573
  H      0.402662   -1.644206    0.001360
  H      0.402980    2.636383   -0.001445
  H     -2.068420    2.636566   -0.002232
  H     -3.304279    0.496363   -0.001224
  O      1.998521    0.495970    0.000464
  H      2.318808    0.495354   -0.904531

----------------------------
CARTESIAN COORDINATES (A.U.)
----------------------------
  NO LB      ZA    FRAG     MASS         X           Y           Z
   0 C     6.0000    0    12.011   -2.898214   -1.355720    0.000257
   1 C     6.0000    0    12.011   -0.249952   -1.355916    0.001104
   2 C     6.0000    0    12.011    1.074350    0.937448    0.000020
   3 C     6.0000    0    12.011   -0.249611    3.231008   -0.001903
   4 C     6.0000    0    12.011   -2.897873    3.231204   -0.002748
   5 C     6.0000    0    12.011   -4.222175    0.937840   -0.001666
   6 H     1.0000    0     1.008   -3.909347   -3.106754    0.001083
   7 H     1.0000    0     1.008    0.760922   -3.107099    0.002570
   8 H     1.0000    0     1.008    0.761522    4.982042   -0.002731
   9 H     1.0000    0     1.008   -3.908747    4.982388   -0.004217
  10 H     1.0000    0     1.008   -6.244181    0.937990   -0.002313
  11 O     8.0000    0    15.999    3.776658    0.937248    0.000877
  12 H     1.0000    0     1.008    4.381912    0.936083   -1.709316

--------------------------------
INTERNAL COORDINATES (ANGSTROEM)
--------------------------------
 C      0   0   0     0.000000000000     0.00000000     0.00000000
 C      1   0   0     1.401399995504     0.00000000     0.00000000
 C      2   1   0     1.401400005478   120.00000002     0.00000000
 C      3   2   1     1.401399993518   119.99999978     0.00000000
 C      4   3   2     1.401399995208   120.00000059     0.00000000
 C      1   2   3     1.401400002041   120.00000000     0.00000000
 H      1   2   3     1.069999996280   120.00000061   179.99995530
 H      2   1   3     1.069999996697   120.00000001   180.00024028
 H      4   3   2     1.070000005529   119.99999950   180.00004433
 H      5   4   3     1.069999997742   120.00000039   180.00003288
 H      6   1   2     1.069999997758   120.00000044   179.99997916
 O      3   2   1     1.429999995777   119.99999956   180.00018445
 H     12   3   2     0.959999998992   109.47122065    89.99999978

---------------------------
INTERNAL COORDINATES (A.U.)
---------------------------
 C      0   0   0     0.000000000000     0.00000000     0.00000000
 C      1   0   0     2.648262195582     0.00000000     0.00000000
 C      2   1   0     2.648262214430   120.00000002     0.00000000
 C      3   2   1     2.648262191828   119.99999978     0.00000000
 C      4   3   2     2.648262195022   120.00000059     0.00000000
 C      1   2   3     2.648262207933   120.00000000     0.00000000
 H      1   2   3     2.022006956266   120.00000061   179.99995530
 H      2   1   3     2.022006957053   120.00000001   180.00024028
 H      4   3   2     2.022006973744   119.99999950   180.00004433
 H      5   4   3     2.022006959029   120.00000039   180.00003288
 H      6   1   2     2.022006959058   120.00000044   179.99997916
 O      3   2   1     2.702308363527   119.99999956   180.00018445
 H     12   3   2     1.814137086660   109.47122065    89.99999978

---------------------
BASIS SET INFORMATION
---------------------
There are 3 groups of distinct atoms

 Group   1 Type C   : 7s4p1d contracted to 3s2p1d pattern {511/31/1}
 Group   2 Type H   : 4s1p contracted to 2s1p pattern {31/1}
 Group   3 Type O   : 7s4p1d contracted to 3s2p1d pattern {511/31/1}

Atom   0C    basis set group =>   1
Atom   1C    basis set group =>   1
Atom   2C    basis set group =>   1
Atom   3C    basis set group =>   1
Atom   4C    basis set group =>   1
Atom   5C    basis set group =>   1
Atom   6H    basis set group =>   2
Atom   7H    basis set group =>   2
Atom   8H    basis set group =>   2
Atom   9H    basis set group =>   2
Atom  10H    basis set group =>   2
Atom  11O    basis set group =>   3
Atom  12H    basis set group =>   2
---------------------------------
AUXILIARY/J BASIS SET INFORMATION
---------------------------------
There are 3 groups of distinct atoms

 Group   1 Type C   : 12s5p4d2f1g contracted to 6s4p3d1f1g pattern {711111/2111/211/2/1}
 Group   2 Type H   : 5s2p1d contracted to 3s1p1d pattern {311/2/1}
 Group   3 Type O   : 12s5p4d2f1g contracted to 6s4p3d1f1g pattern {711111/2111/211/2/1}

Atom   0C    basis set group =>   1
Atom   1C    basis set group =>   1
Atom   2C    basis set group =>   1
Atom   3C    basis set group =>   1
Atom   4C    basis set group =>   1
Atom   5C    basis set group =>   1
Atom   6H    basis set group =>   2
Atom   7H    basis set group =>   2
Atom   8H    basis set group =>   2
Atom   9H    basis set group =>   2
Atom  10H    basis set group =>   2
Atom  11O    basis set group =>   3
Atom  12H    basis set group =>   2
------------------------------------------------------------------------------
                             ORCA STARTUP CALCULATIONS
                           -- RI-GTO INTEGRALS CHOSEN --
------------------------------------------------------------------------------
------------------------------------------------------------------------------
                   ___                                                        
                  /   \      - P O W E R E D   B Y -                         
                 /     \                                                     
                 |  |  |   _    _      __       _____    __    __             
                 |  |  |  | |  | |    /  \     |  _  \  |  |  /  |          
                  \  \/   | |  | |   /    \    | | | |  |  | /  /          
                 / \  \   | |__| |  /  /\  \   | |_| |  |  |/  /          
                |  |  |   |  __  | /  /__\  \  |    /   |      \           
                |  |  |   | |  | | |   __   |  |    \   |  |\   \          
                \     /   | |  | | |  |  |  |  | |\  \  |  | \   \       
                 \___/    |_|  |_| |__|  |__|  |_| \__\ |__|  \__/        
                                                                              
                      - O R C A' S   B I G   F R I E N D -                    
                                      &                                       
                       - I N T E G R A L  F E E D E R -                       
                                                                              
 v1 FN, 2020, v2 2021, v3 2022-2024                                           
------------------------------------------------------------------------------


----------------------
SHARK INTEGRAL PACKAGE
----------------------

Number of atoms                             ...     13
Number of basis functions                   ...    128
Number of shells                            ...     60
Maximum angular momentum                    ...      2
Integral batch strategy                     ... SHARK/LIBINT Hybrid
RI-J (if used) integral strategy            ... SPLIT-RIJ (Revised 2003 algorithm where possible)
Printlevel                                  ...      1
Contraction scheme used                     ... SEGMENTED contraction
Prescreening option                         ... SCHWARTZ
   Thresh                                   ... 2.500e-11
   Tcut                                     ... 2.500e-12
   Tpresel                                  ... 2.500e-12 
Coulomb Range Separation                    ... NOT USED
Exchange Range Separation                   ... NOT USED
Multipole approximations                    ... NOT USED
Finite Nucleus Model                        ... NOT USED
CABS basis                                  ... NOT available
Auxiliary Coulomb fitting basis             ... AVAILABLE
   # of basis functions in Aux-J            ...    409
   # of shells in Aux-J                     ...    135
   Maximum angular momentum in Aux-J        ...      4
Auxiliary J/K fitting basis                 ... NOT available
Auxiliary Correlation fitting basis         ... NOT available
Auxiliary 'external' fitting basis          ... NOT available

Checking pre-screening integrals            ... done (  0.0 sec) Dimension = 60
Check shell pair data                       ... done (  0.0 sec)
Shell pair information
Shell pair cut-off parameter TPreSel        ...   2.5e-12
Total number of shell pairs                 ...      1830
Shell pairs after pre-screening             ...      1769
Total number of primitive shell pairs       ...      6664
Primitive shell pairs kept                  ...      4910
          la=0 lb=0:    539 shell pairs
          la=1 lb=0:    639 shell pairs
          la=1 lb=1:    202 shell pairs
          la=2 lb=0:    224 shell pairs
          la=2 lb=1:    137 shell pairs
          la=2 lb=2:     28 shell pairs

Calculating one electron integrals          ... done (  0.0 sec)
Calculating RI/J V-Matrix + Cholesky decomp.... done (  0.0 sec)
Calculating Nuclear repulsion               ... done (  0.0 sec) ENN=    268.680445357202 Eh

Diagonalization of the overlap matrix:
Smallest eigenvalue                        ... 2.915e-04
Time for diagonalization                   ...    0.003 sec
Threshold for overlap eigenvalues          ... 1.000e-07
Number of eigenvalues below threshold      ... 0
Time for construction of square roots      ...    0.002 sec
Total time needed                          ...    0.007 sec

-------------------
DFT GRID GENERATION
-------------------

General Integration Accuracy     IntAcc      ... 4.388
Radial Grid Type                 RadialGrid  ... OptM3 with GC (2021)
Angular Grid (max. ang.)         AngularGrid ... 4 (Lebedev-302)
Angular grid pruning method      GridPruning ... 4 (adaptive)
Weight generation scheme         WeightScheme... mBecke (2022)
Basis function cutoff            BFCut       ... 1.0000e-11
Integration weight cutoff        WCut        ... 1.0000e-14
Partially contracted basis set               ... off
Rotationally invariant grid construction     ... off
Angular grids for H and He will be reduced by one unit

Total number of grid points                  ...    61593
Total number of batches                      ...      971
Average number of points per batch           ...       63
Average number of grid points per atom       ...     4738

--------------------
COSX GRID GENERATION
--------------------

GRIDX 1
-------
General Integration Accuracy     IntAcc      ... 3.816
Radial Grid Type                 RadialGrid  ... OptM3 with GC (2021)
Angular Grid (max. ang.)         AngularGrid ... 1 (Lebedev-50)
Angular grid pruning method      GridPruning ... 4 (adaptive)
Weight generation scheme         WeightScheme... mBecke (2022)
Basis function cutoff            BFCut       ... 1.0000e-11
Integration weight cutoff        WCut        ... 1.0000e-14
Partially contracted basis set               ... on
Rotationally invariant grid construction     ... off
Angular grids for H and He will be reduced by one unit

Total number of grid points                  ...     7888
Total number of batches                      ...       67
Average number of points per batch           ...      117
Average number of grid points per atom       ...      607
UseSFitting                                  ... on

GRIDX 2
-------
General Integration Accuracy     IntAcc      ... 4.020
Radial Grid Type                 RadialGrid  ... OptM3 with GC (2021)
Angular Grid (max. ang.)         AngularGrid ... 2 (Lebedev-110)
Angular grid pruning method      GridPruning ... 4 (adaptive)
Weight generation scheme         WeightScheme... mBecke (2022)
Basis function cutoff            BFCut       ... 1.0000e-11
Integration weight cutoff        WCut        ... 1.0000e-14
Partially contracted basis set               ... on
Rotationally invariant grid construction     ... off
Angular grids for H and He will be reduced by one unit

Total number of grid points                  ...    17267
Total number of batches                      ...      141
Average number of points per batch           ...      122
Average number of grid points per atom       ...     1328
UseSFitting                                  ... on

GRIDX 3
-------
General Integration Accuracy     IntAcc      ... 4.338
Radial Grid Type                 RadialGrid  ... OptM3 with GC (2021)
Angular Grid (max. ang.)         AngularGrid ... 3 (Lebedev-194)
Angular grid pruning method      GridPruning ... 4 (adaptive)
Weight generation scheme         WeightScheme... mBecke (2022)
Basis function cutoff            BFCut       ... 1.0000e-11
Integration weight cutoff        WCut        ... 1.0000e-14
Partially contracted basis set               ... on
Rotationally invariant grid construction     ... off
Angular grids for H and He will be reduced by one unit

Total number of grid points                  ...    38017
Total number of batches                      ...      304
Average number of points per batch           ...      125
Average number of grid points per atom       ...     2924
UseSFitting                                  ... on
Initializing property integral containers    ... done (  0.0 sec)

SHARK setup successfully completed in   1.2 seconds

Maximum memory used throughout the entire STARTUP-calculation: 25.1 MB
-------------------------------------------------------------------------------
                                 ORCA GUESS
                   Start orbitals & Density for SCF / CASSCF
-------------------------------------------------------------------------------

------------
SCF SETTINGS
------------
Hamiltonian:
 Density Functional     Method          .... DFT(GTOs)
 Exchange Functional    Exchange        .... B88
   X-Alpha parameter    XAlpha          ....  0.666667
   Becke's b parameter  XBeta           ....  0.004200
 Correlation Functional Correlation     .... LYP
 LDA part of GGA corr.  LDAOpt          .... VWN-5
 Gradients option       PostSCFGGA      .... off
 Hybrid DFT is turned on
   Fraction HF Exchange ScalHFX         ....  0.200000
   Scaling of DF-GGA-X  ScalDFX         ....  0.720000
   Scaling of DF-GGA-C  ScalDFC         ....  0.810000
   Scaling of DF-LDA-C  ScalLDAC        ....  1.000000
   Perturbative correction              ....  0.000000
   NL short-range parameter             ....  4.800000
 RI-approximation to the Coulomb term is turned on
   Number of AuxJ basis functions       .... 409
   RIJ-COSX (HFX calculated with COS-X)).... on


General Settings:
 Integral files         IntName         .... input
 Hartree-Fock type      HFTyp           .... RHF
 Total Charge           Charge          ....    0
 Multiplicity           Mult            ....    1
 Number of Electrons    NEL             ....   50
 Basis Dimension        Dim             ....  128
 Nuclear Repulsion      ENuc            ....    268.6804453572 Eh

Convergence Acceleration:
 AO-DIIS                CNVDIIS         .... on
   Start iteration      DIISMaxIt       ....    12
   Startup error        DIISStart       ....  0.200000
   # of expansion vecs  DIISMaxEq       ....     5
   Bias factor          DIISBfac        ....   1.050
   Max. coefficient     DIISMaxC        ....  10.000
 MO-DIIS                CNVKDIIS        .... off
 Trust-Rad. Augm. Hess. CNVTRAH         .... auto
   Auto Start mean grad. ratio tolernc. ....  1.125000
   Auto Start start iteration           ....    50
   Auto Start num. interpolation iter.  ....    10
   Max. Number of Micro iterations      ....    24
   Max. Number of Macro iterations      .... Maxiter - #DIIS iter
   Number of Davidson start vectors     ....     2
   Converg. threshold    (grad. norm)   ....   1.000e-05
   Grad. Scal. Fac. for Micro threshold ....   0.100
   Minimum threshold for Micro iter.    ....   1.000e-02
   NR start threshold (gradient norm)   ....   1.000e-04
   Initial trust radius                 ....   0.400
   Minimum AH scaling param. (alpha)    ....   1.000
   Maximum AH scaling param. (alpha)    .... 1000.000
   Quad. conv. algorithm                .... NR
   White noise on init. David. guess    .... on
   Maximum white noise                  ....   0.010
   Pseudo random numbers                .... off
   Inactive MOs                         .... canonical
   Orbital update algorithm             .... Taylor
   Preconditioner                       .... Diag
   Full preconditioner red. dimension   ....   250
 SOSCF                  CNVSOSCF        .... on
   Start iteration      SOSCFMaxIt      ....   150
   Startup grad/error   SOSCFStart      ....  0.003300
   Hessian update       SOSCFHessUp     .... L-BFGS
 Level Shifting         CNVShift        .... on
   Level shift para.    LevelShift      ....    0.2500
   Turn off err/grad.   ShiftErr        ....    0.0010
 Zerner damping         CNVZerner       .... off
 Static damping         CNVDamp         .... on
   Fraction old density DampFac         ....    0.7000
   Max. Damping (<1)    DampMax         ....    0.9800
   Min. Damping (>=0)   DampMin         ....    0.0000
   Turn off err/grad.   DampErr         ....    0.1000

SCF Procedure:
 Maximum # iterations   MaxIter         ....   125
 SCF integral mode      SCFMode         .... Direct
   Integral package                     .... SHARK and LIBINT hybrid scheme
 Reset frequency        DirectResetFreq ....    20
 Integral Threshold     Thresh          ....  2.500e-11 Eh
 Primitive CutOff       TCut            ....  2.500e-12 Eh

Convergence Tolerance:
 Convergence Check Mode ConvCheckMode   .... Total+1el-Energy
 Convergence forced     ConvForced      .... 0
 Energy Change          TolE            ....  1.000e-08 Eh
 1-El. energy change                    ....  1.000e-05 Eh
 Orbital Gradient       TolG            ....  1.000e-05
 Orbital Rotation angle TolX            ....  1.000e-05
 DIIS Error             TolErr          ....  5.000e-07

------------------------------
INITIAL GUESS: MODEL POTENTIAL
------------------------------
Loading Hartree-Fock densities                     ... done
Calculating cut-offs                               ... done
Initializing the effective Hamiltonian             ... done
Setting up the integral package (SHARK)            ... done
Starting the Coulomb interaction                   ... done (   0.1 sec)
Making the grid                                    ... done (   0.1 sec)
Mapping shells                                     ... done
Starting the XC term evaluation                    ... done (   0.1 sec)
  promolecular density results
     # of electrons  =     49.995816168
     EX              =    -40.807360493
     EC              =     -1.678298259
     EX+EC           =    -42.485658753
Transforming the Hamiltonian                       ... done (   0.0 sec)
Diagonalizing the Hamiltonian                      ... done (   0.0 sec)
Back transforming the eigenvectors                 ... done (   0.0 sec)
Now organizing SCF variables                       ... done
                      ------------------
                      INITIAL GUESS DONE (   0.4 sec)
                      ------------------
             **** ENERGY FILE WAS UPDATED (input.en.tmp) ****
Finished Guess after   0.4 sec
Maximum memory used throughout the entire GUESS-calculation: 13.1 MB

-------------------------------------------------------------------------------------------
                                      ORCA LEAN-SCF
                              memory conserving SCF solver
-------------------------------------------------------------------------------------------

----------------------------------------D-I-I-S--------------------------------------------
Iteration    Energy (Eh)           Delta-E    RMSDP     MaxDP     DIISErr   Damp  Time(sec)
-------------------------------------------------------------------------------------------
               ***  Starting incremental Fock matrix formation  ***
    1    -306.8847862973951806     0.00e+00  4.28e-03  6.58e-02  2.33e-01  0.700   2.4
    2    -306.9614079412361889    -7.66e-02  2.98e-03  3.91e-02  1.06e-01  0.700   1.3
                               ***Turning on AO-DIIS***
    3    -306.9939992768823913    -3.26e-02  1.35e-03  1.58e-02  3.37e-02  0.700   1.2
    4    -307.0131092398746659    -1.91e-02  2.52e-03  2.76e-02  2.08e-02  0.000   1.3
    5    -307.0542790562655000    -4.12e-02  3.24e-04  5.55e-03  4.74e-03  0.000   1.3
                              *** Initializing SOSCF ***
---------------------------------------S-O-S-C-F--------------------------------------
Iteration    Energy (Eh)           Delta-E    RMSDP     MaxDP     MaxGrad    Time(sec)
--------------------------------------------------------------------------------------
    6    -307.0544651841436234    -1.86e-04  1.29e-04  2.01e-03  1.19e-03     1.3
               *** Restarting incremental Fock matrix formation ***
    7    -307.0544701872848918    -5.00e-06  8.02e-05  1.06e-03  2.59e-04     2.4
    8    -307.0544692761559418     9.11e-07  3.14e-05  7.01e-04  4.41e-04     1.8
    9    -307.0544718468071324    -2.57e-06  1.55e-05  1.89e-04  6.50e-05     1.7
   10    -307.0544718362989443     1.05e-08  7.44e-06  1.19e-04  7.79e-05     1.8
   11    -307.0544719555838356    -1.19e-07  1.91e-06  3.35e-05  8.08e-06     1.7
   12    -307.0544719538117988     1.77e-09  1.07e-06  1.85e-05  1.07e-05     1.5
                 **** Energy Check signals convergence ****

               *****************************************************
               *                     SUCCESS                       *
               *           SCF CONVERGED AFTER  12 CYCLES          *
               *****************************************************

Recomputing exchange energy using gridx3       ... done (    3.517 sec)
Old exchange energy                            :     -8.280345479 Eh
New exchange energy                            :     -8.280400919 Eh
Exchange energy change after final integration :     -0.000055439 Eh
Total energy after final integration           :   -307.054527393 Eh
             **** ENERGY FILE WAS UPDATED (input.en.tmp) ****

----------------
TOTAL SCF ENERGY
----------------

Total Energy       :       -307.05452739317877 Eh           -8355.37847 eV

Components:
Nuclear Repulsion  :        268.68044535720230 Eh            7311.16661 eV
Electronic Energy  :       -575.73491731101410 Eh          -15666.54357 eV
One Electron Energy:       -947.47855736934912 Eh          -25782.20229 eV
Two Electron Energy:        371.74364005833502 Eh           10115.65872 eV

Virial components:
Potential Energy   :       -611.11084000826895 Eh          -16629.17137 eV
Kinetic Energy     :        304.05631261509023 Eh            8273.79290 eV
Virial Ratio       :          2.00986072202317

DFT components:
N(Alpha)           :       25.000041532721 electrons
N(Beta)            :       25.000041532721 electrons
N(Total)           :       50.000083065441 electrons
E(X)               :      -32.895385257043 Eh       
E(C)               :       -1.986052140290 Eh       
E(XC)              :      -34.881437397333 Eh       

---------------
SCF CONVERGENCE
---------------

  Last Energy change         ...   -1.7720e-09  Tolerance :   1.0000e-08
  Last MAX-Density change    ...    1.8471e-05  Tolerance :   1.0000e-07
  Last RMS-Density change    ...    1.0712e-06  Tolerance :   5.0000e-09
  Last DIIS Error            ...    1.1905e-03  Tolerance :   5.0000e-07
  Last Orbital Gradient      ...    1.0725e-05  Tolerance :   1.0000e-05
  Last Orbital Rotation      ...    7.4670e-06  Tolerance :   1.0000e-05


----------------
ORBITAL ENERGIES
----------------

  NO   OCC          E(Eh)            E(eV) 
   0   2.0000     -19.139459      -520.8112 
   1   2.0000     -10.242082      -278.7012 
   2   2.0000     -10.190442      -277.2960 
   3   2.0000     -10.190419      -277.2954 
   4   2.0000     -10.186718      -277.1947 
   5   2.0000     -10.186713      -277.1945 
   6   2.0000     -10.186504      -277.1889 
   7   2.0000      -1.009682       -27.4748 
   8   2.0000      -0.841008       -22.8850 
   9   2.0000      -0.740235       -20.1428 
  10   2.0000      -0.728972       -19.8363 
  11   2.0000      -0.605768       -16.4838 
  12   2.0000      -0.598989       -16.2993 
  13   2.0000      -0.537182       -14.6175 
  14   2.0000      -0.491715       -13.3803 
  15   2.0000      -0.460973       -12.5437 
  16   2.0000      -0.447359       -12.1732 
  17   2.0000      -0.425458       -11.5773 
  18   2.0000      -0.407313       -11.0835 
  19   2.0000      -0.365523        -9.9464 
  20   2.0000      -0.358235        -9.7481 
  21   2.0000      -0.348866        -9.4931 
  22   2.0000      -0.291106        -7.9214 
  23   2.0000      -0.256270        -6.9735 
  24   2.0000      -0.244970        -6.6660 
  25   0.0000      -0.010599        -0.2884 
  26   0.0000      -0.004742        -0.1290 
  27   0.0000       0.061414         1.6712 
  28   0.0000       0.069567         1.8930 
  29   0.0000       0.104344         2.8394 
  30   0.0000       0.118448         3.2231 
  31   0.0000       0.147337         4.0093 
  32   0.0000       0.151237         4.1154 
  33   0.0000       0.156669         4.2632 
  34   0.0000       0.217118         5.9081 
  35   0.0000       0.274558         7.4711 
*Only the first 10 virtual orbitals were printed.

                    ********************************
                    * MULLIKEN POPULATION ANALYSIS *
                    ********************************

-----------------------
MULLIKEN ATOMIC CHARGES
-----------------------
   0 C :    0.027295
   1 C :   -0.001155
   2 C :    0.175094
   3 C :   -0.001154
   4 C :    0.027294
   5 C :    0.035040
   6 H :   -0.024532
   7 H :   -0.035662
   8 H :   -0.035661
   9 H :   -0.024533
  10 H :   -0.027632
  11 O :   -0.296625
  12 H :    0.182231
Sum of atomic charges:   -0.0000000

--------------------------------
MULLIKEN REDUCED ORBITAL CHARGES
--------------------------------
  0 C s       :     3.155668  s :     3.155668
      pz      :     0.983240  p :     2.781994
      px      :     0.927153
      py      :     0.871601
      dz2     :     0.002518  d :     0.035043
      dxz     :     0.005545
      dyz     :     0.003291
      dx2y2   :     0.011230
      dxy     :     0.012459

  1 C s       :     3.236618  s :     3.236618
      pz      :     1.007211  p :     2.731511
      px      :     0.864551
      py      :     0.859749
      dz2     :     0.002558  d :     0.033026
      dxz     :     0.005185
      dyz     :     0.003365
      dx2y2   :     0.009530
      dxy     :     0.012388

  2 C s       :     2.981175  s :     2.981175
      pz      :     1.010493  p :     2.775856
      px      :     0.763857
      py      :     1.001506
      dz2     :     0.004607  d :     0.067875
      dxz     :     0.010739
      dyz     :     0.006755
      dx2y2   :     0.022839
      dxy     :     0.022935

  3 C s       :     3.236618  s :     3.236618
      pz      :     1.007195  p :     2.731511
      px      :     0.864527
      py      :     0.859790
      dz2     :     0.002558  d :     0.033026
      dxz     :     0.005184
      dyz     :     0.003366
      dx2y2   :     0.009530
      dxy     :     0.012388

  4 C s       :     3.155670  s :     3.155670
      pz      :     0.983242  p :     2.781993
      px      :     0.927167
      py      :     0.871584
      dz2     :     0.002518  d :     0.035043
      dxz     :     0.005546
      dyz     :     0.003290
      dx2y2   :     0.011231
      dxy     :     0.012458

  5 C s       :     3.150000  s :     3.150000
      pz      :     0.997755  p :     2.780357
      px      :     0.823270
      py      :     0.959332
      dz2     :     0.002502  d :     0.034603
      dxz     :     0.002240
      dyz     :     0.006153
      dx2y2   :     0.013234
      dxy     :     0.010474

  6 H s       :     1.000821  s :     1.000821
      pz      :     0.004987  p :     0.023712
      px      :     0.006474
      py      :     0.012251

  7 H s       :     1.011983  s :     1.011983
      pz      :     0.004996  p :     0.023679
      px      :     0.006543
      py      :     0.012139

  8 H s       :     1.011982  s :     1.011982
      pz      :     0.004996  p :     0.023679
      px      :     0.006545
      py      :     0.012138

  9 H s       :     1.000821  s :     1.000821
      pz      :     0.004987  p :     0.023712
      px      :     0.006472
      py      :     0.012253

 10 H s       :     1.003871  s :     1.003871
      pz      :     0.005114  p :     0.023761
      px      :     0.015078
      py      :     0.003569

 11 O s       :     3.715839  s :     3.715839
      pz      :     1.376525  p :     4.568299
      px      :     1.292939
      py      :     1.898835
      dz2     :     0.005077  d :     0.012487
      dxz     :     0.002355
      dyz     :     0.000728
      dx2y2   :     0.002986
      dxy     :     0.001341

 12 H s       :     0.747657  s :     0.747657
      pz      :     0.032401  p :     0.070112
      px      :     0.016970
      py      :     0.020741



                     *******************************
                     * LOEWDIN POPULATION ANALYSIS *
                     *******************************

----------------------
LOEWDIN ATOMIC CHARGES
----------------------
   0 C :   -0.016083
   1 C :   -0.039082
   2 C :    0.058617
   3 C :   -0.039082
   4 C :   -0.016083
   5 C :   -0.029263
   6 H :    0.023140
   7 H :    0.024787
   8 H :    0.024787
   9 H :    0.023140
  10 H :    0.021469
  11 O :   -0.121655
  12 H :    0.085308

-------------------------------
LOEWDIN REDUCED ORBITAL CHARGES
-------------------------------
  0 C s       :     2.858040  s :     2.858040
      pz      :     0.963970  p :     3.067469
      px      :     1.055386
      py      :     1.048113
      dz2     :     0.006146  d :     0.090574
      dxz     :     0.011735
      dyz     :     0.006336
      dx2y2   :     0.031863
      dxy     :     0.034495

  1 C s       :     2.864498  s :     2.864498
      pz      :     0.988794  p :     3.086802
      px      :     1.056881
      py      :     1.041127
      dz2     :     0.006585  d :     0.087782
      dxz     :     0.010860
      dyz     :     0.006462
      dx2y2   :     0.028744
      dxy     :     0.035131

  2 C s       :     2.855100  s :     2.855100
      pz      :     0.981738  p :     2.932557
      px      :     0.851890
      py      :     1.098929
      dz2     :     0.010008  d :     0.153726
      dxz     :     0.017546
      dyz     :     0.013957
      dx2y2   :     0.053459
      dxy     :     0.058755

  3 C s       :     2.864498  s :     2.864498
      pz      :     0.988789  p :     3.086802
      px      :     1.056880
      py      :     1.041133
      dz2     :     0.006585  d :     0.087782
      dxz     :     0.010859
      dyz     :     0.006464
      dx2y2   :     0.028743
      dxy     :     0.035131

  4 C s       :     2.858040  s :     2.858040
      pz      :     0.963970  p :     3.067469
      px      :     1.055389
      py      :     1.048110
      dz2     :     0.006146  d :     0.090574
      dxz     :     0.011736
      dyz     :     0.006334
      dx2y2   :     0.031864
      dxy     :     0.034494

  5 C s       :     2.857249  s :     2.857249
      pz      :     0.979258  p :     3.082123
      px      :     1.039816
      py      :     1.063050
      dz2     :     0.006161  d :     0.089890
      dxz     :     0.003843
      dyz     :     0.013174
      dx2y2   :     0.036224
      dxy     :     0.030488

  6 H s       :     0.906316  s :     0.906316
      pz      :     0.015303  p :     0.070544
      px      :     0.019846
      py      :     0.035394

  7 H s       :     0.903523  s :     0.903523
      pz      :     0.015936  p :     0.071690
      px      :     0.019872
      py      :     0.035882

  8 H s       :     0.903523  s :     0.903523
      pz      :     0.015935  p :     0.071690
      px      :     0.019876
      py      :     0.035878

  9 H s       :     0.906316  s :     0.906316
      pz      :     0.015303  p :     0.070544
      px      :     0.019843
      py      :     0.035398

 10 H s       :     0.907750  s :     0.907750
      pz      :     0.015764  p :     0.070781
      px      :     0.042849
      py      :     0.012168

 11 O s       :     3.444594  s :     3.444594
      pz      :     1.459602  p :     4.654020
      px      :     1.336891
      py      :     1.857526
      dz2     :     0.010311  d :     0.023041
      dxz     :     0.004548
      dyz     :     0.000240
      dx2y2   :     0.005707
      dxy     :     0.002235

 12 H s       :     0.732137  s :     0.732137
      pz      :     0.090096  p :     0.182555
      px      :     0.038381
      py      :     0.054078



                      *****************************
                      * MAYER POPULATION ANALYSIS *
                      *****************************

  NA   - Mulliken gross atomic population
  ZA   - Total nuclear charge
  QA   - Mulliken gross atomic charge
  VA   - Mayer's total valence
  BVA  - Mayer's bonded valence
  FA   - Mayer's free valence

  ATOM       NA         ZA         QA         VA         BVA        FA
  0 C      5.9727     6.0000     0.0273     3.8183     3.8183    -0.0000
  1 C      6.0012     6.0000    -0.0012     3.8239     3.8239    -0.0000
  2 C      5.8249     6.0000     0.1751     3.9071     3.9071    -0.0000
  3 C      6.0012     6.0000    -0.0012     3.8239     3.8239    -0.0000
  4 C      5.9727     6.0000     0.0273     3.8183     3.8183     0.0000
  5 C      5.9650     6.0000     0.0350     3.8255     3.8255     0.0000
  6 H      1.0245     1.0000    -0.0245     0.9775     0.9775     0.0000
  7 H      1.0357     1.0000    -0.0357     0.9953     0.9953    -0.0000
  8 H      1.0357     1.0000    -0.0357     0.9953     0.9953     0.0000
  9 H      1.0245     1.0000    -0.0245     0.9775     0.9775     0.0000
 10 H      1.0276     1.0000    -0.0276     0.9774     0.9774     0.0000
 11 O      8.2966     8.0000    -0.2966     2.0871     2.0871     0.0000
 12 H      0.8178     1.0000     0.1822     1.0010     1.0010     0.0000

  Mayer bond orders larger than 0.100000
B(  0-C ,  1-C ) :   1.3566 B(  0-C ,  5-C ) :   1.3849 B(  0-C ,  6-H ) :   0.9862 
B(  1-C ,  2-C ) :   1.3776 B(  1-C ,  7-H ) :   0.9950 B(  2-C ,  3-C ) :   1.3776 
B(  2-C , 11-O ) :   1.0375 B(  3-C ,  4-C ) :   1.3566 B(  3-C ,  8-H ) :   0.9950 
B(  4-C ,  5-C ) :   1.3849 B(  4-C ,  9-H ) :   0.9862 B(  5-C , 10-H ) :   0.9901 
B( 11-O , 12-H ) :   0.9754 

-------
TIMINGS
-------

Total SCF time: 0 days 0 hours 0 min 23 sec 

Total time                  ....      23.377 sec
Sum of individual times     ....      23.315 sec  ( 99.7%)

SCF preparation             ....       0.086 sec  (  0.4%)
Fock matrix formation       ....      23.098 sec  ( 98.8%)
  Startup                   ....       0.005 sec  (  0.0% of F)
  Split-RI-J                ....       1.758 sec  (  7.6% of F)
  Chain of spheres X        ....      16.700 sec  ( 72.3% of F)
  XC integration            ....       4.564 sec  ( 19.8% of F)
    XC Preparation          ....       0.000 sec  (  0.0% of XC)
    Basis function eval.    ....       1.863 sec  ( 40.8% of XC)
    Density eval.           ....       0.944 sec  ( 20.7% of XC)
    XC-Functional eval.     ....       0.474 sec  ( 10.4% of XC)
    XC-Potential eval.      ....       1.084 sec  ( 23.7% of XC)
Diagonalization             ....       0.000 sec  (  0.0%)
Density matrix formation    ....       0.023 sec  (  0.1%)
Total Energy calculation    ....       0.003 sec  (  0.0%)
Population analysis         ....       0.007 sec  (  0.0%)
Orbital Transformation      ....       0.010 sec  (  0.0%)
Orbital Orthonormalization  ....       0.000 sec  (  0.0%)
DIIS solution               ....       0.052 sec  (  0.2%)
SOSCF solution              ....       0.036 sec  (  0.2%)
Finished LeanSCF after  23.4 sec

Maximum memory used throughout the entire LEANSCF-calculation: 14.4 MB

-------------------------   --------------------
FINAL SINGLE POINT ENERGY      -307.054527393179
-------------------------   --------------------

------------------------------------------------------------------------------
                         ORCA SCF GRADIENT CALCULATION
------------------------------------------------------------------------------

Nuc. rep. gradient        (SHARK) ... done (  0.0 sec)
HCore & Overlap gradient  (SHARK) ... done (  0.1 sec)
Split-RIJ-J gradient      (SHARK) ... done (  0.7 sec)
COSX-gradient                     ... done ( 16.5 sec)
XC gradient                       ... done (  2.6 sec)

------------------
CARTESIAN GRADIENT
------------------

   1   C   :   -0.010015098   -0.019561780   -0.000645137
   2   C   :    0.008819079   -0.013100708   -0.000362163
   3   C   :   -0.026193811    0.000006221    0.006459159
   4   C   :    0.008821695    0.013098830   -0.000379672
   5   C   :   -0.010011873    0.019562511   -0.000670934
   6   C   :   -0.016856948    0.000001447    0.000108355
   7   H   :    0.007855217    0.014829429   -0.000025457
   8   H   :   -0.010289148    0.013047350   -0.000109230
   9   H   :   -0.010291123   -0.013045997   -0.000092007
  10   H   :    0.007852865   -0.014830779   -0.000006014
  11   H   :    0.016843229   -0.000001300    0.000035084
  12   O   :    0.032460285   -0.000009582   -0.011567550
  13   H   :    0.001005630    0.000004356    0.007255566

Difference to translation invariance:
           :    0.0000000001    0.0000000000    0.0000000001

Difference to rotation invariance:
           :   -0.0000011842   -0.0000455213   -0.0000010788

Norm of the Cartesian gradient     ...    0.0715411665
RMS gradient                       ...    0.0114557549
MAX gradient                       ...    0.0324602849

-------
TIMINGS
-------

Total SCF gradient time     ....       19.831 sec

Densities                   ....       0.001 sec  (  0.0%)
One electron gradient       ....       0.084 sec  (  0.4%)
RI-J Coulomb gradient       ....       0.654 sec  (  3.3%)
COSX gradient               ....      16.542 sec  ( 83.4%)
XC gradient                 ....       2.551 sec  ( 12.9%)

Maximum memory used throughout the entire SCFGRAD-calculation: 17.7 MB
------------------------------------------------------------------------------
                         ORCA GEOMETRY RELAXATION STEP
------------------------------------------------------------------------------

Reading the OPT-File                    .... done
Getting information on internals        .... done
Copying old internal coords+grads       .... done
Making the new internal coordinates     .... (2022 redundants) done
Validating the new internal coordinates .... (2022 redundants) done
Calculating the B-matrix                .... done
Calculating the G,G- and P matrices     .... done
Transforming gradient to internals      .... done
Projecting the internal gradient        .... done
Number of atoms                         ....  13
Number of internal coordinates          ....  60
Current Energy                          ....  -307.054527393 Eh
Current gradient norm                   ....     0.071541167 Eh/bohr
Maximum allowed component of the step   ....  0.300
Current trust radius                    ....  0.300
Evaluating the initial hessian          ....  (Almloef) done
Projecting the Hessian                  .... done
Forming the augmented Hessian           .... done
Diagonalizing the augmented Hessian     .... done
Last element of RFO vector              ....  0.989591693
Lowest eigenvalues of augmented Hessian:
 -0.006211672  0.016748149  0.023461722  0.024745330  0.024745330
Length of the computed step             ....  0.145417268
The final length of the internal step   ....  0.145417268
Converting the step to Cartesian space:
 Initial RMS(Int)=    0.0187732886
Transforming coordinates:
 Iter   0:  RMS(Cart)=    0.0232309655 RMS(Int)=    2.8043862740
Imposing constraints:
 Iter   0:  RMS(Cart)=    0.0000116233 RMS(Int)=    0.0000417697
 Iter   5:  RMS(Cart)=    0.0000028055 RMS(Int)=    0.0000208091
 Iter  10:  RMS(Cart)=    0.0000014615 RMS(Int)=    0.0000108398
 Iter  15:  RMS(Cart)=    0.0000007613 RMS(Int)=    0.0000056466
 Iter  20:  RMS(Cart)=    0.0000003966 RMS(Int)=    0.0000029414
 Iter  25:  RMS(Cart)=    0.0000002066 RMS(Int)=    0.0000015322
 Iter  30:  RMS(Cart)=    0.0000001076 RMS(Int)=    0.0000007982
 Iter  35:  RMS(Cart)=    0.0000000561 RMS(Int)=    0.0000004158
 Iter  40:  RMS(Cart)=    0.0000000292 RMS(Int)=    0.0000002166
 Iter  45:  RMS(Cart)=    0.0000000152 RMS(Int)=    0.0000001128
CONVERGED
done
Storing new coordinates                 .... done

                                .--------------------.
          ----------------------|Geometry convergence|-------------------------
          Item                value                   Tolerance       Converged
          ---------------------------------------------------------------------
          RMS gradient        0.0066135450            0.0001000000      NO
          MAX gradient        0.0334640324            0.0003000000      NO
          RMS step            0.0187732886            0.0020000000      NO
          MAX step            0.0683867519            0.0040000000      NO
          ........................................................
          Max(Bonds)      0.0362      Max(Angles)    0.97
          Max(Dihed)        2.25      Max(Improp)    0.00
          ---------------------------------------------------------------------

The optimization has not yet converged - more geometry cycles are needed


    ---------------------------------------------------------------------------
                         Redundant Internal Coordinates
                            (Angstroem and degrees)

        Definition                    Value    dE/dq     Step     New-Value
    ----------------------------------------------------------------------------
     1. B(C   1,C   0)                1.4014  0.001811 -0.0008    1.4006   
     2. B(C   2,C   1)                1.4014  0.004130 -0.0047    1.3967   
     3. B(C   3,C   2)                1.4014  0.004415 -0.0050    1.3964   
     4. B(C   4,C   3)                1.4014  0.005433 -0.0053    1.3961   
     5. B(C   5,C   0)                1.4014  0.001620 -0.0011    1.4003   
     6. B(C   5,C   4)                1.4014  0.001871 -0.0010    1.4004   
     7. B(H   6,C   0)                1.0700 -0.016770  0.0225    1.0925   
     8. B(H   7,C   1)                1.0700 -0.016444  0.0221    1.0921   
     9. B(H   8,C   3)                1.0700 -0.014886  0.0185    1.0885   
    10. B(H   9,H   8)                2.4714 -0.003044 -0.0000    2.4714 C 
    11. B(H   9,C   4)                1.0700 -0.015248  0.0196    1.0896   
    12. B(H  10,C   5)                1.0700 -0.016843  0.0226    1.0926   
    13. B(O  11,C   2)                1.4300  0.033464 -0.0362    1.3938   
    14. B(H  12,O  11)                0.9600 -0.006503  0.0065    0.9665   
    15. A(C   1,C   0,H   6)          120.00  0.001026   -0.19    119.81   
    16. A(C   1,C   0,C   5)          120.00 -0.000811    0.17    120.17   
    17. A(C   5,C   0,H   6)          120.00 -0.000214    0.01    120.01   
    18. A(C   2,C   1,H   7)          120.00  0.001483   -0.29    119.71   
    19. A(C   0,C   1,H   7)          120.00 -0.003345    0.47    120.47   
    20. A(C   0,C   1,C   2)          120.00  0.001862   -0.18    119.82   
    21. A(C   3,C   2,O  11)          120.00  0.001184   -0.11    119.89   
    22. A(C   1,C   2,C   3)          120.00 -0.002369    0.21    120.21   
    23. A(C   1,C   2,O  11)          120.00  0.001185   -0.11    119.89   
    24. A(C   2,C   3,H   8)          120.00 -0.000667    0.07    120.07   
    25. A(C   4,C   3,H   8)          120.00 -0.000354    0.01    120.01   
    26. A(C   2,C   3,C   4)          120.00  0.001021   -0.08    119.92   
    27. A(C   3,C   4,C   5)          120.00 -0.001666    0.30    120.30   
    28. A(C   3,C   4,H   9)          120.00  0.004118   -0.86    119.14   
    29. A(C   5,C   4,H   9)          120.00 -0.002452    0.56    120.56   
    30. A(C   1,C   5,H   8)           69.06 -0.000641    0.00     69.06 C 
    31. A(C   4,C   5,H  10)          120.00 -0.000982    0.21    120.21   
    32. A(C   0,C   5,C   4)          120.00  0.001964   -0.42    119.58   
    33. A(C   0,C   5,H  10)          120.00 -0.000982    0.21    120.21   
    34. A(C   2,O  11,H  12)          109.47  0.006109   -0.97    108.50   
    35. D(C   2,C   1,C   0,H   6)    180.00 -0.000034    0.05    180.05   
    36. D(C   2,C   1,C   0,C   5)     -0.00  0.000019   -0.06     -0.06   
    37. D(H   7,C   1,C   0,H   6)      0.00  0.000258   -0.49     -0.49   
    38. D(H   7,C   1,C   0,C   5)   -180.00  0.000311   -0.59   -180.59   
    39. D(C   3,C   2,C   1,H   7)    180.00 -0.000492    0.96    180.96   
    40. D(O  11,C   2,C   1,C   0)   -180.00  0.001182   -2.25   -182.25   
    41. D(C   3,C   2,C   1,C   0)      0.00 -0.000199    0.43      0.43   
    42. D(O  11,C   2,C   1,H   7)     -0.00  0.000890   -1.72     -1.72   
    43. D(C   4,C   3,C   2,C   1)     -0.00  0.000199   -0.43     -0.43   
    44. D(C   4,C   3,C   2,O  11)    180.00 -0.001182    2.25    182.25   
    45. D(H   8,C   3,C   2,C   1)   -180.00  0.000492   -0.96   -180.96   
    46. D(H   8,C   3,C   2,O  11)      0.00 -0.000890    1.72      1.72   
    47. D(C   5,C   4,C   3,C   2)      0.00 -0.000019    0.06      0.06   
    48. D(C   5,C   4,C   3,H   8)    180.00 -0.000311    0.59    180.59   
    49. D(H   9,C   4,C   3,C   2)   -180.00  0.000034   -0.05   -180.05   
    50. D(H   9,C   4,C   3,H   8)     -0.00 -0.000258    0.49      0.49   
    51. D(C   4,C   5,C   0,C   1)      0.00  0.000162   -0.31     -0.31   
    52. D(H  10,C   5,C   4,C   3)   -180.00  0.000013   -0.03   -180.03   
    53. D(H  10,C   5,C   0,C   1)    180.00 -0.000013    0.03    180.03   
    54. D(H  10,C   5,C   0,H   6)     -0.00  0.000040   -0.08     -0.08   
    55. D(C   0,C   5,C   4,C   3)     -0.00 -0.000162    0.31      0.31   
    56. D(C   4,C   5,C   0,H   6)   -180.00  0.000214   -0.42   -180.42   
    57. D(C   0,C   5,C   4,H   9)    180.00 -0.000214    0.42    180.42   
    58. D(H  10,C   5,C   4,H   9)      0.00 -0.000040    0.08      0.08   
    59. D(H  12,O  11,C   2,C   1)     90.00 -0.000691    1.34     91.34   
    60. D(H  12,O  11,C   2,C   3)    -90.00  0.000690   -1.34    -91.34   
    ----------------------------------------------------------------------------

Geometry step timings:
Preparation and reading OPT file:      0.001 s ( 6.619 %)
Internal coordinates            :      0.000 s ( 2.630 %)
B/P matrices and projection     :      0.001 s (12.650 %)
Hessian update/contruction      :      0.003 s (33.007 %)
Making the step                 :      0.001 s (12.161 %)
Converting the step to Cartesian:      0.001 s (10.962 %)
Storing new data                :      0.001 s ( 8.111 %)
Checking convergence            :      0.000 s ( 0.061 %)
Final printing                  :      0.001 s (13.616 %)
Total time                      :      0.008 s

Time for energy+gradient        :     45.075 s
Time for complete geometry iter :     45.183 s

         *************************************************************
         *                GEOMETRY OPTIMIZATION CYCLE   2            *
         *************************************************************
---------------------------------
CARTESIAN COORDINATES (ANGSTROEM)
---------------------------------
  C     -1.526776   -0.715000   -0.001796
  C     -0.126196   -0.715514   -0.010536
  C      0.568882    0.495990   -0.020251
  C     -0.128218    1.706007   -0.012237
  C     -1.524343    1.705317   -0.003527
  C     -2.230182    0.495808   -0.001567
  H     -2.070284   -1.662717    0.006604
  H      0.427306   -1.656908   -0.001009
  H      0.415898    2.648743   -0.004015
  H     -2.055478    2.656673    0.003443
  H     -3.322793    0.496889    0.005701
  O      1.962151    0.497264    0.018610
  H      2.294297    0.496934   -0.889067

----------------------------
CARTESIAN COORDINATES (A.U.)
----------------------------
  NO LB      ZA    FRAG     MASS         X           Y           Z
   0 C     6.0000    0    12.011   -2.885189   -1.351155   -0.003394
   1 C     6.0000    0    12.011   -0.238477   -1.352125   -0.019910
   2 C     6.0000    0    12.011    1.075032    0.937286   -0.038269
   3 C     6.0000    0    12.011   -0.242297    3.223886   -0.023125
   4 C     6.0000    0    12.011   -2.880590    3.222582   -0.006664
   5 C     6.0000    0    12.011   -4.214433    0.936942   -0.002961
   6 H     1.0000    0     1.008   -3.912269   -3.142079    0.012480
   7 H     1.0000    0     1.008    0.807491   -3.131103   -0.001907
   8 H     1.0000    0     1.008    0.785933    5.005398   -0.007587
   9 H     1.0000    0     1.008   -3.884291    5.020384    0.006506
  10 H     1.0000    0     1.008   -6.279168    0.938985    0.010773
  11 O     8.0000    0    15.999    3.707928    0.939693    0.035169
  12 H     1.0000    0     1.008    4.335593    0.939069   -1.680093

--------------------------------
INTERNAL COORDINATES (ANGSTROEM)
--------------------------------
 C      0   0   0     0.000000000000     0.00000000     0.00000000
 C      1   0   0     1.400606973050     0.00000000     0.00000000
 C      2   1   0     1.396771528795   119.82471095     0.00000000
 C      3   2   1     1.396478824682   120.20513562     0.42882772
 C      4   3   2     1.396152145561   119.91944081   359.57064961
 C      1   2   3     1.400299165647   120.17438178   359.94262274
 H      1   2   3     1.092537274952   119.81448668   180.04845876
 H      2   1   3     1.092098559260   120.46927180   179.46412123
 H      4   3   2     1.088521910634   120.06268151   179.03770260
 H      5   4   3     1.089601931298   119.14733489   179.95337854
 H      6   1   2     1.092635516804   120.20997805   180.02743571
 O      3   2   1     1.393811282355   119.87024269   177.74474299
 H     12   3   2     0.966539890263   108.50133164    91.33811253

---------------------------
INTERNAL COORDINATES (A.U.)
---------------------------
 C      0   0   0     0.000000000000     0.00000000     0.00000000
 C      1   0   0     2.646763600325     0.00000000     0.00000000
 C      2   1   0     2.639515661081   119.82471095     0.00000000
 C      3   2   1     2.638962530468   120.20513562     0.42882772
 C      4   3   2     2.638345196397   119.91944081   359.57064961
 C      1   2   3     2.646181928630   120.17438178   359.94262274
 H      1   2   3     2.064596240760   119.81448668   180.04845876
 H      2   1   3     2.063767188252   120.46927180   179.46412123
 H      4   3   2     2.057008301872   120.06268151   179.03770260
 H      5   4   3     2.059049245145   119.14733489   179.95337854
 H      6   1   2     2.064781890955   120.20997805   180.02743571
 O      3   2   1     2.633921606020   119.87024269   177.74474299
 H     12   3   2     1.826495690108   108.50133164    91.33811253

------------------------------------------------------------------------------
                   ___                                                        
                  /   \      - P O W E R E D   B Y -                         
                 /     \                                                     
                 |  |  |   _    _      __       _____    __    __             
                 |  |  |  | |  | |    /  \     |  _  \  |  |  /  |          
                  \  \/   | |  | |   /    \    | | | |  |  | /  /          
                 / \  \   | |__| |  /  /\  \   | |_| |  |  |/  /          
                |  |  |   |  __  | /  /__\  \  |    /   |      \           
                |  |  |   | |  | | |   __   |  |    \   |  |\   \          
                \     /   | |  | | |  |  |  |  | |\  \  |  | \   \       
                 \___/    |_|  |_| |__|  |__|  |_| \__\ |__|  \__/        
                                                                              
                      - O R C A' S   B I G   F R I E N D -                    
                                      &                                       
                       - I N T E G R A L  F E E D E R -                       
                                                                              
 v1 FN, 2020, v2 2021, v3 2022-2024                                           
------------------------------------------------------------------------------


----------------------
SHARK INTEGRAL PACKAGE
----------------------

Number of atoms                             ...     13
Number of basis functions                   ...    128
Number of shells                            ...     60
Maximum angular momentum                    ...      2
Integral batch strategy                     ... SHARK/LIBINT Hybrid
RI-J (if used) integral strategy            ... SPLIT-RIJ (Revised 2003 algorithm where possible)
Printlevel                                  ...      1
Contraction scheme used                     ... SEGMENTED contraction
Prescreening option                         ... SCHWARTZ
   Thresh                                   ... 2.500e-11
   Tcut                                     ... 2.500e-12
   Tpresel                                  ... 2.500e-12 
Coulomb Range Separation                    ... NOT USED
Exchange Range Separation                   ... NOT USED
Multipole approximations                    ... NOT USED
Finite Nucleus Model                        ... NOT USED
CABS basis                                  ... NOT available
Auxiliary Coulomb fitting basis             ... AVAILABLE
   # of basis functions in Aux-J            ...    409
   # of shells in Aux-J                     ...    135
   Maximum angular momentum in Aux-J        ...      4
Auxiliary J/K fitting basis                 ... NOT available
Auxiliary Correlation fitting basis         ... NOT available
Auxiliary 'external' fitting basis          ... NOT available

Checking pre-screening integrals            ... done (  0.0 sec) Dimension = 60
Check shell pair data                       ... done (  0.0 sec)
Shell pair information
Shell pair cut-off parameter TPreSel        ...   2.5e-12
Total number of shell pairs                 ...      1830
Shell pairs after pre-screening             ...      1769
Total number of primitive shell pairs       ...      6664
Primitive shell pairs kept                  ...      4911
          la=0 lb=0:    539 shell pairs
          la=1 lb=0:    639 shell pairs
          la=1 lb=1:    202 shell pairs
          la=2 lb=0:    224 shell pairs
          la=2 lb=1:    137 shell pairs
          la=2 lb=2:     28 shell pairs

Calculating one electron integrals          ... done (  0.0 sec)
Calculating RI/J V-Matrix + Cholesky decomp.... done (  0.0 sec)
Calculating Nuclear repulsion               ... done (  0.0 sec) ENN=    269.621218331495 Eh

Diagonalization of the overlap matrix:
Smallest eigenvalue                        ... 2.853e-04
Time for diagonalization                   ...    0.002 sec
Threshold for overlap eigenvalues          ... 1.000e-07
Number of eigenvalues below threshold      ... 0
Time for construction of square roots      ...    0.002 sec
Total time needed                          ...    0.005 sec

-------------------
DFT GRID GENERATION
-------------------

General Integration Accuracy     IntAcc      ... 4.388
Radial Grid Type                 RadialGrid  ... OptM3 with GC (2021)
Angular Grid (max. ang.)         AngularGrid ... 4 (Lebedev-302)
Angular grid pruning method      GridPruning ... 4 (adaptive)
Weight generation scheme         WeightScheme... mBecke (2022)
Basis function cutoff            BFCut       ... 1.0000e-11
Integration weight cutoff        WCut        ... 1.0000e-14
Partially contracted basis set               ... off
Rotationally invariant grid construction     ... off
Angular grids for H and He will be reduced by one unit

Total number of grid points                  ...    61584
Total number of batches                      ...      968
Average number of points per batch           ...       63
Average number of grid points per atom       ...     4737

--------------------
COSX GRID GENERATION
--------------------

GRIDX 1
-------
General Integration Accuracy     IntAcc      ... 3.816
Radial Grid Type                 RadialGrid  ... OptM3 with GC (2021)
Angular Grid (max. ang.)         AngularGrid ... 1 (Lebedev-50)
Angular grid pruning method      GridPruning ... 4 (adaptive)
Weight generation scheme         WeightScheme... mBecke (2022)
Basis function cutoff            BFCut       ... 1.0000e-11
Integration weight cutoff        WCut        ... 1.0000e-14
Partially contracted basis set               ... on
Rotationally invariant grid construction     ... off
Angular grids for H and He will be reduced by one unit

Total number of grid points                  ...     7888
Total number of batches                      ...       67
Average number of points per batch           ...      117
Average number of grid points per atom       ...      607
UseSFitting                                  ... on

GRIDX 2
-------
General Integration Accuracy     IntAcc      ... 4.020
Radial Grid Type                 RadialGrid  ... OptM3 with GC (2021)
Angular Grid (max. ang.)         AngularGrid ... 2 (Lebedev-110)
Angular grid pruning method      GridPruning ... 4 (adaptive)
Weight generation scheme         WeightScheme... mBecke (2022)
Basis function cutoff            BFCut       ... 1.0000e-11
Integration weight cutoff        WCut        ... 1.0000e-14
Partially contracted basis set               ... on
Rotationally invariant grid construction     ... off
Angular grids for H and He will be reduced by one unit

Total number of grid points                  ...    17265
Total number of batches                      ...      141
Average number of points per batch           ...      122
Average number of grid points per atom       ...     1328
UseSFitting                                  ... on

GRIDX 3
-------
General Integration Accuracy     IntAcc      ... 4.338
Radial Grid Type                 RadialGrid  ... OptM3 with GC (2021)
Angular Grid (max. ang.)         AngularGrid ... 3 (Lebedev-194)
Angular grid pruning method      GridPruning ... 4 (adaptive)
Weight generation scheme         WeightScheme... mBecke (2022)
Basis function cutoff            BFCut       ... 1.0000e-11
Integration weight cutoff        WCut        ... 1.0000e-14
Partially contracted basis set               ... on
Rotationally invariant grid construction     ... off
Angular grids for H and He will be reduced by one unit

Total number of grid points                  ...    38033
Total number of batches                      ...      303
Average number of points per batch           ...      125
Average number of grid points per atom       ...     2926
UseSFitting                                  ... on
Initializing property integral containers    ... done (  0.0 sec)

SHARK setup successfully completed in   1.1 seconds

Maximum memory used throughout the entire STARTUP-calculation: 25.2 MB
Occupation numbers will be reassigned to an Aufbau configuration
[...]
  19   2.0000      -0.363307        -9.8861 
  20   2.0000      -0.356054        -9.6887 
  21   2.0000      -0.350282        -9.5317 
  22   2.0000      -0.292142        -7.9496 
  23   2.0000      -0.255015        -6.9393 
  24   2.0000      -0.241939        -6.5835 
  25   0.0000      -0.007868        -0.2141 
  26   0.0000      -0.002314        -0.0630 
  27   0.0000       0.059301         1.6137 
  28   0.0000       0.065893         1.7930 
  29   0.0000       0.101636         2.7657 
  30   0.0000       0.117528         3.1981 
  31   0.0000       0.146080         3.9750 
  32   0.0000       0.151410         4.1201 
  33   0.0000       0.156162         4.2494 
  34   0.0000       0.240659         6.5487 
  35   0.0000       0.275474         7.4960 
*Only the first 10 virtual orbitals were printed.

                    ********************************
                    * MULLIKEN POPULATION ANALYSIS *
                    ********************************

-----------------------
MULLIKEN ATOMIC CHARGES
-----------------------
   0 C :    0.016494
   1 C :   -0.013502
   2 C :    0.154342
   3 C :   -0.016711
   4 C :    0.016664
   5 C :    0.026809
   6 H :   -0.015011
   7 H :   -0.027236
   8 H :   -0.028218
   9 H :   -0.016194
  10 H :   -0.017701
  11 O :   -0.265674
  12 H :    0.185938
Sum of atomic charges:   -0.0000000

--------------------------------
MULLIKEN REDUCED ORBITAL CHARGES
--------------------------------
  0 C s       :     3.162633  s :     3.162633
      pz      :     0.982377  p :     2.785835
      px      :     0.928948
      py      :     0.874510
      dz2     :     0.002526  d :     0.035038
      dxz     :     0.005700
      dyz     :     0.003371
      dx2y2   :     0.011281
      dxy     :     0.012159

  1 C s       :     3.241684  s :     3.241684
      pz      :     1.012401  p :     2.739074
      px      :     0.859065
      py      :     0.867608
      dz2     :     0.002566  d :     0.032744
      dxz     :     0.005195
      dyz     :     0.003349
      dx2y2   :     0.009321
      dxy     :     0.012315

  2 C s       :     2.967744  s :     2.967744
      pz      :     1.006415  p :     2.803769
      px      :     0.792738
      py      :     1.004617
      dz2     :     0.004868  d :     0.074144
      dxz     :     0.012611
      dyz     :     0.006777
      dx2y2   :     0.024356
      dxy     :     0.025533

  3 C s       :     3.241117  s :     3.241117
      pz      :     1.012274  p :     2.742710
      px      :     0.867361
      py      :     0.863074
      dz2     :     0.002567  d :     0.032884
      dxz     :     0.005225
      dyz     :     0.003343
      dx2y2   :     0.009477
      dxy     :     0.012273

  4 C s       :     3.160864  s :     3.160864
      pz      :     0.982035  p :     2.787282
      px      :     0.934941
      py      :     0.870306
      dz2     :     0.002526  d :     0.035190
      dxz     :     0.005737
      dyz     :     0.003362
      dx2y2   :     0.011464
      dxy     :     0.012101

  5 C s       :     3.157290  s :     3.157290
      pz      :     1.002585  p :     2.781401
      px      :     0.823435
      py      :     0.955381
      dz2     :     0.002509  d :     0.034500
      dxz     :     0.002348
      dyz     :     0.006160
      dx2y2   :     0.012779
      dxy     :     0.010703

  6 H s       :     0.992325  s :     0.992325
      pz      :     0.004650  p :     0.022686
      px      :     0.006134
      py      :     0.011902

  7 H s       :     1.004538  s :     1.004538
      pz      :     0.004710  p :     0.022698
      px      :     0.006370
      py      :     0.011617

  8 H s       :     1.005464  s :     1.005464
      pz      :     0.004731  p :     0.022754
      px      :     0.006256
      py      :     0.011767

  9 H s       :     0.993445  s :     0.993445
      pz      :     0.004666  p :     0.022749
      px      :     0.006045
      py      :     0.012037

 10 H s       :     0.994942  s :     0.994942
      pz      :     0.004815  p :     0.022759
      px      :     0.014680
      py      :     0.003264

 11 O s       :     3.697982  s :     3.697982
      pz      :     1.379833  p :     4.554084
      px      :     1.282347
      py      :     1.891904
      dz2     :     0.005018  d :     0.013608
      dxz     :     0.002956
      dyz     :     0.000747
      dx2y2   :     0.003221
      dxy     :     0.001666

 12 H s       :     0.743875  s :     0.743875
      pz      :     0.032094  p :     0.070187
      px      :     0.017798
      py      :     0.020295



                     *******************************
                     * LOEWDIN POPULATION ANALYSIS *
                     *******************************

----------------------
LOEWDIN ATOMIC CHARGES
----------------------
   0 C :   -0.020844
   1 C :   -0.047039
   2 C :    0.038247
   3 C :   -0.047141
   4 C :   -0.020899
   5 C :   -0.036753
   6 H :    0.027347
   7 H :    0.028278
   8 H :    0.027982
   9 H :    0.027020
  10 H :    0.026305
  11 O :   -0.095983
  12 H :    0.093478

-------------------------------
LOEWDIN REDUCED ORBITAL CHARGES
-------------------------------
  0 C s       :     2.863250  s :     2.863250
      pz      :     0.964362  p :     3.067140
      px      :     1.057613
      py      :     1.045165
      dz2     :     0.006105  d :     0.090454
      dxz     :     0.012073
      dyz     :     0.006416
      dx2y2   :     0.031832
      dxy     :     0.034028

  1 C s       :     2.870397  s :     2.870397
      pz      :     0.995139  p :     3.089464
      px      :     1.056709
      py      :     1.037616
      dz2     :     0.006569  d :     0.087177
      dxz     :     0.010901
      dyz     :     0.006343
      dx2y2   :     0.028259
      dxy     :     0.035105

  2 C s       :     2.844510  s :     2.844510
      pz      :     0.975963  p :     2.948008
      px      :     0.872891
      py      :     1.099155
      dz2     :     0.010761  d :     0.169235
      dxz     :     0.021448
      dyz     :     0.013998
      dx2y2   :     0.057354
      dxy     :     0.065675

  3 C s       :     2.869447  s :     2.869447
      pz      :     0.994783  p :     3.090117
      px      :     1.058137
      py      :     1.037197
      dz2     :     0.006591  d :     0.087577
      dxz     :     0.010973
      dyz     :     0.006353
      dx2y2   :     0.028694
      dxy     :     0.034965

  4 C s       :     2.862340  s :     2.862340
      pz      :     0.963926  p :     3.067675
      px      :     1.059096
      py      :     1.044653
      dz2     :     0.006131  d :     0.090884
      dxz     :     0.012166
      dyz     :     0.006415
      dx2y2   :     0.032324
      dxy     :     0.033847

  5 C s       :     2.862019  s :     2.862019
      pz      :     0.984886  p :     3.085210
      px      :     1.035440
      py      :     1.064884
      dz2     :     0.006130  d :     0.089523
      dxz     :     0.003917
      dyz     :     0.013214
      dx2y2   :     0.035430
      dxy     :     0.030832

  6 H s       :     0.906338  s :     0.906338
      pz      :     0.013927  p :     0.066315
      px      :     0.018342
      py      :     0.034047

  7 H s       :     0.903983  s :     0.903983
      pz      :     0.014707  p :     0.067739
      px      :     0.018987
      py      :     0.034045

  8 H s       :     0.904135  s :     0.904135
      pz      :     0.014788  p :     0.067883
      px      :     0.018606
      py      :     0.034488

  9 H s       :     0.906459  s :     0.906459
      pz      :     0.013996  p :     0.066520
      px      :     0.018025
      py      :     0.034499

 10 H s       :     0.906992  s :     0.906992
      pz      :     0.014512  p :     0.066703
      px      :     0.041407
      py      :     0.010784

 11 O s       :     3.424770  s :     3.424770
      pz      :     1.457838  p :     4.645680
      px      :     1.339045
      py      :     1.848797
      dz2     :     0.010119  d :     0.025533
      dxz     :     0.005753
      dyz     :     0.000265
      dx2y2   :     0.006469
      dxy     :     0.002928

 12 H s       :     0.727448  s :     0.727448
      pz      :     0.088129  p :     0.179074
      px      :     0.038355
      py      :     0.052590



                      *****************************
                      * MAYER POPULATION ANALYSIS *
                      *****************************

  NA   - Mulliken gross atomic population
  ZA   - Total nuclear charge
  QA   - Mulliken gross atomic charge
  VA   - Mayer's total valence
  BVA  - Mayer's bonded valence
  FA   - Mayer's free valence

  ATOM       NA         ZA         QA         VA         BVA        FA
  0 C      5.9835     6.0000     0.0165     3.8166     3.8166    -0.0000
  1 C      6.0135     6.0000    -0.0135     3.8192     3.8192    -0.0000
  2 C      5.8457     6.0000     0.1543     3.9450     3.9450    -0.0000
  3 C      6.0167     6.0000    -0.0167     3.8262     3.8262     0.0000
  4 C      5.9833     6.0000     0.0167     3.8214     3.8214    -0.0000
  5 C      5.9732     6.0000     0.0268     3.8146     3.8146     0.0000
  6 H      1.0150     1.0000    -0.0150     0.9778     0.9778    -0.0000
  7 H      1.0272     1.0000    -0.0272     0.9955     0.9955    -0.0000
  8 H      1.0282     1.0000    -0.0282     0.9943     0.9943     0.0000
  9 H      1.0162     1.0000    -0.0162     0.9775     0.9775    -0.0000
 10 H      1.0177     1.0000    -0.0177     0.9780     0.9780    -0.0000
 11 O      8.2657     8.0000    -0.2657     2.1127     2.1127    -0.0000
 12 H      0.8141     1.0000     0.1859     0.9990     0.9990    -0.0000

  Mayer bond orders larger than 0.100000
B(  0-C ,  1-C ) :   1.3569 B(  0-C ,  5-C ) :   1.3843 B(  0-C ,  6-H ) :   0.9814 
B(  1-C ,  2-C ) :   1.3810 B(  1-C ,  7-H ) :   0.9878 B(  2-C ,  3-C ) :   1.3754 
B(  2-C , 11-O ) :   1.0656 B(  3-C ,  4-C ) :   1.3658 B(  3-C ,  8-H ) :   0.9888 
B(  4-C ,  5-C ) :   1.3791 B(  4-C ,  9-H ) :   0.9810 B(  5-C , 10-H ) :   0.9871 
B( 11-O , 12-H ) :   0.9717 

-------
TIMINGS
-------

Total SCF time: 0 days 0 hours 0 min 11 sec 

Total time                  ....      11.669 sec
Sum of individual times     ....      11.616 sec  ( 99.6%)

SCF preparation             ....       0.080 sec  (  0.7%)
Fock matrix formation       ....      11.483 sec  ( 98.4%)
  Startup                   ....       0.004 sec  (  0.0% of F)
  Split-RI-J                ....       0.577 sec  (  5.0% of F)
  Chain of spheres X        ....       9.298 sec  ( 81.0% of F)
  XC integration            ....       1.582 sec  ( 13.8% of F)
    XC Preparation          ....       0.000 sec  (  0.0% of XC)
    Basis function eval.    ....       0.640 sec  ( 40.4% of XC)
    Density eval.           ....       0.341 sec  ( 21.6% of XC)
    XC-Functional eval.     ....       0.162 sec  ( 10.3% of XC)
    XC-Potential eval.      ....       0.379 sec  ( 24.0% of XC)
Diagonalization             ....       0.000 sec  (  0.0%)
Density matrix formation    ....       0.007 sec  (  0.1%)
Total Energy calculation    ....       0.002 sec  (  0.0%)
Population analysis         ....       0.012 sec  (  0.1%)
Orbital Transformation      ....       0.006 sec  (  0.0%)
Orbital Orthonormalization  ....       0.000 sec  (  0.0%)
DIIS solution               ....       0.007 sec  (  0.1%)
SOSCF solution              ....       0.019 sec  (  0.2%)
Finished LeanSCF after  11.7 sec

Maximum memory used throughout the entire LEANSCF-calculation: 15.0 MB

-------------------------   --------------------
FINAL SINGLE POINT ENERGY      -307.058233533547
-------------------------   --------------------

                                *** OPTIMIZATION RUN DONE ***


------------------------------------------------------------------------------
                              ORCA PROPERTY CALCULATIONS
------------------------------------------------------------------------------

GBWName                                 ... input.gbw
Number of atoms                         ...     13
Number of basis functions               ...    128
Max core memory                         ...   1024 MB

Electric properties:
Dipole moment                           ... YES
Quadrupole moment                       ...  NO
Static polarizability (Dipole/Dipole)   ...  NO
Static polarizability (Dipole/Quad.)    ...  NO
Static polarizability (Quad./Quad.)     ...  NO
Static polarizability (Velocity)        ...  NO

Atomic electric properties:
Dipole moment                           ...  NO
Quadrupole moment                       ...  NO
Static polarizability                   ...  NO

Choice of electric origin               ... Center of mass
Position of electric origin             ...    -0.658440     0.934869    -0.024623

General magnetic properties:
Magnetizability                         ...  NO

EPR properties:
g-Tensor (aka g-matrix)                 ...  NO
Zero-Field splitting spin-orbit         ...  NO
Zero-field splitting spin-spin          ...  NO
Hyperfine couplings                     ...  NO (   0 nuclei)
Quadrupole couplings                    ...  NO (   0 nuclei)
Contact density                         ...  NO (   0 nuclei)

NMR properties:
Chemical shifts                         ...  NO (   0 nuclei)
Spin-rotation constants                 ...  NO (   0 nuclei)
Spin-spin couplings                     ...  NO (   0 nuclei,    0 pairs)

Choice of magnetic origin               ... GIAO
Position of magnetic origin             ...     0.000000     0.000000     0.000000

Properties with geometric perturbations:
SCF Hessian                             ...  NO
IR spectrum                             ...  NO
VCD spectrum                            ...  NO
X-ray spectroscopy properties:
SCF XES/XAS/RIXS spectra                ...  NO


-------------
DIPOLE MOMENT
-------------

Method             : SCF
Type of density    : Electron Density
Multiplicity       :   1
Irrep              :   0
Energy             :  -307.0582335335465132 Eh
Relativity type    : 
Basis              : AO
                                X                 Y                 Z
Electronic contribution:      1.933585015      -0.011902828       0.169888245
Nuclear contribution   :     -2.036673197       0.018371782      -0.747069510
                        -----------------------------------------
Total Dipole Moment    :     -0.103088182       0.006468954      -0.577181265
                        -----------------------------------------
Magnitude (a.u.)       :      0.586350777
Magnitude (Debye)      :      1.490385231



--------------------
Rotational spectrum 
--------------------
 
Rotational constants in cm-1:             0.187689             0.086007             0.059299 
Rotational constants in MHz :          5626.781959          2578.410757          1777.738833 

Dipole components along the rotational axes: 
x,y,z [a.u.] :    -0.097344    -0.006944    -0.578172 
x,y,z [Debye]:    -0.247428    -0.017651    -1.469597 

 

Dipole moment calculation done in   0.0 sec 

Maximum memory used throughout the entire PROP-calculation: 8.0 MB

--------------------------------
SUGGESTED CITATIONS FOR THIS RUN
--------------------------------

Below you find a list of papers that are relevant to this ORCA run
We neither can nor want to force you to cite these papers, but we appreciate if you do
You receive ORCA, which is the product of decades of hard work by many enthusiastic individuals, for free
The only thing we kindly ask in return is that you cite our papers,
We deeply appreciate it, if you show your appreciation for ORCA by not just citing the generic ORCA reference.

Please note that relegating all ORCA citations to the supporting information does *not* help us.
SI sections are not indexed - citations you put there will not count into any citation statistics
But we need these citations in order to attract the funding resources that allow us to do what we are doing

Therefore, if you are a happy ORCA user, please consider citing a few of the papers listed below in the main body of your paper

In addition to the list printed below, the program has created the file input.bibtex that contains the list in bibtex format
You can import this file easily into all common literature databanks and citation aid programs


List of essential papers. We consider these as the minimum necessary citations

  1. Neese,F.
     Software update: the ORCA program system, version 5.0
     WIRES Comput. Molec. Sci., 2022 12(1)e1606
     doi.org/10.1002/wcms.1606

List of papers to cite with high priority. The work reported in these papers was absolutely
necessary for this run to complete.
Our perspective: the developers of density functionals and basis sets usually get cited in chemistry papers
Good! But without the algorithms to do something with them, the functionals or basis sets would not do anything.
Hence, in our opinion, the algorithm design and method developments papers are equally worthy of getting cited

  1. Neese,F.
     An improvement of the resolution of the identity approximation for the formation of the Coulomb matrix
     J. Comp. Chem., 2003 24(14)1740-1747
     doi.org/10.1002/jcc.10318
  2. Neese,F.; Wennmohs,F.; Hansen,A.; Becker,U.
     Efficient, approximate and parallel Hartree-Fock and hybrid DFT calculations. A 'chain-of-spheres' algorithm for the Hartree-Fock exchange
     Chem. Phys., 2009 356(1-3)98-109
     doi.org/10.1016/j.chemphys.2008.10.036
  3. Helmich-Paris,B.; de Souza,B.; Neese,F.; Izsák,R.
     An improved chain of spheres for exchange algorithm
     J. Chem. Phys., 2021 155 104109
     doi.org/doi: 10.1063/5.0058766.
  4. Neese,F.
     The SHARK Integral Generation and Digestion System
     J. Comp. Chem., 2022  1-16
     doi.org/10.1002/jcc.26942

List of suggested additional citations. These are papers that are important in the 'surrounding' of 
of this run, or papers that preceded the highly important papers. If you like your results we are grateful for a citation.

  1. Izsak,R.; Neese,F.
     An overlap fitted chain of spheres exchange method
     J. Chem. Phys., 2011 135 144105
     doi.org/10.1063/1.3646921
  2. Izsak,R.; Hansen,A.; Neese,F.
     The resolution of identity and chain of spheres approximations for the LPNO-CCSD singles Fock term
     Molec. Phys., 2012 110 2413-2417
     doi.org/10.1080/00268976.2012.687466
  3. Neese,F.
     The ORCA program system
     WIRES Comput. Molec. Sci., 2012 2(1)73-78
     doi.org/10.1002/wcms.81
  4. Izsak,R.; Neese,F.; Klopper,W.
     Robust fitting techniques in the chain of spheres approximation to the Fock exchange: The role of the complementary space
     J. Chem. Phys., 2013 139 
     doi.org/10.1063/1.4819264
  5. Neese,F.
     Software update: the ORCA program system, version 4.0
     WIRES Comput. Molec. Sci., 2018 8(1)1-6
     doi.org/10.1002/wcms.1327
  6. Neese,F.; Wennmohs,F.; Becker,U.; Riplinger,C.
     The ORCA quantum chemistry program package
     J. Chem. Phys., 2020 152 Art. No. L224108
     doi.org/10.1063/5.0004608

List of optional additional citations

  1. Neese,F.
     Approximate second-order SCF convergence for spin unrestricted wavefunctions
     Chem. Phys. Lett., 2000 325(1-3)93-98
     doi.org/10.1016/s0009-2614(00)00662-x

Timings for individual modules:

Sum of individual times          ...      211.738 sec (=   3.529 min)
Startup calculation              ...        6.871 sec (=   0.115 min)   3.2 %
SCF iterations                   ...      105.043 sec (=   1.751 min)  49.6 %
Property calculations            ...        0.080 sec (=   0.001 min)   0.0 %
SCF Gradient evaluation          ...       99.665 sec (=   1.661 min)  47.1 %
Geometry relaxation              ...        0.078 sec (=   0.001 min)   0.0 %
                             ****ORCA TERMINATED NORMALLY****
TOTAL RUN TIME: 0 days 0 hours 3 minutes 32 seconds 386 msec
