
                                 *****************
                                 * O   R   C   A *
                                 *****************

                                            #,                                       
                                            ###                                      
                                            ####                                     
                                            #####                                    
                                            ######                                   
                                           ########,                                 
                                     ,,################,,,,,                         
                               ,,#################################,,                 
                          ,,##########################################,,             
                       ,#########################################, ''#####,          
                    ,#############################################,,   '####,        
                  ,##################################################,,,,####,       
                ,###########''''           ''''###############################       
              ,#####''   ,,,,##########,,,,          '''####'''          '####       
            ,##' ,,,,###########################,,,                        '##       
           ' ,,###''''                  '''############,,,                           
         ,,##''                                '''############,,,,        ,,,,,,###''
      ,#''                                            '''#######################'''  
     '                                                          ''''####''''         
             ,#######,   #######,   ,#######,      ##                                
            ,#'     '#,  ##    ##  ,#'     '#,    #''#        ,####,    ,#,          
            ##       ##  ##   ,#'  ##            #'  '#       #'       ,# #          
            ##       ##  #######   ##           ,######,      #####,      #          
            '#,     ,#'  ##    ##  '#,     ,#' ,#      #,     #,   #      #          
             '#######'   ##     ##  '#######'  #'      '#     '####' #    #          



                #########################################################
                #                        -***-                          #
                #          Department of theory and spectroscopy        #
                #                                                       #
                #                      Frank Neese                      #
                #                                                       #
                #     Directorship, Architecture, Infrastructure        #
                #                    SHARK, DRIVERS                     #
                #        Core code/Algorithms in most modules           #
                #                                                       #
                #        Max Planck Institute fuer Kohlenforschung      #
                #                Kaiser Wilhelm Platz 1                 #
                #                 D-45470 Muelheim/Ruhr                 #
                #                      Germany                          #
                #                                                       #
                #                  All rights reserved                  #
                #                        -***-                          #
                #########################################################


                         Program Version 6.1.0  -  RELEASE   -
                                (GIT: $679e74b$)
                          ($2025-06-10 18:02:51 +0200$)


 With contributions from (in alphabetic order):
[Max-Planck-Institut fuer Kohlenforschung]                               
  Daniel Aravena         : Magnetic Suceptibility                        
  Michael Atanasov       : Ab Initio Ligand Field Theory (pilot matlab implementation)
  Alexander A. Auer      : GIAO ZORA, VPT2 properties, NMR spectrum      
  Ute Becker             : All parallelization in ORCA, NUMFREQ, NUMCALC 
  Giovanni Bistoni       : ED, misc. LED, open-shell LED, HFLD           
  Dmytro Bykov           : pre 5.0 version of the SCF Hessian            
  Marcos Casanova-Páez   : Triplet and SCS-CIS(D). UHF-(DLPNO)-IP/EA/STEOM-CCSD. UHF-CVS-IP/STEOM-CCSD   
  Vijay G. Chilkuri      : MRCI spin determinant printing, contributions to CSF-ICE 
  Pauline Colinet        : FMM embedding                                 
  Dipayan Datta          : RHF DLPNO-CCSD density                        
  Achintya Kumar Dutta   : EOM-CC, STEOM-CC                              
  Nicolas Foglia         : Exact transition moments, OPA infrastructure, MCD improvements    
  Dmitry Ganyushin       : Spin-Orbit,Spin-Spin,Magnetic field MRCI      
  Miquel Garcia-Rates    : C-PCM and meta-GGA Hessian, CCSD/C-PCM, Gaussian charge scheme 
  Tiago L. C. Gouveia    : GS-ROHF, GS-ROCIS                             
  Yang Guo               : DLPNO-NEVPT2, F12-NEVPT2, CIM, IAO-localization        
  Andreas Hansen         : Spin unrestricted coupled pair/coupled cluster methods 
  Ingolf Harden          : AUTO-CI MPn and infrastructure                
  Benjamin Helmich-Paris : MC-RPA, TRAH-(SCF,CASSCF), AVAS, COSX integrals, SCF dyn. polar., MC-PDFT, srDFT 
  Lee Huntington         : MR-EOM, pCC                                   
  Robert Izsak           : Overlap fitted RIJCOSX, COSX-SCS-MP3, EOM     
  Riya Kayal             : Wick's Theorem for AUTO-CI, AUTO-CI UHF-CCSDT 
  Emily Kempfer          : AUTO-CI RHF CISDT and CCSDT, approximate NEVPT4
  Christian Kollmar      : KDIIS, OOCD, Brueckner-CCSD(T), CCSD density, CASPT2, CASPT2-K, improved NEVPT2 
  Axel Koslowski         : Symmetry handling                             
  Simone Kossmann        : meta-GGA functionals, TD-DFT gradient, OOMP2, (MP2 Hessian; deprecated post 5.0) 
  Lucas Lang             : DCDCAS, Hyperfine gauge corrections, ICE-SOC+SSC
  Marvin Lechner         : AUTO-CI (C++ implementation), FIC-MRCC        
  Spencer Leger          : CASSCF response                               
  Dagmar Lenk            : GEPOL surface, SMD, ORCA-2-JSON               
  Dimitrios Liakos       : Extrapolation schemes; Compound Job, Property file
  Dimitrios Manganas     : Further ROCIS development; embedding schemes. LFT, Crystal Embedding 
  Dimitrios Pantazis     : SARC Basis sets                               
  Anastasios Papadopoulos: AUTO-CI, single reference methods and gradients 
  Taras Petrenko         : pre 6.0 DFT Hessian and TD-DFT gradient,  ECA, NRVS 
  Petra Pikulova         : Analytic Raman intensities                    
  Peter Pinski           : DLPNO-MP2, DLPNO-MP2 Gradient                 
  Shashank Vittal Rao    : ES-AILFT, MagRelax                            
  Christoph Reimann      : Effective Core Potentials                     
  Marius Retegan         : Local ZFS, SOC                                
  Christoph Riplinger    : Optimizer, TS searches, QM/MM, DLPNO-CCSD(T), (RO)-DLPNO pert. Triples 
  Michael Roemelt        : Original ROCIS implementation, recursive CI coupling coefficients
  Masaaki Saitow         : Open-shell DLPNO-CCSD energy and density      
  Barbara Sandhoefer     : DKH picture change effects                    
  Yorick L. A. Schmerwitz: GMF and freeze-and-release deltaSCF, NEB S-IDPP initial path                    
  Kantharuban Sivalingam : CASSCF convergence/infrastructure, NEVPT2, NEVPT3, NEVPT4(SD), FIC-MRCI and CEPA variants
  Bernardo de Souza      : ESD, SOC TD-DFT                               
  Georgi L. Stoychev     : AutoAux, RI-MP2 NMR, DLPNO-MP2 response, X2C  
  Van Anh Tran           : RI-MP2 g-tensors                              
  Willem Van den Heuvel  : Paramagnetic NMR                              
  Zikuan Wang            : NOTCH, Electric field optimization            
  Frank Wennmohs         : Technical directorship and infrastructure     
  Hang Xu                : AUTO-CI-Response properties                   
                                                                         
[FACCTs GmbH]                                                            
  Markus Bursch, Nicolas Foglia, Miquel Garcia-Rates, Ingolf Harden, Hagen Neugebauer, Anastasios Papadopoulos, 
  Christoph Riplinger, Bernardo de Souza, Georgi L. Stoychev                                                    
                                                                 
  APM, various basis sets, CI-OPT, improved COSX, DLPNO-Multilevel,           
  DOCKER, DRACO, updates on ESD, Fragmentator, GOAT, IRC, LR-CPCM, L-BFGS, MBIS, meta-GGA TD-DFT gradient, ML-optimized integration grids, 
  MM, NACMEs, nearIR, NEB, NEB-TS, NL-DFT gradient (VV10), 2- and 3-layer-ONIOM, interface openCOSMO-RS, QMMM,   
  Crystal-QMMM, RESP, rigid body optimization, SF, symmetry and pop. for TD-DFT, various functionals, SOLVATOR                                   
                                                                         
[Other institutions]                                                     
  V. Asgeirsson          : NEB                                           
  Christoph Bannwarth    : sTDA-DFT, sTD-DFT, PBEh-3c, B97-3c, D3        
  Giovanni Bistoni       : ETS/NOCV, ADLD/ADEX, COVALED                  
  Martin Brehm           : Molecular dynamics                            
  Ronald Cardenas        : ETS/NOCV                                      
  Martina Colucci        : COVALED                                       
  Sebastian Ehlert       : rSCAN, r2SCAN, r2SCAN-3c, D4, dhf basis sets  
  Marvin Friede          : D4 for Fr, Ra, Ac-Lr                          
  Lars Goerigk           : TD-DFT with DH, B97 family of functionals     
  Stefan Grimme          : VdW corrections, initial TS optimization, DFT functionals, gCP, sTDA/sTD-DF 
  Waldemar Hujo          : DFT-NL                                        
  H. Jonsson             : NEB                                           
  Holger Kruse           : gCP                                           
  Marcel Mueller         : wB97X-3c, vDZP basis set                      
  Hagen Neugebauer       : wr2SCAN, Native XTB                           
  Gianluca Regni         : ADLD/ADEX                                     
  Tobias Risthaus        : pre 6.0 range-separated hybrid DFT and stability analysis
  Lukas Wittmann         : regularized MP2, r2SCAN double-hybrids, wr2SCAN        
                                                                         
We gratefully acknowledge several colleagues who have allowed us to      
interface, adapt or use parts of their codes:                            
  Ed Valeev, F. Pavosevic, A. Kumar             : LibInt (2-el integral package), F12 methods 
  Garnet Chan, S. Sharma, J. Yang, R. Olivares  : DMRG                   
  Ulf Ekstrom                                   : XCFun DFT Library      
  Mihaly Kallay                                 : mrcc  (arbitrary order and MRCC methods)
  Frank Weinhold                                : gennbo (NPA and NBO analysis)           
  Simon Mueller                                 : openCOSMO-RS                            
  Christopher J. Cramer and Donald G. Truhlar   : smd solvation model                     
  S Lehtola, MJT Oliveira, MAL Marques          : LibXC Library                           
  Liviu Ungur et al                             : ANISO software                          


 Your calculation uses the libint2 library for the computation of 2-el integrals
 For citations please refer to: http://libint.valeyev.net

 Your ORCA version has been built with support for libXC version: 7.0.0
 For citations please refer to: https://libxc.gitlab.io

 This ORCA versions uses:
   CBLAS   interface :  Fast vector & matrix operations
   LAPACKE interface :  Fast linear algebra routines
   SCALAPACK package :  Parallel linear algebra routines
   Shared memory     :  Shared parallel matrices
   BLAS/LAPACK       :  OpenBLAS 0.3.29  USE64BITINT DYNAMIC_ARCH NO_AFFINITY Cooperlake SINGLE_THREADED
        Core in use  :  Cooperlake
   Copyright (c) 2011-2014, The OpenBLAS Project


  ***********************************
  * Starting time: Fri Nov 28 16:48:25 2025
  * Host name:     chpc-cn077.rc.cuhk.edu.hk
  * Process ID:    3068280
  * Working dir.:  /lustre/scratch/xlzhang/zihan/fe2_singlet
  ***********************************

NOTE: MaxCore=2109 MB was set to SCF,MP2,MDCI,CIPSI,MRCI,RASCI and CIS
      => If you want to overwrite this, your respective input block should be placed after the MaxCore statement
XCFun DFT library Copyright 2009-2010 Ulf Ekstrom and contributors.
See http://admol.org/xcfun for more information.
This is free software; see the source code for copying conditions.
There is ABSOLUTELY NO WARRANTY; not even for MERCHANTABILITY or FITNESS FOR A PARTICULAR PURPOSE.
For details see the documentation.
Scientific users of this library should cite U. Ekstrom, L. Visscher, R. Bast, A. J. Thorvaldsen and K. Ruud;
J.Chem.Theor.Comp. 2010, DOI: 10.1021/ct100117s
XCFun Version 0.99 

Warning: RI is on but no J-basis has been assigned. Assigning Def2/J (nothing to worry about!)
================================================================================

----- Orbital basis set information -----
Your calculation utilizes the basis: def2-SVP
   F. Weigend and R. Ahlrichs, Phys. Chem. Chem. Phys. 7, 3297 (2005).

----- AuxJ basis set information -----
Your calculation utilizes the auxiliary basis: def2/J
   H-Rn: F. Weigend, Phys. Chem. Chem. Phys. 8, 1057 (2006).
   Fr-Lr: K. Eichkorn, F. Weigend, O. Treutler, R. Ahlrichs; Theor. Chem. Acc. 97, 119 (1997).

================================================================================
                                        WARNINGS
                       Please study these warnings very carefully!
================================================================================

WARNING: Functional chosen is sensitive to the integration grid.
         DEFGRID3 seems to be a minimum grid for robust results!

WARNING: Geometry Optimization
  ===> : Switching off AutoStart
         For restart on a previous wavefunction, please use MOREAD

================================================================================
                                       INPUT FILE
================================================================================
NAME = /users/s1155246974/li/fe2_singlet/fe2_singlet.inp
|  1> ! Opt Freq M062X def2-SVP defgrid2
|  2> # Number of processors
|  3> %pal nprocs 64 end
|  4> # Memory per core
|  5> %maxcore 2109
|  6> * xyz 2 1
|  7> Fe      -2.1311475900   -0.9394703500    0.0000000000
|  8> O       -2.1311475900    0.8805296500    0.0000000000
|  9> H       -1.6783051600    1.2005296500    0.7836668500
| 10> O       -3.9511475900   -0.9394703500    0.0000000000
| 11> H       -4.2711475900   -1.6929644800   -0.5014445000
| 12> O       -2.1311475900   -2.7594703500    0.0000000000
| 13> H       -1.3001591600   -3.2394703500   -0.0256561100
| 14> O       -0.3111475900   -0.9394703500    0.0000000000
| 15> H        0.1688524100   -0.8543234600   -0.8270127000
| 16> H       -2.9621360100   -3.2394703500    0.0256561100
| 17> H       -4.2711475900   -0.1284596100   -0.4018228100
| 18> H        0.1688524100   -1.0246172500    0.8270127000
| 19> H       -1.6788934000    1.2005296500   -0.7840064700
| 20> *
| 21> 
| 22>                          ****END OF INPUT****
================================================================================

                       *****************************
                       * Geometry Optimization Run *
                       *****************************

Geometry optimization settings:
Update method            Update   .... BFGS
Choice of coordinates    CoordSys .... (2022) Redundant Internals
Initial Hessian          InHess   .... Almloef's Model
Max. no of cycles        MaxIter  .... 50

Convergence Tolerances:
Energy Change            TolE     ....  5.0000e-06 Eh
Max. Gradient            TolMAXG  ....  3.0000e-04 Eh/bohr
RMS Gradient             TolRMSG  ....  1.0000e-04 Eh/bohr
Max. Displacement        TolMAXD  ....  4.0000e-03 bohr
RMS Displacement         TolRMSD  ....  2.0000e-03 bohr
Strict Convergence                .... False

------------------------------------------------------------------------------
                        ORCA OPTIMIZATION COORDINATE SETUP
------------------------------------------------------------------------------

The optimization will be done in redundant internal coordinates (2022)
Making redundant internal coordinates   ...  (2022 redundants) done
Evaluating the initial hessian          ...  (Almloef) done
Evaluating the coordinates              ...  done
Calculating the B-matrix                .... done
Calculating the G-matrix                .... done
The number of degrees of freedom        ....   52

    -----------------------------------------------------------------
                    Redundant Internal Coordinates


    -----------------------------------------------------------------
         Definition                    Initial Value    Approx d2E/dq
    -----------------------------------------------------------------
      1. B(O   1,Fe  0)                  1.8200         1.166709   
      2. B(H   2,O   1)                  0.9600         0.519956   
      3. B(O   3,Fe  0)                  1.8200         1.166709   
      4. B(H   4,O   3)                  0.9600         0.519956   
      5. B(O   5,Fe  0)                  1.8200         1.166709   
      6. B(H   6,O   5)                  0.9600         0.519956   
      7. B(O   7,Fe  0)                  1.8200         1.166709   
      8. B(H   8,O   7)                  0.9600         0.519956   
      9. B(H   9,O   5)                  0.9600         0.519956   
     10. B(H  10,O   3)                  0.9600         0.519956   
     11. B(H  11,O   7)                  0.9600         0.519956   
     12. B(H  12,O   1)                  0.9600         0.519956   
     13. A(O   1,Fe  0,O   3)           90.0000         0.694653   
     14. A(O   5,Fe  0,O   7)           90.0000         0.694653   
     15. A(O   1,Fe  0,O   7)           90.0000         0.694653   
     16. A(O   3,Fe  0,O   5)           90.0000         0.694653   
     17. A(Fe  0,O   1,H  12)          109.4712         0.464522   
     18. A(H   2,O   1,H  12)          109.4712         0.321834   
     19. A(Fe  0,O   1,H   2)          109.4712         0.464522   
     20. A(H   4,O   3,H  10)          109.4712         0.321834   
     21. A(Fe  0,O   3,H   4)          109.4712         0.464522   
     22. A(Fe  0,O   3,H  10)          109.4712         0.464522   
     23. A(H   6,O   5,H   9)          120.0000         0.321834   
     24. A(Fe  0,O   5,H   6)          120.0000         0.464522   
     25. A(Fe  0,O   5,H   9)          120.0000         0.464522   
     26. A(H   8,O   7,H  11)          120.0000         0.321834   
     27. A(Fe  0,O   7,H  11)          120.0000         0.464522   
     28. A(Fe  0,O   7,H   8)          120.0000         0.464522   
     29. D(H  12,O   1,Fe  0,O   3)   -119.9785         0.010000   
     30. D(H  12,O   1,Fe  0,O   7)     60.0215         0.010000   
     31. D(H   2,O   1,Fe  0,O   3)    120.0215         0.010000   
     32. D(H   2,O   1,Fe  0,O   7)    -59.9785         0.010000   
     33. D(H   4,O   3,Fe  0,O   5)    -33.6435         0.010000   
     34. D(H   4,O   3,Fe  0,O   1)    146.3565         0.010000   
     35. D(H  10,O   3,Fe  0,O   1)     26.3565         0.010000   
     36. D(H  10,O   3,Fe  0,O   5)   -153.6435         0.010000   
     37. D(H   6,O   5,O   1,H  12)     58.2531         0.010000   
     38. D(H   6,O   5,O   1,H   2)    -61.7469         0.010000   
     39. D(H   9,O   5,Fe  0,O   7)    178.2316         0.010000   
     40. D(H   9,O   5,Fe  0,O   3)     -1.7684         0.010000   
     41. D(H   6,O   5,Fe  0,O   7)     -1.7684         0.010000   
     42. D(H   9,O   5,O   1,H   2)    118.2531         0.010000   
     43. D(H   6,O   5,Fe  0,O   3)    178.2316         0.010000   
     44. D(H   9,O   5,O   1,H  12)   -121.7469         0.010000   
     45. D(H  11,O   7,O   3,H  10)    122.2348         0.010000   
     46. D(H   8,O   7,O   3,H  10)    -57.7652         0.010000   
     47. D(H   8,O   7,O   3,H   4)     62.2348         0.010000   
     48. D(H  11,O   7,Fe  0,O   5)    -84.1217         0.010000   
     49. D(H  11,O   7,Fe  0,O   1)     95.8783         0.010000   
     50. D(H  11,O   7,O   3,H   4)   -117.7652         0.010000   
     51. D(H   8,O   7,Fe  0,O   5)     95.8783         0.010000   
     52. D(H   8,O   7,Fe  0,O   1)    -84.1217         0.010000   
    -----------------------------------------------------------------

Number of atoms                         .... 13
Number of degrees of freedom            .... 52


         *************************************************************
         *                GEOMETRY OPTIMIZATION CYCLE   1            *
         *************************************************************
---------------------------------
CARTESIAN COORDINATES (ANGSTROEM)
---------------------------------
  Fe    -2.131148   -0.939470    0.000000
  O     -2.131148    0.880530    0.000000
  H     -1.678305    1.200530    0.783667
  O     -3.951148   -0.939470    0.000000
  H     -4.271148   -1.692964   -0.501444
  O     -2.131148   -2.759470    0.000000
  H     -1.300159   -3.239470   -0.025656
  O     -0.311148   -0.939470    0.000000
  H      0.168852   -0.854323   -0.827013
  H     -2.962136   -3.239470    0.025656
  H     -4.271148   -0.128460   -0.401823
  H      0.168852   -1.024617    0.827013
  H     -1.678893    1.200530   -0.784006

----------------------------
CARTESIAN COORDINATES (A.U.)
----------------------------
  NO LB      ZA    FRAG     MASS         X           Y           Z
   0 Fe   26.0000    0    55.850   -4.027285   -1.775342    0.000000
   1 O     8.0000    0    15.999   -4.027285    1.663960    0.000000
   2 H     1.0000    0     1.008   -3.171537    2.268672    1.480916
   3 O     8.0000    0    15.999   -7.466587   -1.775342    0.000000
   4 H     1.0000    0     1.008   -8.071299   -3.199239   -0.947593
   5 O     8.0000    0    15.999   -4.027285   -5.214643    0.000000
   6 H     1.0000    0     1.008   -2.456945   -6.121712   -0.048483
   7 O     8.0000    0    15.999   -0.587984   -1.775342    0.000000
   8 H     1.0000    0     1.008    0.319085   -1.614437   -1.562828
   9 H     1.0000    0     1.008   -5.597626   -6.121712    0.048483
  10 H     1.0000    0     1.008   -8.071299   -0.242753   -0.759335
  11 H     1.0000    0     1.008    0.319085   -1.936246    1.562828
  12 H     1.0000    0     1.008   -3.172649    2.268672   -1.481558

--------------------------------
INTERNAL COORDINATES (ANGSTROEM)
--------------------------------
 Fe     0   0   0     0.000000000000     0.00000000     0.00000000
 O      1   0   0     1.820000000000     0.00000000     0.00000000
 H      2   1   0     0.959999999061   109.47122065     0.00000000
 O      1   2   3     1.820000000000    90.00000000   120.02149934
 H      4   1   2     0.959999995065   109.47122074   146.35654271
 O      1   2   3     1.820000000000   180.00000000     0.00000000
 H      6   1   2     0.960000003528   119.99999988     0.00000000
 O      1   2   3     1.820000000000    90.00000000   300.02149934
 H      8   1   2     0.959999999395   120.00000002   275.87829955
 H      6   1   8     0.959999994872   120.00000018   178.23159989
 H      4   1   2     0.959999995329   109.47122073    26.35654283
 H      8   1   2     0.960000000282   119.99999999    95.87830024
 H      2   1   3     0.959999998633   109.47122066   119.99999963

---------------------------
INTERNAL COORDINATES (A.U.)
---------------------------
 Fe     0   0   0     0.000000000000     0.00000000     0.00000000
 O      1   0   0     3.439301563737     0.00000000     0.00000000
 H      2   1   0     1.814137086790   109.47122065     0.00000000
 O      1   2   3     3.439301563737    90.00000000   120.02149934
 H      4   1   2     1.814137079239   109.47122074   146.35654271
 O      1   2   3     3.439301563737   180.00000000     0.00000000
 H      6   1   2     1.814137095232   119.99999988     0.00000000
 O      1   2   3     3.439301563737    90.00000000   300.02149934
 H      8   1   2     1.814137087421   120.00000002   275.87829955
 H      6   1   8     1.814137078874   120.00000018   178.23159989
 H      4   1   2     1.814137079737   109.47122073    26.35654283
 H      8   1   2     1.814137089097   119.99999999    95.87830024
 H      2   1   3     1.814137085980   109.47122066   119.99999963

---------------------
BASIS SET INFORMATION
---------------------
There are 3 groups of distinct atoms

 Group   1 Type Fe  : 14s9p5d1f contracted to 5s3p2d1f pattern {63311/531/41/1}
 Group   2 Type O   : 7s4p1d contracted to 3s2p1d pattern {511/31/1}
 Group   3 Type H   : 4s1p contracted to 2s1p pattern {31/1}

Atom   0Fe   basis set group =>   1
Atom   1O    basis set group =>   2
Atom   2H    basis set group =>   3
Atom   3O    basis set group =>   2
Atom   4H    basis set group =>   3
Atom   5O    basis set group =>   2
Atom   6H    basis set group =>   3
Atom   7O    basis set group =>   2
Atom   8H    basis set group =>   3
Atom   9H    basis set group =>   3
Atom  10H    basis set group =>   3
Atom  11H    basis set group =>   3
Atom  12H    basis set group =>   3
---------------------------------
AUXILIARY/J BASIS SET INFORMATION
---------------------------------
There are 3 groups of distinct atoms

 Group   1 Type Fe  : 19s5p5d3f3g contracted to 8s5p5d2f3g pattern {121111111/11111/11111/21/111}
 Group   2 Type O   : 12s5p4d2f1g contracted to 6s4p3d1f1g pattern {711111/2111/211/2/1}
 Group   3 Type H   : 5s2p1d contracted to 3s1p1d pattern {311/2/1}

Atom   0Fe   basis set group =>   1
Atom   1O    basis set group =>   2
Atom   2H    basis set group =>   3
Atom   3O    basis set group =>   2
Atom   4H    basis set group =>   3
Atom   5O    basis set group =>   2
Atom   6H    basis set group =>   3
Atom   7O    basis set group =>   2
Atom   8H    basis set group =>   3
Atom   9H    basis set group =>   3
Atom  10H    basis set group =>   3
Atom  11H    basis set group =>   3
Atom  12H    basis set group =>   3


           ************************************************************
           *        Program running with 64 parallel MPI-processes    *
           *              working on a common directory               *
           ************************************************************
------------------------------------------------------------------------------
                             ORCA STARTUP CALCULATIONS
                           -- RI-GTO INTEGRALS CHOSEN --
------------------------------------------------------------------------------
------------------------------------------------------------------------------
                   ___                                                        
                  /   \      - P O W E R E D   B Y -                         
                 /     \                                                     
                 |  |  |   _    _      __       _____    __    __             
                 |  |  |  | |  | |    /  \     |  _  \  |  |  /  |          
                  \  \/   | |  | |   /    \    | | | |  |  | /  /          
                 / \  \   | |__| |  /  /\  \   | |_| |  |  |/  /          
                |  |  |   |  __  | /  /__\  \  |    /   |      \           
                |  |  |   | |  | | |   __   |  |    \   |  |\   \          
                \     /   | |  | | |  |  |  |  | |\  \  |  | \   \       
                 \___/    |_|  |_| |__|  |__|  |_| \__\ |__|  \__/        
                                                                              
                      - O R C A' S   B I G   F R I E N D -                    
                                      &                                       
                       - I N T E G R A L  F E E D E R -                       
                                                                              
 v1 FN, 2020, v2 2021, v3 2022-2024                                           
------------------------------------------------------------------------------


----------------------
SHARK INTEGRAL PACKAGE
----------------------

Number of atoms                             ...     13
Number of basis functions                   ...    127
Number of shells                            ...     59
Maximum angular momentum                    ...      3
Integral batch strategy                     ... SHARK/LIBINT Hybrid
RI-J (if used) integral strategy            ... SPLIT-RIJ (Revised 2003 algorithm where possible)
Printlevel                                  ...      1
Contraction scheme used                     ... SEGMENTED contraction
Prescreening option                         ... SCHWARTZ
   Thresh                                   ... 2.500e-11
   Tcut                                     ... 2.500e-12
   Tpresel                                  ... 2.500e-12 
Coulomb Range Separation                    ... NOT USED
Exchange Range Separation                   ... NOT USED
Multipole approximations                    ... NOT USED
Finite Nucleus Model                        ... NOT USED
CABS basis                                  ... NOT available
Auxiliary Coulomb fitting basis             ... AVAILABLE
   # of basis functions in Aux-J            ...    373
   # of shells in Aux-J                     ...    123
   Maximum angular momentum in Aux-J        ...      4
Auxiliary J/K fitting basis                 ... NOT available
Auxiliary Correlation fitting basis         ... NOT available
Auxiliary 'external' fitting basis          ... NOT available

Checking pre-screening integrals            ... done (  0.0 sec) Dimension = 59
   => SHARK Basis and OBASIS are compatible. Storing Pre-screening
Shell pair information
Shell pair cut-off parameter TPreSel        ...   2.5e-12
Total number of shell pairs                 ...      1770
Shell pairs after pre-screening             ...      1720
Total number of primitive shell pairs       ...      7019
Primitive shell pairs kept                  ...      5099
          la=0 lb=0:    539 shell pairs
          la=1 lb=0:    607 shell pairs
          la=1 lb=1:    186 shell pairs
          la=2 lb=0:    194 shell pairs
          la=2 lb=1:    114 shell pairs
          la=2 lb=2:     21 shell pairs
          la=3 lb=0:     33 shell pairs
          la=3 lb=1:     19 shell pairs
          la=3 lb=2:      6 shell pairs
          la=3 lb=3:      1 shell pairs

Checking whether 4 symmetric matrices of dimension 127 fit in memory
:Max Core in MB      =   2109.00
 MB in use           =      5.62
 MB left             =   2103.38
 MB needed           =      0.25
 Data fit in memory  = YES
Calculating RI/J V-Matrix + Cholesky decomp.... done (  0.2 sec)
Calculating Nuclear repulsion               ... done (  0.0 sec) ENN=    430.839247573102 Eh

Diagonalization of the overlap matrix:
Smallest eigenvalue                        ... 1.524e-02
Time for diagonalization                   ...    0.003 sec
Threshold for overlap eigenvalues          ... 1.000e-07
Number of eigenvalues below threshold      ... 0
Time for construction of square roots      ...    0.018 sec
Total time needed                          ...    0.034 sec

-------------------
DFT GRID GENERATION
-------------------

General Integration Accuracy     IntAcc      ... 4.388
Radial Grid Type                 RadialGrid  ... OptM3 with GC (2021)
Angular Grid (max. ang.)         AngularGrid ... 4 (Lebedev-302)
Angular grid pruning method      GridPruning ... 4 (adaptive)
Weight generation scheme         WeightScheme... mBecke (2022)
Basis function cutoff            BFCut       ... 1.0000e-11
Integration weight cutoff        WCut        ... 1.0000e-14
Partially contracted basis set               ... off
Rotationally invariant grid construction     ... off
Angular grids for H and He will be reduced by one unit
Core-polarized basis detected: some atoms will have their core
                               angular grid increased.

Total number of grid points                  ...    61293
Total number of batches                      ...      963
Average number of points per batch           ...       63
Average number of grid points per atom       ...     4715

--------------------
COSX GRID GENERATION
--------------------

GRIDX 1
-------
General Integration Accuracy     IntAcc      ... 3.816
Radial Grid Type                 RadialGrid  ... OptM3 with GC (2021)
Angular Grid (max. ang.)         AngularGrid ... 1 (Lebedev-50)
Angular grid pruning method      GridPruning ... 4 (adaptive)
Weight generation scheme         WeightScheme... mBecke (2022)
Basis function cutoff            BFCut       ... 1.0000e-11
Integration weight cutoff        WCut        ... 1.0000e-14
Partially contracted basis set               ... on
Rotationally invariant grid construction     ... off
Angular grids for H and He will be reduced by one unit
Core-polarized basis detected: some atoms will have their core
                               angular grid increased.

Total number of grid points                  ...    12269
Total number of batches                      ...      101
Average number of points per batch           ...      121
Average number of grid points per atom       ...      944
UseSFitting                                  ... on

GRIDX 2
-------
General Integration Accuracy     IntAcc      ... 4.020
Radial Grid Type                 RadialGrid  ... OptM3 with GC (2021)
Angular Grid (max. ang.)         AngularGrid ... 2 (Lebedev-110)
Angular grid pruning method      GridPruning ... 4 (adaptive)
Weight generation scheme         WeightScheme... mBecke (2022)
Basis function cutoff            BFCut       ... 1.0000e-11
Integration weight cutoff        WCut        ... 1.0000e-14
Partially contracted basis set               ... on
Rotationally invariant grid construction     ... off
Angular grids for H and He will be reduced by one unit
Core-polarized basis detected: some atoms will have their core
                               angular grid increased.

Total number of grid points                  ...    19358
Total number of batches                      ...      159
Average number of points per batch           ...      121
Average number of grid points per atom       ...     1489
UseSFitting                                  ... on

GRIDX 3
-------
General Integration Accuracy     IntAcc      ... 4.338
Radial Grid Type                 RadialGrid  ... OptM3 with GC (2021)
Angular Grid (max. ang.)         AngularGrid ... 3 (Lebedev-194)
Angular grid pruning method      GridPruning ... 4 (adaptive)
Weight generation scheme         WeightScheme... mBecke (2022)
Basis function cutoff            BFCut       ... 1.0000e-11
Integration weight cutoff        WCut        ... 1.0000e-14
Partially contracted basis set               ... on
Rotationally invariant grid construction     ... off
Angular grids for H and He will be reduced by one unit
Core-polarized basis detected: some atoms will have their core
                               angular grid increased.

Total number of grid points                  ...    35546
Total number of batches                      ...      285
Average number of points per batch           ...      124
Average number of grid points per atom       ...     2734
UseSFitting                                  ... on
Grids setup in   1.3 sec
Initializing property integral containers    ... done (  0.1 sec)

SHARK setup successfully completed in   2.3 seconds

Maximum memory used throughout the entire STARTUP-calculation: 17.9 MB


           ************************************************************
           *        Program running with 64 parallel MPI-processes    *
           *              working on a common directory               *
           ************************************************************
-------------------------------------------------------------------------------
                                 ORCA GUESS
                   Start orbitals & Density for SCF / CASSCF
-------------------------------------------------------------------------------

------------
SCF SETTINGS
------------
Hamiltonian:
 Density Functional     Method          .... DFT(GTOs)
 Exchange Functional    Exchange        .... M062X
 Correlation Functional Correlation     .... M062X
 Gradients option       PostSCFGGA      .... off
 Hybrid DFT is turned on
   Fraction HF Exchange ScalHFX         ....  0.540000
   Scaling of DF-GGA-X  ScalDFX         ....  0.460000
   Scaling of DF-GGA-C  ScalDFC         ....  1.000000
   Scaling of DF-LDA-C  ScalLDAC        ....  1.000000
   Perturbative correction              ....  0.000000
 RI-approximation to the Coulomb term is turned on
   Number of AuxJ basis functions       .... 373
   RIJ-COSX (HFX calculated with COS-X)).... on


General Settings:
 Integral files         IntName         .... /users/s1155246974/li/fe2_singlet/fe2_singlet
 Hartree-Fock type      HFTyp           .... RHF
 Total Charge           Charge          ....    2
 Multiplicity           Mult            ....    1
 Number of Electrons    NEL             ....   64
 Basis Dimension        Dim             ....  127
 Nuclear Repulsion      ENuc            ....    430.8392475731 Eh

Convergence Acceleration:
 AO-DIIS                CNVDIIS         .... on
   Start iteration      DIISMaxIt       ....    12
   Startup error        DIISStart       ....  0.200000
   # of expansion vecs  DIISMaxEq       ....     5
   Bias factor          DIISBfac        ....   1.050
   Max. coefficient     DIISMaxC        ....  10.000
 MO-DIIS                CNVKDIIS        .... off
 Trust-Rad. Augm. Hess. CNVTRAH         .... auto
   Auto Start mean grad. ratio tolernc. ....  1.125000
   Auto Start start iteration           ....    50
   Auto Start num. interpolation iter.  ....    10
   Max. Number of Micro iterations      ....    24
   Max. Number of Macro iterations      .... Maxiter - #DIIS iter
   Number of Davidson start vectors     ....     2
   Converg. threshold    (grad. norm)   ....   1.000e-05
   Grad. Scal. Fac. for Micro threshold ....   0.100
   Minimum threshold for Micro iter.    ....   1.000e-02
   NR start threshold (gradient norm)   ....   1.000e-04
   Initial trust radius                 ....   0.400
   Minimum AH scaling param. (alpha)    ....   1.000
   Maximum AH scaling param. (alpha)    .... 1000.000
   Quad. conv. algorithm                .... NR
   White noise on init. David. guess    .... on
   Maximum white noise                  ....   0.010
   Pseudo random numbers                .... off
   Inactive MOs                         .... canonical
   Orbital update algorithm             .... Taylor
   Preconditioner                       .... Diag
   Full preconditioner red. dimension   ....   250
 SOSCF                 CNVSOSCF           .... on
   Start iteration     SOSCFMaxIt         ....   150
   Startup grad/error  SOSCFStart         ....  0.003300
   Hessian update      SOSCFHessUp        .... L-BFGS
   Autom. constraints  SOSCFAutoConstrain .... off
 Level Shifting         CNVShift        .... on
   Level shift para.    LevelShift      ....    0.2500
   Turn off err/grad.   ShiftErr        ....    0.0010
 Zerner damping         CNVZerner       .... off
 Static damping         CNVDamp         .... on
   Fraction old density DampFac         ....    0.7000
   Max. Damping (<1)    DampMax         ....    0.9800
   Min. Damping (>=0)   DampMin         ....    0.0000
   Turn off err/grad.   DampErr         ....    0.1000

SCF Procedure:
 Maximum # iterations   MaxIter         ....   125
 SCF integral mode      SCFMode         .... Direct
   Integral package                     .... SHARK and LIBINT hybrid scheme
 Reset frequency        DirectResetFreq ....    20
 Integral Threshold     Thresh          ....  2.500e-11 Eh
 Primitive CutOff       TCut            ....  2.500e-12 Eh

Convergence Tolerance:
 Convergence Check Mode ConvCheckMode   .... Total+1el-Energy
 Convergence forced     ConvForced      .... 0
 Energy Change          TolE            ....  1.000e-08 Eh
 1-El. energy change                    ....  1.000e-05 Eh
 Orbital Gradient       TolG            ....  1.000e-05
 Orbital Rotation angle TolX            ....  1.000e-05
 DIIS Error             TolErr          ....  5.000e-07

------------------------------
INITIAL GUESS: MODEL POTENTIAL
------------------------------
Loading Hartree-Fock densities                     ... done
Calculating cut-offs                               ... done
Initializing the effective Hamiltonian             ... done
Setting up the integral package (SHARK)            ... done
Starting the Coulomb interaction                   ... done (   0.1 sec)
Making the grid                                    ... done (   0.6 sec)
Mapping shells                                     ... done
Starting the XC term evaluation                    ... done (   0.1 sec)
  promolecular density results
     # of electrons  =     65.998544033
     EX              =    -89.331163655
     EC              =     -2.503922825
     EX+EC           =    -91.835086480
Transforming the Hamiltonian                       ... done (   0.0 sec)
Diagonalizing the Hamiltonian                      ... done (   0.4 sec)
Back transforming the eigenvectors                 ... done (   0.0 sec)
Now organizing SCF variables                       ... done
                      ------------------
                      INITIAL GUESS DONE (   1.6 sec)
                      ------------------
             **** ENERGY FILE WAS UPDATED (/users/s1155246974/li/fe2_singlet/fe2_singlet.en.tmp) ****
Finished Guess after   3.5 sec
Maximum memory used throughout the entire GUESS-calculation: 9.2 MB


           ************************************************************
           *        Program running with 64 parallel MPI-processes    *
           *              working on a common directory               *
           ************************************************************

-------------------------------------------------------------------------------------------
                                      ORCA LEAN-SCF
                              memory conserving SCF solver
-------------------------------------------------------------------------------------------

----------------------------------------D-I-I-S--------------------------------------------
Iteration    Energy (Eh)           Delta-E    RMSDP     MaxDP     DIISErr   Damp  Time(sec)
-------------------------------------------------------------------------------------------
               ***  Starting incremental Fock matrix formation  ***
    1    -1567.9618376014352634     0.00e+00  3.49e-02  6.14e-02  2.33e-01  0.700   1.1
    2    -1568.0507888578881648    -8.90e-02  2.11e-02  3.64e-02  1.17e-01  0.700   3.9
                               ***Turning on AO-DIIS***
    3    -1568.0890565834822610    -3.83e-02  8.81e-03  2.02e-02  5.15e-02  0.700   3.3
    4    -1568.1136092141093741    -2.46e-02  2.29e-02  6.33e-02  3.38e-02  0.000   3.1
    5    -1568.1716792395711764    -5.81e-02  5.94e-03  2.37e-02  1.95e-02  0.000   1.3
    6    -1568.1729518263821319    -1.27e-03  4.74e-03  2.14e-02  1.54e-02  0.000   2.2
    7    -1568.1736958323606359    -7.44e-04  4.14e-03  1.95e-02  1.13e-02  0.000   3.4
    8    -1568.1741574006091469    -4.62e-04  3.50e-03  1.61e-02  7.54e-03  0.000  12.8
    9    -1568.1744089517496832    -2.52e-04  2.41e-03  1.05e-02  4.25e-03  0.000   4.4
                              *** Initializing SOSCF ***
---------------------------------------S-O-S-C-F--------------------------------------
Iteration    Energy (Eh)           Delta-E    RMSDP     MaxDP     MaxGrad    Time(sec)
--------------------------------------------------------------------------------------
   10    -1568.1745174570448853    -1.09e-04  1.48e-03  5.61e-03  2.64e-03     9.9
               *** Restarting incremental Fock matrix formation ***
   11    -1568.1747077355657893    -1.90e-04  9.09e-04  4.51e-03  1.23e-03     8.0
   12    -1568.1747333238797637    -2.56e-05  9.16e-03  4.85e-02  1.09e-03     1.7
   13    -1568.1748790825681681    -1.46e-04  4.98e-03  2.73e-02  1.74e-03     1.6
   14    -1568.1749494525531645    -7.04e-05  8.80e-03  4.71e-02  2.10e-03     9.0
   15    -1568.1750585666318329    -1.09e-04  1.25e-02  6.21e-02  1.86e-03     2.1
   16    -1568.1751655117668633    -1.07e-04  4.01e-03  1.34e-02  1.12e-03     8.8
   17    -1568.1752163083190226    -5.08e-05  1.50e-03  5.73e-03  1.03e-03     4.8
   18    -1568.1752433349799958    -2.70e-05  1.89e-03  8.94e-03  6.24e-04     3.2
   19    -1568.1752656017256413    -2.23e-05  5.03e-03  2.52e-02  6.52e-04     6.6
   20    -1568.1753170315298576    -5.14e-05  2.06e-02  1.01e-01  1.75e-03     6.8
               *** Scaled step length from 0.313376 to 0.200000 ***
   21    -1568.1755209726532030    -2.04e-04  4.46e-02  1.80e-01  4.92e-03     5.0
   22    -1568.1756807318113260    -1.60e-04  1.30e-02  4.35e-02  1.08e-02     1.3
   23    -1568.1760723300794780    -3.92e-04  1.02e-02  3.60e-02  7.82e-03     6.4
               *** Scaled step length from 0.351910 to 0.200000 ***
   24    -1568.1769365861616734    -8.64e-04  4.80e-02  2.10e-01  2.24e-03     5.0
   25    -1568.1776129753955047    -6.76e-04  1.26e-02  6.09e-02  2.96e-03     4.0
   26    -1568.1779763802080652    -3.63e-04  3.68e-03  1.36e-02  4.48e-03     4.4
   27    -1568.1782176514300318    -2.41e-04  2.34e-02  7.61e-02  2.86e-03     3.1
   28    -1568.1788020263759336    -5.84e-04  3.82e-03  1.23e-02  2.43e-03     3.1
   29    -1568.1789150815327503    -1.13e-04  3.36e-03  1.09e-02  1.55e-03     3.2
   30    -1568.1790040170744760    -8.89e-05  4.86e-03  2.16e-02  1.28e-03     4.4
               *** Restarting incremental Fock matrix formation ***
   31    -1568.1790804544218645    -7.64e-05  2.54e-03  9.21e-03  8.39e-04     5.4
   32    -1568.1791086356015512    -2.82e-05  1.59e-03  6.42e-03  5.25e-04     3.8
   33    -1568.1791215954453946    -1.30e-05  3.81e-04  8.48e-04  2.26e-04     3.1
   34    -1568.1791229035702600    -1.31e-06  2.07e-04  5.65e-04  1.57e-04     6.6
   35    -1568.1791235586176754    -6.55e-07  1.62e-04  6.99e-04  7.34e-05     4.7
   36    -1568.1791237104582706    -1.52e-07  9.48e-05  2.65e-04  3.33e-05     1.5
   37    -1568.1791237619438562    -5.15e-08  2.03e-05  7.93e-05  4.99e-06     4.7
   38    -1568.1791237623276629    -3.84e-10  3.91e-06  1.25e-05  2.22e-06     7.0
                 **** Energy Check signals convergence ****

               *****************************************************
               *                     SUCCESS                       *
               *           SCF CONVERGED AFTER  38 CYCLES          *
               *****************************************************

Recomputing exchange energy using gridx3       ... done (    0.860 sec)
Old exchange energy                            :    -48.501042298 Eh
New exchange energy                            :    -48.501043088 Eh
Exchange energy change after final integration :     -0.000000789 Eh
Total energy after final integration           :  -1568.179124553 Eh
             **** ENERGY FILE WAS UPDATED (/users/s1155246974/li/fe2_singlet/fe2_singlet.en.tmp) ****

----------------
TOTAL SCF ENERGY
----------------

Total Energy       :      -1568.17912455278997 Eh          -42672.32340 eV

Components:
Nuclear Repulsion  :        430.83924757310189 Eh           11723.73195 eV
Electronic Energy  :      -1999.01837133639265 Eh          -54396.05533 eV
One Electron Energy:      -2997.87044618324717 Eh          -81576.20209 eV
Two Electron Energy:        998.85207484685452 Eh           27180.14677 eV

Virial components:
Potential Energy   :      -3133.16460342561732 Eh          -85257.74328 eV
Kinetic Energy     :       1564.98547887282734 Eh           42585.41988 eV
Virial Ratio       :          2.00204068710098

DFT components:
N(Alpha)           :       32.000000278972 electrons
N(Beta)            :       32.000000278972 electrons
N(Total)           :       64.000000557943 electrons
E(XC)              :      -44.044322757966 Eh       

---------------
SCF CONVERGENCE
---------------

  Last Energy change         ...    3.8381e-10  Tolerance :   1.0000e-08
  Last MAX-Density change    ...    1.2483e-05  Tolerance :   1.0000e-07
  Last RMS-Density change    ...    3.9149e-06  Tolerance :   5.0000e-09
  Last DIIS Error            ...    2.6425e-03  Tolerance :   5.0000e-07
  Last Orbital Gradient      ...    2.2234e-06  Tolerance :   1.0000e-05
  Last Orbital Rotation      ...    1.0154e-05  Tolerance :   1.0000e-05


----------------
ORBITAL ENERGIES
----------------

  NO   OCC          E(Eh)            E(eV) 
   0   2.0000    -258.278450     -7028.1139 
   1   2.0000     -30.992888      -843.3594 
   2   2.0000     -26.871448      -731.2093 
   3   2.0000     -26.857233      -730.8225 
   4   2.0000     -26.854554      -730.7496 
   5   2.0000     -20.068337      -546.0872 
   6   2.0000     -20.062365      -545.9247 
   7   2.0000     -20.059207      -545.8388 
   8   2.0000     -20.047912      -545.5314 
   9   2.0000      -4.056384      -110.3798 
  10   2.0000      -2.812366       -76.5284 
  11   2.0000      -2.785069       -75.7856 
  12   2.0000      -2.781896       -75.6992 
  13   2.0000      -1.562229       -42.5104 
  14   2.0000      -1.548220       -42.1292 
  15   2.0000      -1.540213       -41.9113 
  16   2.0000      -1.534512       -41.7562 
  17   2.0000      -1.076463       -29.2921 
  18   2.0000      -1.064713       -28.9723 
  19   2.0000      -1.047174       -28.4951 
  20   2.0000      -1.030004       -28.0278 
  21   2.0000      -0.979172       -26.6446 
  22   2.0000      -0.947311       -25.7777 
  23   2.0000      -0.922081       -25.0911 
  24   2.0000      -0.909821       -24.7575 
  25   2.0000      -0.880093       -23.9485 
  26   2.0000      -0.851593       -23.1730 
  27   2.0000      -0.838549       -22.8181 
  28   2.0000      -0.816521       -22.2187 
  29   2.0000      -0.745990       -20.2994 
  30   2.0000      -0.737604       -20.0712 
  31   2.0000      -0.728862       -19.8333 
  32   0.0000      -0.400787       -10.9060 
  33   0.0000      -0.321168        -8.7394 
  34   0.0000      -0.281159        -7.6507 
  35   0.0000      -0.270398        -7.3579 
  36   0.0000      -0.247989        -6.7481 
  37   0.0000      -0.242770        -6.6061 
  38   0.0000      -0.197004        -5.3607 
  39   0.0000      -0.192262        -5.2317 
  40   0.0000      -0.187985        -5.1153 
  41   0.0000      -0.165874        -4.5137 
  42   0.0000      -0.154054        -4.1920 
*Only the first 10 virtual orbitals were printed.

                    ********************************
                    * MULLIKEN POPULATION ANALYSIS *
                    ********************************

-----------------------
MULLIKEN ATOMIC CHARGES
-----------------------
   0 Fe:    0.946981
   1 O :   -0.275429
   2 H :    0.275160
   3 O :   -0.252272
   4 H :    0.249872
   5 O :   -0.310114
   6 H :    0.290973
   7 O :   -0.344083
   8 H :    0.290663
   9 H :    0.283748
  10 H :    0.276323
  11 H :    0.292316
  12 H :    0.275860
Sum of atomic charges:    2.0000000

--------------------------------
MULLIKEN REDUCED ORBITAL CHARGES
--------------------------------
  0 Fes       :     6.332220  s :     6.332220
      pz      :     4.079096  p :    12.327923
      px      :     4.127080
      py      :     4.121747
      dz2     :     1.161379  d :     6.390187
      dxz     :     1.992642
      dyz     :     0.799775
      dx2y2   :     0.440236
      dxy     :     1.996154
      f0      :     0.000127  f :     0.002689
      f+1     :     0.000333
      f-1     :     0.000340
      f+2     :     0.000222
      f-2     :     0.000013
      f+3     :     0.000832
      f-3     :     0.000822

  1 O s       :     3.630365  s :     3.630365
      pz      :     1.246855  p :     4.635806
      px      :     1.719454
      py      :     1.669497
      dz2     :     0.000505  d :     0.009258
      dxz     :     0.004585
      dyz     :     0.000853
      dx2y2   :     0.001305
      dxy     :     0.002010

  2 H s       :     0.656629  s :     0.656629
      pz      :     0.032279  p :     0.068211
      px      :     0.019448
      py      :     0.016483

  3 O s       :     3.631691  s :     3.631691
      pz      :     1.710599  p :     4.610537
      px      :     1.658618
      py      :     1.241320
      dz2     :     0.000825  d :     0.010045
      dxz     :     0.002009
      dyz     :     0.004722
      dx2y2   :     0.000831
      dxy     :     0.001658

  4 H s       :     0.681321  s :     0.681321
      pz      :     0.021492  p :     0.068808
      px      :     0.017190
      py      :     0.030125

  5 O s       :     3.613458  s :     3.613458
      pz      :     1.903304  p :     4.690504
      px      :     1.227307
      py      :     1.559893
      dz2     :     0.001241  d :     0.006151
      dxz     :     0.000044
      dyz     :     0.000306
      dx2y2   :     0.000358
      dxy     :     0.004203

  6 H s       :     0.644385  s :     0.644385
      pz      :     0.014608  p :     0.064643
      px      :     0.033725
      py      :     0.016309

  7 O s       :     3.612239  s :     3.612239
      pz      :     1.236874  p :     4.725400
      px      :     1.556313
      py      :     1.932213
      dz2     :     0.000839  d :     0.006444
      dxz     :     0.004122
      dyz     :     0.000070
      dx2y2   :     0.000479
      dxy     :     0.000933

  8 H s       :     0.643913  s :     0.643913
      pz      :     0.032657  p :     0.065423
      px      :     0.016825
      py      :     0.015941

  9 H s       :     0.651310  s :     0.651310
      pz      :     0.015117  p :     0.064942
      px      :     0.032787
      py      :     0.017039

 10 H s       :     0.655939  s :     0.655939
      pz      :     0.018161  p :     0.067738
      px      :     0.015553
      py      :     0.034024

 11 H s       :     0.642267  s :     0.642267
      pz      :     0.032753  p :     0.065417
      px      :     0.016753
      py      :     0.015911

 12 H s       :     0.655729  s :     0.655729
      pz      :     0.032433  p :     0.068411
      px      :     0.019248
      py      :     0.016731



                     *******************************
                     * LOEWDIN POPULATION ANALYSIS *
                     *******************************

----------------------
LOEWDIN ATOMIC CHARGES
----------------------
   0 Fe:    0.508435
   1 O :    0.072684
   2 H :    0.149335
   3 O :    0.086577
   4 H :    0.133334
   5 O :    0.087542
   6 H :    0.152842
   7 O :    0.062913
   8 H :    0.150377
   9 H :    0.149749
  10 H :    0.145863
  11 H :    0.151739
  12 H :    0.148612

-------------------------------
LOEWDIN REDUCED ORBITAL CHARGES
-------------------------------
  0 Fes       :     6.311966  s :     6.311966
      pz      :     4.090191  p :    12.569940
      px      :     4.238656
      py      :     4.241092
      dz2     :     1.209135  d :     6.605163
      dxz     :     1.996042
      dyz     :     0.810275
      dx2y2   :     0.585109
      dxy     :     2.004603
      f0      :     0.000162  f :     0.004497
      f+1     :     0.000592
      f-1     :     0.000587
      f+2     :     0.000304
      f-2     :     0.000013
      f+3     :     0.001417
      f-3     :     0.001423

  1 O s       :     3.312420  s :     3.312420
      pz      :     1.278341  p :     4.596740
      px      :     1.700754
      py      :     1.617644
      dz2     :     0.002382  d :     0.018157
      dxz     :     0.008556
      dyz     :     0.003029
      dx2y2   :     0.001487
      dxy     :     0.002703

  2 H s       :     0.671264  s :     0.671264
      pz      :     0.071437  p :     0.179401
      px      :     0.057383
      py      :     0.050580

  3 O s       :     3.314140  s :     3.314140
      pz      :     1.692621  p :     4.579434
      px      :     1.606153
      py      :     1.280659
      dz2     :     0.000412  d :     0.019850
      dxz     :     0.002710
      dyz     :     0.008911
      dx2y2   :     0.003224
      dxy     :     0.004592

  4 H s       :     0.688274  s :     0.688274
      pz      :     0.061545  p :     0.178391
      px      :     0.050569
      py      :     0.066277

  5 O s       :     3.277649  s :     3.277649
      pz      :     1.819635  p :     4.619016
      px      :     1.273911
      py      :     1.525471
      dz2     :     0.002341  d :     0.015793
      dxz     :     0.000066
      dyz     :     0.000488
      dx2y2   :     0.002268
      dxy     :     0.010630

  6 H s       :     0.668119  s :     0.668119
      pz      :     0.047836  p :     0.179039
      px      :     0.080380
      py      :     0.050823

  7 O s       :     3.275517  s :     3.275517
      pz      :     1.276076  p :     4.645685
      px      :     1.521315
      py      :     1.848294
      dz2     :     0.003086  d :     0.015886
      dxz     :     0.010587
      dyz     :     0.000159
      dx2y2   :     0.000676
      dxy     :     0.001378

  8 H s       :     0.668252  s :     0.668252
      pz      :     0.078343  p :     0.181372
      px      :     0.051616
      py      :     0.051412

  9 H s       :     0.671673  s :     0.671673
      pz      :     0.048382  p :     0.178578
      px      :     0.078452
      py      :     0.051743

 10 H s       :     0.675604  s :     0.675604
      pz      :     0.053607  p :     0.178534
      px      :     0.049001
      py      :     0.075925

 11 H s       :     0.666761  s :     0.666761
      pz      :     0.078557  p :     0.181499
      px      :     0.051548
      py      :     0.051394

 12 H s       :     0.671443  s :     0.671443
      pz      :     0.071576  p :     0.179945
      px      :     0.057313
      py      :     0.051057



                      *****************************
                      * MAYER POPULATION ANALYSIS *
                      *****************************

  NA   - Mulliken gross atomic population
  ZA   - Total nuclear charge
  QA   - Mulliken gross atomic charge
  VA   - Mayer's total valence
  BVA  - Mayer's bonded valence
  FA   - Mayer's free valence

  ATOM       NA         ZA         QA         VA         BVA        FA
  0 Fe    25.0530    26.0000     0.9470     1.9137     1.9137    -0.0000
  1 O      8.2754     8.0000    -0.2754     2.3291     2.3291    -0.0000
  2 H      0.7248     1.0000     0.2752     0.9553     0.9553    -0.0000
  3 O      8.2523     8.0000    -0.2523     2.3469     2.3469     0.0000
  4 H      0.7501     1.0000     0.2499     0.9710     0.9710     0.0000
  5 O      8.3101     8.0000    -0.3101     2.3261     2.3261    -0.0000
  6 H      0.7090     1.0000     0.2910     0.9487     0.9487    -0.0000
  7 O      8.3441     8.0000    -0.3441     2.2610     2.2610    -0.0000
  8 H      0.7093     1.0000     0.2907     0.9423     0.9423    -0.0000
  9 H      0.7163     1.0000     0.2837     0.9483     0.9483    -0.0000
 10 H      0.7237     1.0000     0.2763     0.9552     0.9552    -0.0000
 11 H      0.7077     1.0000     0.2923     0.9407     0.9407     0.0000
 12 H      0.7241     1.0000     0.2759     0.9529     0.9529    -0.0000

  Mayer bond orders larger than 0.100000
B(  0-Fe,  1-O ) :   0.4663 B(  0-Fe,  3-O ) :   0.4726 B(  0-Fe,  5-O ) :   0.4917 
B(  0-Fe,  7-O ) :   0.3970 B(  1-O ,  2-H ) :   0.9209 B(  1-O , 12-H ) :   0.9267 
B(  3-O ,  4-H ) :   0.9395 B(  3-O , 10-H ) :   0.9203 B(  5-O ,  6-H ) :   0.9057 
B(  5-O ,  9-H ) :   0.9169 B(  7-O ,  8-H ) :   0.9170 B(  7-O , 11-H ) :   0.9160 


-------
TIMINGS
-------

Total SCF time: 0 days 0 hours 3 min 4 sec 

Total time                  ....     184.624 sec
Sum of individual times     ....     178.686 sec  ( 96.8%)

SCF preparation             ....       2.886 sec  (  1.6%)
Fock matrix formation       ....     119.028 sec  ( 64.5%)
  Startup                   ....       0.339 sec  (  0.3% of F)
  Split-RI-J                ....       9.612 sec  (  8.1% of F)
  Chain of spheres X        ....      30.240 sec  ( 25.4% of F)
  XC integration            ....      40.349 sec  ( 33.9% of F)
    XC Preparation          ....       0.000 sec  (  0.0% of XC)
    Basis function eval.    ....       0.090 sec  (  0.2% of XC)
    Density eval.           ....       0.107 sec  (  0.3% of XC)
    XC-Functional eval.     ....       0.051 sec  (  0.1% of XC)
    XC-Potential eval.      ....       0.109 sec  (  0.3% of XC)
Diagonalization             ....       0.000 sec  (  0.0%)
Density matrix formation    ....       9.500 sec  (  5.1%)
Total Energy calculation    ....       8.377 sec  (  4.5%)
Population analysis         ....       0.918 sec  (  0.5%)
Orbital Transformation      ....       1.256 sec  (  0.7%)
Orbital Orthonormalization  ....       0.000 sec  (  0.0%)
DIIS solution               ....      10.741 sec  (  5.8%)
SOSCF solution              ....      25.980 sec  ( 14.1%)
Finished LeanSCF after 185.3 sec

Maximum memory used throughout the entire LEANSCF-calculation: 10.8 MB


           ************************************************************
           *        Program running with 64 parallel MPI-processes    *
           *              working on a common directory               *
           ************************************************************

------------------------------------------------------------------------------
                         ORCA PROPERTY INTEGRAL CALCULATIONS
------------------------------------------------------------------------------

GBWName                                   ... /users/s1155246974/li/fe2_singlet/fe2_singlet.gbw
Number of atoms                           ...     13
Number of basis functions                 ...    127
Max core memory                           ...   2109 MB

Dipole integrals                          ... YES
Quadrupole integrals                      ...  NO
Linear momentum integrals                 ...  NO
Angular momentum integrals                ...  NO
Higher moments length integrals           ...  NO
Higher moments velocity integrals         ...  NO
Kinetic energy integrals                  ...  NO
GIAO right hand sides                     ...  NO
GIAO dipole derivative integrals          ...  NO
SOC integrals                             ...  NO
EPR diamagnetic integrals (GIAO)          ...  NO
EPR gauge integrals                       ...  NO
Field gradient integrals                  ...  NO (   0 nuclei)
Spin-dipole/Fermi contact integrals       ...  NO (   0 nuclei)
Contact density integrals                 ...  NO (   0 nuclei)
Nucleus-orbit integrals                   ...  NO (   0 nuclei)
Geometric perturbations                   ...  NO (  13 nuclei)

Choice of electric origin   ... Center of mass
Position of electric origin ... ( -4.0090, -1.7793, -0.0135) 
Choice of magnetic origin   ... GIAO
Position of magnetic origin ... (  0.0000,  0.0000,  0.0000) 

Calculating integrals                     ... Electric Dipole (Length)     done (  0.1 sec)

Property integrals calculated in   0.2 sec

Maximum memory used throughout the entire PROPINT-calculation: 9.5 MB

-------------------------   --------------------
FINAL SINGLE POINT ENERGY     -1568.179124552790
-------------------------   --------------------



           ************************************************************
           *        Program running with 64 parallel MPI-processes    *
           *              working on a common directory               *
           ************************************************************
------------------------------------------------------------------------------
                         ORCA SCF GRADIENT CALCULATION
------------------------------------------------------------------------------

Nuc. rep. gradient        (SHARK) ... done (  0.0 sec)
HCore & Overlap gradient  (SHARK) ... done (  0.1 sec)
Split-RIJ-J gradient      (SHARK) ... done (  0.6 sec)
done (  1.3 sec)
XC gradient                       ... done (  0.7 sec)

------------------
CARTESIAN GRADIENT
------------------

   1   Fe  :    0.003881074    0.028055929   -0.013711018
   2   O   :    0.014711299   -0.035105419    0.010228250
   3   H   :   -0.007751679   -0.019787219   -0.009776058
   4   O   :    0.025563250    0.004631601   -0.001606250
   5   H   :    0.022700577    0.001362563    0.005881485
   6   O   :    0.004320964    0.000115886    0.005951353
   7   H   :   -0.002409306    0.022554659   -0.000746004
   8   O   :   -0.021446148    0.002290218   -0.000779288
   9   H   :   -0.024404067    0.000092339   -0.000039373
  10   H   :   -0.002270703    0.026232056   -0.004582905
  11   H   :    0.019261145   -0.010372352    0.003315161
  12   H   :   -0.024552158    0.000981861   -0.000531056
  13   H   :   -0.007604247   -0.021052121    0.006395704

Difference to translation invariance:
           :   -0.0000000004    0.0000000001    0.0000000002

Difference to rotation invariance:
           :    0.0109458908   -0.0028736490    0.0011553947

Norm of the Cartesian gradient     ...    0.0911067955
RMS gradient                       ...    0.0145887630
MAX gradient                       ...    0.0351054192

-------
TIMINGS
-------

Total SCF gradient time     ....        2.699 sec

Densities                   ....       0.002 sec  (  0.1%)
One electron gradient       ....       0.052 sec  (  1.9%)
RI-J Coulomb gradient       ....       0.649 sec  ( 24.0%)
COSX gradient               ....       1.331 sec  ( 49.3%)
XC gradient                 ....       0.662 sec  ( 24.5%)

Maximum memory used throughout the entire SCFGRAD-calculation: 14.3 MB
------------------------------------------------------------------------------
                         ORCA GEOMETRY RELAXATION STEP
------------------------------------------------------------------------------

Reading the OPT-File                    .... done
Getting information on internals        .... done
Copying old internal coords+grads       .... done
Making the new internal coordinates     .... (2022 redundants) done
Validating the new internal coordinates .... (2022 redundants) done
Calculating the B-matrix                .... done
Calculating the G,G- and P matrices     .... done
Transforming gradient to internals      .... done
Projecting the internal gradient        .... done
Number of atoms                         ....  13
Number of internal coordinates          ....  52
Current Energy                          .... -1568.179124553 Eh
Current gradient norm                   ....     0.091106795 Eh/bohr
Maximum allowed component of the step   ....  0.300
Current trust radius                    ....  0.300
Evaluating the initial hessian          ....  (Almloef) done
Projecting the Hessian                  .... done
Forming the augmented Hessian           .... done
Diagonalizing the augmented Hessian     .... done
Last element of RFO vector              ....  0.953624972
Lowest eigenvalues of augmented Hessian:
 -0.031373335  0.010000000  0.010000000  0.010000000  0.010000000
Length of the computed step             ....  0.315634942
Warning: the length of the step is outside the trust region - taking restricted step instead
The input lambda is                     ....     0.009000
   iter:   5  x=    0.002444  g= 1370.647360 f(x)=     3.432019
   iter:  10  x=   -0.030829  g=    5.286897 f(x)=     0.042341
   iter:  15  x=   -0.035346  g=    2.134200 f(x)=     0.000000
The output lambda is                    ....    -0.035346 (15 iterations)
The final length of the internal step   ....  0.300000000
Converting the step to Cartesian space:
 Initial RMS(Int)=    0.0416025147
Transforming coordinates:
 Iter   0:  RMS(Cart)=    0.1071545739 RMS(Int)=    0.8669665684
 Iter   5:  RMS(Cart)=    0.0000001022 RMS(Int)=    0.0000000925
done
Storing new coordinates                 .... done

                                .--------------------.
          ----------------------|Geometry convergence|-------------------------
          Item                value                   Tolerance       Converged
          ---------------------------------------------------------------------
          RMS gradient        0.0216176713            0.0001000000      NO
          MAX gradient        0.0759165710            0.0003000000      NO
          RMS step            0.0416025147            0.0020000000      NO
          MAX step            0.1107632999            0.0040000000      NO
          -------------------------------------------------------------------------
          ........................................................
          Max(Bonds)      0.0334      Max(Angles)    3.68
          Max(Dihed)        6.35      Max(Improp)    0.00
          ---------------------------------------------------------------------

The optimization has not yet converged - more geometry cycles are needed


    ---------------------------------------------------------------------------
                         Redundant Internal Coordinates
                            (Angstroem and degrees)

        Definition                    Value    dE/dq     Step     New-Value
    ----------------------------------------------------------------------------
     1. B(O   1,Fe  0)                1.8200 -0.075917  0.0334    1.8534   
     2. B(H   2,O   1)                0.9600 -0.018491  0.0176    0.9776   
     3. B(O   3,Fe  0)                1.8200 -0.067501  0.0297    1.8497   
     4. B(H   4,O   3)                0.9600 -0.011782  0.0112    0.9712   
     5. B(O   5,Fe  0)                1.8200 -0.048947  0.0215    1.8415   
     6. B(H   6,O   5)                0.9600 -0.013385  0.0128    0.9728   
     7. B(O   7,Fe  0)                1.8200 -0.070393  0.0310    1.8510   
     8. B(H   8,O   7)                0.9600 -0.012100  0.0115    0.9715   
     9. B(H   9,O   5)                0.9600 -0.011246  0.0107    0.9707   
    10. B(H  10,O   3)                0.9600 -0.016561  0.0158    0.9758   
    11. B(H  11,O   7)                0.9600 -0.012877  0.0123    0.9723   
    12. B(H  12,O   1)                0.9600 -0.015521  0.0148    0.9748   
    13. A(O   1,Fe  0,O   3)           90.00  0.013511   -1.13     88.87   
    14. A(O   5,Fe  0,O   7)           90.00  0.004294   -0.26     89.74   
    15. A(O   1,Fe  0,O   7)           90.00 -0.008731    0.71     90.71   
    16. A(O   3,Fe  0,O   5)           90.00 -0.009073    0.69     90.69   
    17. A(Fe  0,O   1,H  12)          109.47 -0.022446    3.03    112.50   
    18. A(H   2,O   1,H  12)          109.47  0.016756   -1.40    108.07   
    19. A(Fe  0,O   1,H   2)          109.47 -0.017539    2.47    111.94   
    20. A(H   4,O   3,H  10)          109.47  0.017627   -1.27    108.20   
    21. A(Fe  0,O   3,H   4)          109.47 -0.027253    3.68    113.15   
    22. A(Fe  0,O   3,H  10)          109.47 -0.017631    2.58    112.05   
    23. A(H   6,O   5,H   9)          120.00  0.025487   -3.61    116.39   
    24. A(Fe  0,O   5,H   6)          120.00 -0.007731    1.23    121.23   
    25. A(Fe  0,O   5,H   9)          120.00 -0.017757    2.38    122.38   
    26. A(H   8,O   7,H  11)          120.00  0.025460   -3.60    116.40   
    27. A(Fe  0,O   7,H  11)          120.00 -0.012415    1.77    121.77   
    28. A(Fe  0,O   7,H   8)          120.00 -0.013044    1.84    121.84   
    29. D(H  12,O   1,Fe  0,O   3)   -119.98 -0.001054   -0.74   -120.72   
    30. D(H  12,O   1,Fe  0,O   7)     60.02 -0.002465    1.83     61.85   
    31. D(H   2,O   1,Fe  0,O   3)    120.02  0.002909   -2.39    117.63   
    32. D(H   2,O   1,Fe  0,O   7)    -59.98  0.001498    0.18    -59.80   
    33. D(H   4,O   3,Fe  0,O   5)    -33.64 -0.003469    1.64    -32.01   
    34. D(H   4,O   3,Fe  0,O   1)    146.36  0.001040   -4.07    142.28   
    35. D(H  10,O   3,Fe  0,O   1)     26.36  0.006938   -6.35     20.01   
    36. D(H  10,O   3,Fe  0,O   5)   -153.64  0.002429   -0.64   -154.28   
    37. D(H   6,O   5,O   1,H  12)     58.25 -0.002244    0.39     58.64   
    38. D(H   6,O   5,O   1,H   2)    -61.75  0.003078   -1.40    -63.15   
    39. D(H   9,O   5,Fe  0,O   7)    178.23  0.003109   -4.30    173.93   
    40. D(H   9,O   5,Fe  0,O   3)     -1.77  0.001698   -1.73     -3.50   
    41. D(H   6,O   5,Fe  0,O   7)     -1.77 -0.000041   -0.36     -2.13   
    42. D(H   9,O   5,O   1,H   2)    118.25  0.003547   -2.04    116.22   
    43. D(H   6,O   5,Fe  0,O   3)    178.23 -0.001452    2.21    180.44   
    44. D(H   9,O   5,O   1,H  12)   -121.75 -0.001775   -0.25   -121.99   
    45. D(H  11,O   7,O   3,H  10)    122.23  0.004497   -2.31    119.92   
    46. D(H   8,O   7,O   3,H  10)    -57.77  0.003452   -2.58    -60.34   
    47. D(H   8,O   7,O   3,H   4)     62.23 -0.002784    0.47     62.71   
    48. D(H  11,O   7,Fe  0,O   5)    -84.12  0.000055   -1.03    -85.15   
    49. D(H  11,O   7,Fe  0,O   1)     95.88 -0.004454    4.68    100.55   
    50. D(H  11,O   7,O   3,H   4)   -117.77 -0.001739    0.74   -117.02   
    51. D(H   8,O   7,Fe  0,O   5)     95.88  0.001839   -1.70     94.18   
    52. D(H   8,O   7,Fe  0,O   1)    -84.12 -0.002670    4.01    -80.11   
    ----------------------------------------------------------------------------

Geometry step timings:
Preparation and reading OPT file:      0.000 s ( 0.414 %)
Internal coordinates            :      0.000 s ( 0.231 %)
B/P matrices and projection     :      0.000 s ( 2.139 %)
Hessian update/contruction      :      0.018 s (84.631 %)
Making the step                 :      0.001 s ( 2.794 %)
Converting the step to Cartesian:      0.000 s ( 0.636 %)
Storing new data                :      0.000 s ( 0.689 %)
Checking convergence            :      0.000 s ( 0.371 %)
Final printing                  :      0.002 s ( 8.044 %)
Total time                      :      0.021 s

Time for energy+gradient        :    200.992 s
Time for complete geometry iter :    210.172 s

         *************************************************************
         *                GEOMETRY OPTIMIZATION CYCLE   2            *
         *************************************************************
---------------------------------
CARTESIAN COORDINATES (ANGSTROEM)
---------------------------------
  Fe    -2.123080   -0.951225    0.017925
  O     -2.139853    0.899795   -0.074886
  H     -1.710410    1.307629    0.702927
  O     -3.972459   -0.932198    0.047602
  H     -4.368537   -1.661790   -0.456482
  O     -2.119181   -2.790571   -0.072012
  H     -1.286004   -3.291657   -0.103332
  O     -0.272847   -0.956681    0.070562
  H      0.263022   -0.857879   -0.733773
  H     -2.935673   -3.314115   -0.032869
  H     -4.334311   -0.094759   -0.298677
  H      0.215159   -1.068627    0.904006
  H     -1.695647    1.236481   -0.874599

----------------------------
CARTESIAN COORDINATES (A.U.)
----------------------------
  NO LB      ZA    FRAG     MASS         X           Y           Z
   0 Fe   26.0000    0    55.850   -4.012039   -1.797554    0.033874
   1 O     8.0000    0    15.999   -4.043736    1.700365   -0.141515
   2 H     1.0000    0     1.008   -3.232207    2.471060    1.328340
   3 O     8.0000    0    15.999   -7.506860   -1.761599    0.089956
   4 H     1.0000    0     1.008   -8.255339   -3.140329   -0.862626
   5 O     8.0000    0    15.999   -4.004671   -5.273415   -0.136083
   6 H     1.0000    0     1.008   -2.430195   -6.220330   -0.195270
   7 O     8.0000    0    15.999   -0.515607   -1.807865    0.133343
   8 H     1.0000    0     1.008    0.497040   -1.621157   -1.386630
   9 H     1.0000    0     1.008   -5.547619   -6.262770   -0.062114
  10 H     1.0000    0     1.008   -8.190662   -0.179069   -0.564417
  11 H     1.0000    0     1.008    0.406591   -2.019413    1.708325
  12 H     1.0000    0     1.008   -3.204308    2.336611   -1.652752

--------------------------------
INTERNAL COORDINATES (ANGSTROEM)
--------------------------------
 Fe     0   0   0     0.000000000000     0.00000000     0.00000000
 O      1   0   0     1.853420510330     0.00000000     0.00000000
 H      2   1   0     0.977621351144   111.88918618     0.00000000
 O      1   2   3     1.849715618806    88.93895258   117.54556990
 H      4   1   2     0.971228031658   113.05924113   142.29235144
 O      1   2   3     1.841547748619   174.31643042   204.50493649
 H      6   1   4     0.972755132963   121.19085703   180.42052356
 O      1   2   3     1.850989055204    90.76859129   300.11258444
 H      8   1   2     0.971530996045   121.83694252   279.83548468
 H      6   1   4     0.970716715085   122.34003883   356.36730790
 H      4   1   2     0.975781484691   111.95633702    20.01298839
 H      8   1   2     0.972271463117   121.76486912   100.53226230
 H      2   1   3     0.974790799239   112.45170159   121.71626476

---------------------------
INTERNAL COORDINATES (A.U.)
---------------------------
 Fe     0   0   0     0.000000000000     0.00000000     0.00000000
 O      1   0   0     3.502457175517     0.00000000     0.00000000
 H      2   1   0     1.847436616336   111.88918618     0.00000000
 O      1   2   3     3.495455945179    88.93895258   117.54556990
 H      4   1   2     1.835354993421   113.05924113   142.29235144
 O      1   2   3     3.480020907428   174.31643042   204.50493649
 H      6   1   4     1.838240796666   121.19085703   180.42052356
 O      1   2   3     3.497862391221    90.76859129   300.11258444
 H      8   1   2     1.835927513142   121.83694252   279.83548468
 H      6   1   4     1.834388745131   122.34003883   356.36730790
 H      4   1   2     1.843959772618   111.95633702    20.01298839
 H      8   1   2     1.837326793118   121.76486912   100.53226230
 H      2   1   3     1.842087648429   112.45170159   121.71626476



           ************************************************************
           *        Program running with 64 parallel MPI-processes    *
           *              working on a common directory               *
           ************************************************************
------------------------------------------------------------------------------
                   ___                                                        
                  /   \      - P O W E R E D   B Y -                         
                 /     \                                                     
                 |  |  |   _    _      __       _____    __    __             
                 |  |  |  | |  | |    /  \     |  _  \  |  |  /  |          
                  \  \/   | |  | |   /    \    | | | |  |  | /  /          
                 / \  \   | |__| |  /  /\  \   | |_| |  |  |/  /          
                |  |  |   |  __  | /  /__\  \  |    /   |      \           
                |  |  |   | |  | | |   __   |  |    \   |  |\   \          
                \     /   | |  | | |  |  |  |  | |\  \  |  | \   \       
                 \___/    |_|  |_| |__|  |__|  |_| \__\ |__|  \__/        
[...]
      7       0.225027   0.082223  -0.202865   0.273018  -0.198431   0.019057
      8      -0.119586   0.079710  -0.191760   0.257091  -0.186476   0.016803
      9       0.044392   0.020307   0.039608   0.007813  -0.021802   0.003679
     10      -0.001388  -0.000217  -0.000527   0.000229   0.000470  -0.048615
     11       0.004671   0.002133   0.004032   0.001140  -0.002046  -0.045196
     12      -0.353132  -0.151654  -0.293457  -0.058350   0.158340   0.356117
     13       0.207831  -0.170852  -0.332528  -0.067136   0.178293   0.376035
     14       0.142538  -0.177946  -0.345587  -0.070452   0.185485   0.393123
     15       0.001258  -0.000235  -0.000420  -0.000707  -0.000362   0.001500
     16       0.035302   0.006120  -0.013633  -0.035295  -0.032596  -0.000569
     17      -0.001821  -0.000051   0.000614   0.001423   0.001133  -0.000756
     18      -0.202515   0.065551  -0.140954  -0.364913  -0.334759  -0.016598
     19      -0.261042  -0.052626   0.116790   0.303997   0.280375   0.014323
     20       0.096965  -0.029710   0.062867   0.162918   0.150115   0.007085
     21      -0.033993   0.044176  -0.010562  -0.006597   0.020449  -0.001666
     22       0.000418   0.000960  -0.000210   0.000192   0.000912  -0.018903
     23      -0.003943   0.003915  -0.000961  -0.000953   0.001235   0.018969
     24       0.242955  -0.408393   0.095931   0.059945  -0.191424   0.167569
     25      -0.151273  -0.368213   0.087782   0.053128  -0.170707   0.142689
     26       0.171765   0.328715  -0.078394  -0.046681   0.152764  -0.125900
     27       0.184271  -0.063291   0.146775   0.376329   0.340117  -0.007233
     28      -0.276456  -0.044303   0.099563   0.260021   0.235507  -0.005869
     29      -0.070632   0.030748  -0.072485  -0.185940  -0.167983   0.004908
     30      -0.324038  -0.173515  -0.336853  -0.065319   0.185336  -0.414234
     31      -0.189049   0.174309   0.340315   0.065268  -0.185541   0.393398
     32      -0.213089   0.143884   0.281242   0.053002  -0.153449   0.322344
     33       0.278789  -0.295880   0.070344   0.044961  -0.131100  -0.140877
     34       0.147045   0.352925  -0.084725  -0.054444   0.155723   0.156461
     35      -0.110047  -0.391521   0.093866   0.061365  -0.172482  -0.174627
     36       0.140326  -0.086175   0.217004  -0.290494   0.209712   0.018402
     37       0.225011   0.080828  -0.199856   0.271111  -0.196050  -0.018953
     38       0.107231  -0.078451   0.198567  -0.266498   0.192331   0.018555
                 36         37         38    
      0       0.000004   0.000063  -0.000084
      1       0.000033  -0.000004  -0.000001
      2      -0.000067   0.000032   0.000011
      3       0.005981  -0.053306   0.004262
      4       0.000150   0.000180  -0.000144
      5       0.005527  -0.047103   0.003754
      6      -0.049399   0.426709  -0.032783
      7      -0.048787   0.410534  -0.031666
      8      -0.044267   0.363496  -0.028161
      9      -0.001650  -0.000459  -0.000001
     10       0.018874   0.004844   0.003681
     11       0.017639   0.004245   0.003263
     12      -0.137027  -0.033839  -0.027907
     13      -0.144484  -0.036369  -0.030394
     14      -0.151559  -0.036741  -0.029686
     15      -0.009068   0.003967   0.064202
     16      -0.000024  -0.000257  -0.002729
     17       0.004478  -0.001879  -0.030211
     18       0.065149  -0.031333  -0.489499
     19      -0.058626   0.027712   0.432646
     20      -0.030822   0.013743   0.217347
     21      -0.004311  -0.000628  -0.000467
     22      -0.046189  -0.005036  -0.006004
     23       0.046540   0.004842   0.005827
     24       0.411673   0.044950   0.051629
     25       0.350565   0.039533   0.044591
     26      -0.310222  -0.032858  -0.038644
     27       0.079016  -0.031782  -0.526751
     28       0.058653  -0.023560  -0.388834
     29      -0.040345   0.015696   0.260683
     30       0.162863   0.040446   0.028600
     31      -0.154535  -0.039824  -0.027559
     32      -0.127106  -0.030519  -0.021879
     33      -0.343110  -0.035459  -0.043595
     34       0.380754   0.039890   0.049896
     35      -0.426053  -0.043469  -0.053153
     36      -0.045805   0.417188  -0.034302
     37       0.046177  -0.413444   0.033815
     38      -0.043350   0.382071  -0.031488


-----------
IR SPECTRUM
-----------

 Mode   freq       eps      Int      T**2         TX        TY        TZ
       cm**-1   L/(mol*cm) km/mol    a.u.
----------------------------------------------------------------------------
  6:     81.93   0.000099    0.50  0.000378  (-0.016286  0.010278  0.002633)
  7:     99.46   0.000082    0.42  0.000258  (-0.009596 -0.006834  0.010911)
  8:    156.67   0.000700    3.54  0.001394  (-0.032957 -0.013184 -0.011593)
  9:    161.47   0.000814    4.11  0.001573  ( 0.031334 -0.002511 -0.024178)
 10:    173.16   0.003083   15.58  0.005556  (-0.058059 -0.046220  0.006983)
 11:    182.80   0.001162    5.87  0.001983  ( 0.041440  0.016275  0.000943)
 12:    187.69   0.003773   19.07  0.006273  (-0.078223 -0.011740  0.004025)
 13:    235.42   0.012310   62.21  0.016318  (-0.008810  0.126540 -0.015091)
 14:    348.54   0.042096  212.73  0.037691  (-0.058238 -0.030962  0.182593)
 15:    381.35   0.068488  346.11  0.056045  ( 0.065075  0.040944 -0.223907)
 16:    403.39   0.023488  118.70  0.018170  (-0.050669 -0.097939 -0.077529)
 17:    408.12   0.033197  167.76  0.025383  (-0.063166 -0.115405 -0.089860)
 18:    419.00   0.036214  183.01  0.026971  (-0.112119  0.119733  0.008027)
 19:    436.63   0.000554    2.80  0.000396  (-0.005222 -0.019114  0.001900)
 20:    443.27   0.020381  103.00  0.014348  ( 0.049192 -0.026945  0.105840)
 21:    499.90   0.002580   13.04  0.001611  ( 0.039753 -0.002266  0.005009)
 22:    508.36   0.005391   27.25  0.003310  ( 0.003366 -0.056330 -0.011186)
 23:    626.13   0.054312  274.47  0.027069  ( 0.029086  0.014382 -0.161296)
 24:    642.03   0.020001  101.08  0.009722  ( 0.015800  0.090393  0.036073)
 25:    659.56   0.007418   37.49  0.003510  (-0.054752  0.021642  0.006591)
 26:    663.99   0.018278   92.37  0.008590  (-0.085315  0.019389 -0.030591)
 27:   1637.70   0.010528   53.20  0.002006  ( 0.042048  0.015017  0.003545)
 28:   1638.13   0.045225  228.55  0.008615  ( 0.006587  0.092542 -0.002803)
 29:   1641.12   0.037326  188.63  0.007098  (-0.082463  0.014255 -0.009709)
 30:   1648.37   0.000588    2.97  0.000111  (-0.009408 -0.004765  0.000350)
 31:   3762.90   0.080653  407.59  0.006689  (-0.081195  0.005337 -0.008219)
 32:   3763.46   0.019192   96.99  0.001591  (-0.037233 -0.013740 -0.004033)
 33:   3768.07   0.092409  467.00  0.007653  ( 0.001118  0.087386 -0.003946)
 34:   3779.47   0.000796    4.02  0.000066  ( 0.001674  0.007931 -0.000094)
 35:   3833.82   0.067199  339.60  0.005470  (-0.001434  0.067576  0.030020)
 36:   3833.92   0.080558  407.11  0.006557  ( 0.008779  0.026801 -0.075906)
 37:   3839.33   0.050328  254.34  0.004091  ( 0.049370  0.000443  0.040659)
 38:   3840.11   0.059889  302.66  0.004867  (-0.067203  0.004862  0.018083)

* The epsilon (eps) is given for a Dirac delta lineshape.
** The dipole moment derivative (T) already includes vibrational overlap.

The first frequency considered to be a vibration is 6
The total number of vibrations considered is 33


--------------------------
THERMOCHEMISTRY AT 298.15K
--------------------------

Temperature         ...   298.15 K
Pressure            ...     1.00 atm
Total Mass          ...   127.91 AMU
Quasi RRHO          ...     True
Cut-Off Frequency   ...     1.00 cm^-1

Throughout the following assumptions are being made:
  (1) The electronic state is orbitally nondegenerate
  (2) There are no thermally accessible electronically excited states
  (3) Hindered rotations indicated by low frequency modes are not
      treated as such but are treated as vibrations and this may
      cause some error
  (4) All equations used are the standard statistical mechanics
      equations for an ideal gas
  (5) All vibrations are strictly harmonic

freq.      81.93  E(vib)   ...       0.48 
freq.      99.46  E(vib)   ...       0.46 
freq.     156.67  E(vib)   ...       0.40 
freq.     161.47  E(vib)   ...       0.39 
freq.     173.16  E(vib)   ...       0.38 
freq.     182.80  E(vib)   ...       0.37 
freq.     187.69  E(vib)   ...       0.36 
freq.     235.42  E(vib)   ...       0.32 
freq.     348.54  E(vib)   ...       0.23 
freq.     381.35  E(vib)   ...       0.21 
freq.     403.39  E(vib)   ...       0.19 
freq.     408.12  E(vib)   ...       0.19 
freq.     419.00  E(vib)   ...       0.18 
freq.     436.63  E(vib)   ...       0.17 
freq.     443.27  E(vib)   ...       0.17 
freq.     499.90  E(vib)   ...       0.14 
freq.     508.36  E(vib)   ...       0.14 
freq.     626.13  E(vib)   ...       0.09 
freq.     642.03  E(vib)   ...       0.09 
freq.     659.56  E(vib)   ...       0.08 
freq.     663.99  E(vib)   ...       0.08 
freq.    1637.70  E(vib)   ...       0.00 
freq.    1638.13  E(vib)   ...       0.00 
freq.    1641.12  E(vib)   ...       0.00 
freq.    1648.37  E(vib)   ...       0.00 
freq.    3762.90  E(vib)   ...       0.00 
freq.    3763.46  E(vib)   ...       0.00 
freq.    3768.07  E(vib)   ...       0.00 
freq.    3779.47  E(vib)   ...       0.00 
freq.    3833.82  E(vib)   ...       0.00 
freq.    3833.92  E(vib)   ...       0.00 
freq.    3839.33  E(vib)   ...       0.00 
freq.    3840.11  E(vib)   ...       0.00 

------------
INNER ENERGY
------------

The inner energy is: U= E(el) + E(ZPE) + E(vib) + E(rot) + E(trans)
    E(el)   - is the total energy from the electronic structure calculation
              = E(kin-el) + E(nuc-el) + E(el-el) + E(nuc-nuc)
    E(ZPE)  - the the zero temperature vibrational energy from the frequency calculation
    E(vib)  - the the finite temperature correction to E(ZPE) due to population
              of excited vibrational states
    E(rot)  - is the rotational thermal energy
    E(trans)- is the translational thermal energy

Summary of contributions to the inner energy U:
Electronic energy                ...  -1568.25617185 Eh
Zero point energy                ...      0.10184609 Eh      63.91 kcal/mol
Thermal vibrational correction   ...      0.00817126 Eh       5.13 kcal/mol
Thermal rotational correction    ...      0.00141627 Eh       0.89 kcal/mol
Thermal translational correction ...      0.00141627 Eh       0.89 kcal/mol
-----------------------------------------------------------------------
Total thermal energy                  -1568.14332195 Eh


Summary of corrections to the electronic energy:
(perhaps to be used in another calculation)
Total thermal correction                  0.01100380 Eh       6.90 kcal/mol
Non-thermal (ZPE) correction              0.10184609 Eh      63.91 kcal/mol
-----------------------------------------------------------------------
Total correction                          0.11284989 Eh      70.81 kcal/mol


--------
ENTHALPY
--------

The enthalpy is H = U + kB*T
                kB is Boltzmann's constant
Total thermal energy              ...  -1568.14332195 Eh 
Thermal Enthalpy correction       ...      0.00094421 Eh       0.59 kcal/mol
-----------------------------------------------------------------------
Total Enthalpy                    ...  -1568.14237774 Eh


Note: Only C1 symmetry has been detected, increase convergence thresholds 
      if your molecule has a higher symmetry. Symmetry factor of 1.0 is   
      used for the rotational entropy correction. 
 

Note: Rotational entropy computed according to Herzberg 
Infrared and Raman Spectra, Chapter V,1, Van Nostrand Reinhold, 1945 
Point Group:  C1, Symmetry Number:   1  
Rotational constants in cm-1:     0.108598     0.107576     0.054728 

Vibrational entropy computed according to the QRRHO of S. Grimme
Chem.Eur.J. 2012 18 9955 using a reference frequency of 100.0 cm-1


-------
ENTROPY
-------

The entropy contributions are T*S = T*(S(el)+S(vib)+S(rot)+S(trans))
     S(el)   - electronic entropy
     S(vib)  - vibrational entropy
     S(rot)  - rotational entropy
     S(trans)- translational entropy
The entropies will be listed as multiplied by the temperature to get
units of energy

Electronic entropy                ...      0.00000000 Eh      0.00 kcal/mol
Vibrational entropy               ...      0.01415449 Eh      8.88 kcal/mol
Rotational entropy                ...      0.01298305 Eh      8.15 kcal/mol
Translational entropy             ...      0.01921987 Eh     12.06 kcal/mol
-----------------------------------------------------------------------
Final entropy term                ...      0.04635741 Eh     29.09 kcal/mol

In case the symmetry of your molecule has not been determined correctly
or in case you have a reason to use a different symmetry number we print 
out the resulting rotational entropy values for sn=1,12:

 non-linear molecules -----------------------------------
|  sn= 1 | S(rot)=       0.01298305 Eh      8.15 kcal/mol|
|  sn= 2 | S(rot)=       0.01232860 Eh      7.74 kcal/mol|
|  sn= 3 | S(rot)=       0.01194576 Eh      7.50 kcal/mol|
|  sn= 4 | S(rot)=       0.01167414 Eh      7.33 kcal/mol|
|  sn= 5 | S(rot)=       0.01146345 Eh      7.19 kcal/mol|
|  sn= 6 | S(rot)=       0.01129131 Eh      7.09 kcal/mol|
|  sn= 7 | S(rot)=       0.01114576 Eh      6.99 kcal/mol|
|  sn= 8 | S(rot)=       0.01101968 Eh      6.91 kcal/mol|
|  sn= 9 | S(rot)=       0.01090848 Eh      6.85 kcal/mol|
|  sn=10 | S(rot)=       0.01080900 Eh      6.78 kcal/mol|
|  sn=11 | S(rot)=       0.01071901 Eh      6.73 kcal/mol|
|  sn=12 | S(rot)=       0.01063685 Eh      6.67 kcal/mol|
 linear molecules ---------------------------------------
|  Dinfh | S(rot)=       0.00806901 Eh      5.06 kcal/mol|
|  Cinfv | S(rot)=       0.00872347 Eh      5.47 kcal/mol|
 --------------------------------------------------------


-------------------
GIBBS FREE ENERGY
-------------------

The Gibbs free energy is G = H - T*S

Total enthalpy                    ...  -1568.14237774 Eh 
Total entropy correction          ...     -0.04635741 Eh    -29.09 kcal/mol
-----------------------------------------------------------------------
Final Gibbs free energy         ...  -1568.18873516 Eh

For completeness - the Gibbs free energy minus the electronic energy
G-E(el)                           ...      0.06743669 Eh     42.32 kcal/mol


Maximum memory used throughout the entire PROP-calculation: 32.2 MB

--------------------------------
SUGGESTED CITATIONS FOR THIS RUN
--------------------------------

Below you find a list of papers that are relevant to this ORCA run
We neither can nor want to force you to cite these papers, but we appreciate if you do
You receive ORCA, which is the product of decades of hard work by many enthusiastic individuals, for free
The only thing we kindly ask in return is that you cite our papers,
We deeply appreciate it, if you show your appreciation for ORCA by not just citing the generic ORCA reference.

Please note that relegating all ORCA citations to the supporting information does *not* help us.
SI sections are not indexed - citations you put there will not count into any citation statistics
But we need these citations in order to attract the funding resources that allow us to do what we are doing

Therefore, if you are a happy ORCA user, please consider citing a few of the papers listed below in the main body of your paper

In addition to the list printed below, the program has created the file /users/s1155246974/li/fe2_singlet/fe2_singlet.bibtex that contains the list in bibtex format
You can import this file easily into all common literature databanks and citation aid programs


List of essential papers. We consider these as the minimum necessary citations

  1. Neese, F.
     Software update: the ORCA program system, version 6.0
     WIRES Comput. Molec. Sci. 2025 15(1), e70019
     doi.org/10.1002/wcms.7019

List of papers to cite with high priority. The work reported in these papers was absolutely
necessary for this run to complete.
Our perspective: the developers of density functionals and basis sets usually get cited in chemistry papers
Good! But without the algorithms to do something with them, the functionals or basis sets would not do anything.
Hence, in our opinion, the algorithm design and method developments papers are equally worthy of getting cited

  1. Neese, F.
     An improvement of the resolution of the identity approximation for the formation of the Coulomb matrix
     J. Comp. Chem. 2003 24(14), 1740-1747
     doi.org/10.1002/jcc.10318
  2. Neese, F.; Wennmohs, F.; Hansen, A.; Becker, U.
     Efficient, approximate and parallel Hartree-Fock and hybrid DFT calculations. A 'chain-of-spheres' algorithm for the Hartree-Fock exchange
     Chem. Phys. 2009 356(1-3), 98-109
     doi.org/10.1016/j.chemphys.2008.10.036
  3. Bykov, D.; Petrenko, T.; Izsak, R.; Kossmann, S.; Becker, U.; Valeev, E.; Neese, F.
     Efficient implementation of the analytic second derivatives of Hartree-Fock and hybrid DFT energies: a detailed analysis of different approximations
     Molec. Phys. 2015 113 , 1961-1977
     doi.org/10.1080/00268976.2015.1025114
  4. Helmich-Paris, B.; de Souza, B.; Neese, F.; Izsák, R.
     An improved chain of spheres for exchange algorithm
     J. Chem. Phys. 2021 155(10), 104109
     doi.org/10.1063/5.0058766
  5. Neese, F.
     The SHARK Integral Generation and Digestion System
     J. Comp. Chem. 2022 44(3), 381
     doi.org/10.1002/jcc.26942

List of suggested additional citations. These are papers that are important in the 'surrounding' of 
of this run, or papers that preceded the highly important papers. If you like your results we are grateful for a citation.

  1. Izsak, R.; Neese, F.
     An overlap fitted chain of spheres exchange method
     J. Chem. Phys. 2011 135 , 144105
     doi.org/10.1063/1.3646921
  2. Izsak, R.; Hansen, A.; Neese, F.
     The resolution of identity and chain of spheres approximations for the LPNO-CCSD singles Fock term
     Molec. Phys. 2012 110 , 2413-2417
     doi.org/10.1080/00268976.2012.687466
  3. Neese, F.
     The ORCA program system
     WIRES Comput. Molec. Sci. 2012 2(1), 73-78
     doi.org/10.1002/wcms.81
  4. Izsak, R.; Neese, F.; Klopper, W.
     Robust fitting techniques in the chain of spheres approximation to the Fock exchange: The role of the complementary space
     J. Chem. Phys. 2013 139 , 
     doi.org/10.1063/1.4819264
  5. Neese, F.
     Software update: the ORCA program system, version 4.0
     WIRES Comput. Molec. Sci. 2018 8(1), 1-6
     doi.org/10.1002/wcms.1327
  6. Neese, F.; Wennmohs, F.; Becker, U.; Riplinger, C.
     The ORCA quantum chemistry program package
     J. Chem. Phys. 2020 152(22), 224108
     doi.org/10.1063/5.0004608
  7. Neese, F.
     Software update: The ORCA program system—Version 5.0
     WIRES Comput. Molec. Sci. 2022 12(1), e1606
     doi.org/10.1002/wcms.1606

List of optional additional citations

  1. Neese, F.
     Approximate second-order SCF convergence for spin unrestricted wavefunctions
     Chem. Phys. Lett. 2000 325(1-3), 93-98
     doi.org/10.1016/s0009-2614(00)00662-x

Timings for individual modules:

Sum of individual times          ...     4266.207 sec (=  71.103 min)
Startup calculation              ...      535.009 sec (=   8.917 min)  12.5 %
SCF iterations                   ...     3268.777 sec (=  54.480 min)  76.6 %
Property integrals               ...      126.738 sec (=   2.112 min)   3.0 %
SCF Response                     ...       58.985 sec (=   0.983 min)   1.4 %
Property calculations            ...       19.809 sec (=   0.330 min)   0.5 %
SCF Gradient evaluation          ...      255.220 sec (=   4.254 min)   6.0 %
Geometry relaxation              ...        1.669 sec (=   0.028 min)   0.0 %
                             ****ORCA TERMINATED NORMALLY****
TOTAL RUN TIME: 0 days 1 hours 18 minutes 39 seconds 303 msec
