
                                 *****************
                                 * O   R   C   A *
                                 *****************

                                            #,                                       
                                            ###                                      
                                            ####                                     
                                            #####                                    
                                            ######                                   
                                           ########,                                 
                                     ,,################,,,,,                         
                               ,,#################################,,                 
                          ,,##########################################,,             
                       ,#########################################, ''#####,          
                    ,#############################################,,   '####,        
                  ,##################################################,,,,####,       
                ,###########''''           ''''###############################       
              ,#####''   ,,,,##########,,,,          '''####'''          '####       
            ,##' ,,,,###########################,,,                        '##       
           ' ,,###''''                  '''############,,,                           
         ,,##''                                '''############,,,,        ,,,,,,###''
      ,#''                                            '''#######################'''  
     '                                                          ''''####''''         
             ,#######,   #######,   ,#######,      ##                                
            ,#'     '#,  ##    ##  ,#'     '#,    #''#        ,####,    ,#,          
            ##       ##  ##   ,#'  ##            #'  '#       #'       ,# #          
            ##       ##  #######   ##           ,######,      #####,      #          
            '#,     ,#'  ##    ##  '#,     ,#' ,#      #,     #,   #      #          
             '#######'   ##     ##  '#######'  #'      '#     '####' #    #          



                #########################################################
                #                        -***-                          #
                #          Department of theory and spectroscopy        #
                #                                                       #
                #                      Frank Neese                      #
                #                                                       #
                #     Directorship, Architecture, Infrastructure        #
                #                    SHARK, DRIVERS                     #
                #        Core code/Algorithms in most modules           #
                #                                                       #
                #        Max Planck Institute fuer Kohlenforschung      #
                #                Kaiser Wilhelm Platz 1                 #
                #                 D-45470 Muelheim/Ruhr                 #
                #                      Germany                          #
                #                                                       #
                #                  All rights reserved                  #
                #                        -***-                          #
                #########################################################


                         Program Version 6.1.0  -  RELEASE   -
                                (GIT: $679e74b$)
                          ($2025-06-10 18:02:51 +0200$)


 With contributions from (in alphabetic order):
[Max-Planck-Institut fuer Kohlenforschung]                               
  Daniel Aravena         : Magnetic Suceptibility                        
  Michael Atanasov       : Ab Initio Ligand Field Theory (pilot matlab implementation)
  Alexander A. Auer      : GIAO ZORA, VPT2 properties, NMR spectrum      
  Ute Becker             : All parallelization in ORCA, NUMFREQ, NUMCALC 
  Giovanni Bistoni       : ED, misc. LED, open-shell LED, HFLD           
  Dmytro Bykov           : pre 5.0 version of the SCF Hessian            
  Marcos Casanova-Páez   : Triplet and SCS-CIS(D). UHF-(DLPNO)-IP/EA/STEOM-CCSD. UHF-CVS-IP/STEOM-CCSD   
  Vijay G. Chilkuri      : MRCI spin determinant printing, contributions to CSF-ICE 
  Pauline Colinet        : FMM embedding                                 
  Dipayan Datta          : RHF DLPNO-CCSD density                        
  Achintya Kumar Dutta   : EOM-CC, STEOM-CC                              
  Nicolas Foglia         : Exact transition moments, OPA infrastructure, MCD improvements    
  Dmitry Ganyushin       : Spin-Orbit,Spin-Spin,Magnetic field MRCI      
  Miquel Garcia-Rates    : C-PCM and meta-GGA Hessian, CCSD/C-PCM, Gaussian charge scheme 
  Tiago L. C. Gouveia    : GS-ROHF, GS-ROCIS                             
  Yang Guo               : DLPNO-NEVPT2, F12-NEVPT2, CIM, IAO-localization        
  Andreas Hansen         : Spin unrestricted coupled pair/coupled cluster methods 
  Ingolf Harden          : AUTO-CI MPn and infrastructure                
  Benjamin Helmich-Paris : MC-RPA, TRAH-(SCF,CASSCF), AVAS, COSX integrals, SCF dyn. polar., MC-PDFT, srDFT 
  Lee Huntington         : MR-EOM, pCC                                   
  Robert Izsak           : Overlap fitted RIJCOSX, COSX-SCS-MP3, EOM     
  Riya Kayal             : Wick's Theorem for AUTO-CI, AUTO-CI UHF-CCSDT 
  Emily Kempfer          : AUTO-CI RHF CISDT and CCSDT, approximate NEVPT4
  Christian Kollmar      : KDIIS, OOCD, Brueckner-CCSD(T), CCSD density, CASPT2, CASPT2-K, improved NEVPT2 
  Axel Koslowski         : Symmetry handling                             
  Simone Kossmann        : meta-GGA functionals, TD-DFT gradient, OOMP2, (MP2 Hessian; deprecated post 5.0) 
  Lucas Lang             : DCDCAS, Hyperfine gauge corrections, ICE-SOC+SSC
  Marvin Lechner         : AUTO-CI (C++ implementation), FIC-MRCC        
  Spencer Leger          : CASSCF response                               
  Dagmar Lenk            : GEPOL surface, SMD, ORCA-2-JSON               
  Dimitrios Liakos       : Extrapolation schemes; Compound Job, Property file
  Dimitrios Manganas     : Further ROCIS development; embedding schemes. LFT, Crystal Embedding 
  Dimitrios Pantazis     : SARC Basis sets                               
  Anastasios Papadopoulos: AUTO-CI, single reference methods and gradients 
  Taras Petrenko         : pre 6.0 DFT Hessian and TD-DFT gradient,  ECA, NRVS 
  Petra Pikulova         : Analytic Raman intensities                    
  Peter Pinski           : DLPNO-MP2, DLPNO-MP2 Gradient                 
  Shashank Vittal Rao    : ES-AILFT, MagRelax                            
  Christoph Reimann      : Effective Core Potentials                     
  Marius Retegan         : Local ZFS, SOC                                
  Christoph Riplinger    : Optimizer, TS searches, QM/MM, DLPNO-CCSD(T), (RO)-DLPNO pert. Triples 
  Michael Roemelt        : Original ROCIS implementation, recursive CI coupling coefficients
  Masaaki Saitow         : Open-shell DLPNO-CCSD energy and density      
  Barbara Sandhoefer     : DKH picture change effects                    
  Yorick L. A. Schmerwitz: GMF and freeze-and-release deltaSCF, NEB S-IDPP initial path                    
  Kantharuban Sivalingam : CASSCF convergence/infrastructure, NEVPT2, NEVPT3, NEVPT4(SD), FIC-MRCI and CEPA variants
  Bernardo de Souza      : ESD, SOC TD-DFT                               
  Georgi L. Stoychev     : AutoAux, RI-MP2 NMR, DLPNO-MP2 response, X2C  
  Van Anh Tran           : RI-MP2 g-tensors                              
  Willem Van den Heuvel  : Paramagnetic NMR                              
  Zikuan Wang            : NOTCH, Electric field optimization            
  Frank Wennmohs         : Technical directorship and infrastructure     
  Hang Xu                : AUTO-CI-Response properties                   
                                                                         
[FACCTs GmbH]                                                            
  Markus Bursch, Nicolas Foglia, Miquel Garcia-Rates, Ingolf Harden, Hagen Neugebauer, Anastasios Papadopoulos, 
  Christoph Riplinger, Bernardo de Souza, Georgi L. Stoychev                                                    
                                                                 
  APM, various basis sets, CI-OPT, improved COSX, DLPNO-Multilevel,           
  DOCKER, DRACO, updates on ESD, Fragmentator, GOAT, IRC, LR-CPCM, L-BFGS, MBIS, meta-GGA TD-DFT gradient, ML-optimized integration grids, 
  MM, NACMEs, nearIR, NEB, NEB-TS, NL-DFT gradient (VV10), 2- and 3-layer-ONIOM, interface openCOSMO-RS, QMMM,   
  Crystal-QMMM, RESP, rigid body optimization, SF, symmetry and pop. for TD-DFT, various functionals, SOLVATOR                                   
                                                                         
[Other institutions]                                                     
  V. Asgeirsson          : NEB                                           
  Christoph Bannwarth    : sTDA-DFT, sTD-DFT, PBEh-3c, B97-3c, D3        
  Giovanni Bistoni       : ETS/NOCV, ADLD/ADEX, COVALED                  
  Martin Brehm           : Molecular dynamics                            
  Ronald Cardenas        : ETS/NOCV                                      
  Martina Colucci        : COVALED                                       
  Sebastian Ehlert       : rSCAN, r2SCAN, r2SCAN-3c, D4, dhf basis sets  
  Marvin Friede          : D4 for Fr, Ra, Ac-Lr                          
  Lars Goerigk           : TD-DFT with DH, B97 family of functionals     
  Stefan Grimme          : VdW corrections, initial TS optimization, DFT functionals, gCP, sTDA/sTD-DF 
  Waldemar Hujo          : DFT-NL                                        
  H. Jonsson             : NEB                                           
  Holger Kruse           : gCP                                           
  Marcel Mueller         : wB97X-3c, vDZP basis set                      
  Hagen Neugebauer       : wr2SCAN, Native XTB                           
  Gianluca Regni         : ADLD/ADEX                                     
  Tobias Risthaus        : pre 6.0 range-separated hybrid DFT and stability analysis
  Lukas Wittmann         : regularized MP2, r2SCAN double-hybrids, wr2SCAN        
                                                                         
We gratefully acknowledge several colleagues who have allowed us to      
interface, adapt or use parts of their codes:                            
  Ed Valeev, F. Pavosevic, A. Kumar             : LibInt (2-el integral package), F12 methods 
  Garnet Chan, S. Sharma, J. Yang, R. Olivares  : DMRG                   
  Ulf Ekstrom                                   : XCFun DFT Library      
  Mihaly Kallay                                 : mrcc  (arbitrary order and MRCC methods)
  Frank Weinhold                                : gennbo (NPA and NBO analysis)           
  Simon Mueller                                 : openCOSMO-RS                            
  Christopher J. Cramer and Donald G. Truhlar   : smd solvation model                     
  S Lehtola, MJT Oliveira, MAL Marques          : LibXC Library                           
  Liviu Ungur et al                             : ANISO software                          


 Your calculation uses the libint2 library for the computation of 2-el integrals
 For citations please refer to: http://libint.valeyev.net

 Your ORCA version has been built with support for libXC version: 7.0.0
 For citations please refer to: https://libxc.gitlab.io

 This ORCA versions uses:
   CBLAS   interface :  Fast vector & matrix operations
   LAPACKE interface :  Fast linear algebra routines
   SCALAPACK package :  Parallel linear algebra routines
   Shared memory     :  Shared parallel matrices
   BLAS/LAPACK       :  OpenBLAS 0.3.29  USE64BITINT DYNAMIC_ARCH NO_AFFINITY Cooperlake SINGLE_THREADED
        Core in use  :  Cooperlake
   Copyright (c) 2011-2014, The OpenBLAS Project


  ***********************************
  * Starting time: Fri Nov 28 16:48:48 2025
  * Host name:     chpc-cn078.rc.cuhk.edu.hk
  * Process ID:    2182917
  * Working dir.:  /lustre/scratch/xlzhang/zihan/fe2_quintet
  ***********************************

NOTE: MaxCore=2109 MB was set to SCF,MP2,MDCI,CIPSI,MRCI,RASCI and CIS
      => If you want to overwrite this, your respective input block should be placed after the MaxCore statement
XCFun DFT library Copyright 2009-2010 Ulf Ekstrom and contributors.
See http://admol.org/xcfun for more information.
This is free software; see the source code for copying conditions.
There is ABSOLUTELY NO WARRANTY; not even for MERCHANTABILITY or FITNESS FOR A PARTICULAR PURPOSE.
For details see the documentation.
Scientific users of this library should cite U. Ekstrom, L. Visscher, R. Bast, A. J. Thorvaldsen and K. Ruud;
J.Chem.Theor.Comp. 2010, DOI: 10.1021/ct100117s
XCFun Version 0.99 

Warning: RI is on but no J-basis has been assigned. Assigning Def2/J (nothing to worry about!)
================================================================================

----- Orbital basis set information -----
Your calculation utilizes the basis: def2-SVP
   F. Weigend and R. Ahlrichs, Phys. Chem. Chem. Phys. 7, 3297 (2005).

----- AuxJ basis set information -----
Your calculation utilizes the auxiliary basis: def2/J
   H-Rn: F. Weigend, Phys. Chem. Chem. Phys. 8, 1057 (2006).
   Fr-Lr: K. Eichkorn, F. Weigend, O. Treutler, R. Ahlrichs; Theor. Chem. Acc. 97, 119 (1997).

================================================================================
                                        WARNINGS
                       Please study these warnings very carefully!
================================================================================


WARNING: your system is open-shell and RHF/RKS was chosen
  ===> : WILL SWITCH to UHF/UKS

WARNING: Functional chosen is sensitive to the integration grid.
         DEFGRID3 seems to be a minimum grid for robust results!

WARNING: Geometry Optimization
  ===> : Switching off AutoStart
         For restart on a previous wavefunction, please use MOREAD

================================================================================
                                       INPUT FILE
================================================================================
NAME = /users/s1155246974/li/fe2_quintet/fe2_quintet.inp
|  1> ! Opt Freq M062X def2-SVP defgrid2
|  2> # Number of processors
|  3> %pal nprocs 64 end
|  4> # Memory per core
|  5> %maxcore 2109
|  6> * xyz 2 5
|  7> Fe      -2.1311475900   -0.9394703500    0.0000000000
|  8> O       -2.1311475900    0.8805296500    0.0000000000
|  9> H       -1.6783051600    1.2005296500    0.7836668500
| 10> O       -3.9511475900   -0.9394703500    0.0000000000
| 11> H       -4.2711475900   -1.6929644800   -0.5014445000
| 12> O       -2.1311475900   -2.7594703500    0.0000000000
| 13> H       -1.3001591600   -3.2394703500   -0.0256561100
| 14> O       -0.3111475900   -0.9394703500    0.0000000000
| 15> H        0.1688524100   -0.8543234600   -0.8270127000
| 16> H       -2.9621360100   -3.2394703500    0.0256561100
| 17> H       -4.2711475900   -0.1284596100   -0.4018228100
| 18> H        0.1688524100   -1.0246172500    0.8270127000
| 19> H       -1.6788934000    1.2005296500   -0.7840064700
| 20> *
| 21> 
| 22>                          ****END OF INPUT****
================================================================================

                       *****************************
                       * Geometry Optimization Run *
                       *****************************

Geometry optimization settings:
Update method            Update   .... BFGS
Choice of coordinates    CoordSys .... (2022) Redundant Internals
Initial Hessian          InHess   .... Almloef's Model
Max. no of cycles        MaxIter  .... 50

Convergence Tolerances:
Energy Change            TolE     ....  5.0000e-06 Eh
Max. Gradient            TolMAXG  ....  3.0000e-04 Eh/bohr
RMS Gradient             TolRMSG  ....  1.0000e-04 Eh/bohr
Max. Displacement        TolMAXD  ....  4.0000e-03 bohr
RMS Displacement         TolRMSD  ....  2.0000e-03 bohr
Strict Convergence                .... False

------------------------------------------------------------------------------
                        ORCA OPTIMIZATION COORDINATE SETUP
------------------------------------------------------------------------------

The optimization will be done in redundant internal coordinates (2022)
Making redundant internal coordinates   ...  (2022 redundants) done
Evaluating the initial hessian          ...  (Almloef) done
Evaluating the coordinates              ...  done
Calculating the B-matrix                .... done
Calculating the G-matrix                .... done
The number of degrees of freedom        ....   52

    -----------------------------------------------------------------
                    Redundant Internal Coordinates


    -----------------------------------------------------------------
         Definition                    Initial Value    Approx d2E/dq
    -----------------------------------------------------------------
      1. B(O   1,Fe  0)                  1.8200         1.166709   
      2. B(H   2,O   1)                  0.9600         0.519956   
      3. B(O   3,Fe  0)                  1.8200         1.166709   
      4. B(H   4,O   3)                  0.9600         0.519956   
      5. B(O   5,Fe  0)                  1.8200         1.166709   
      6. B(H   6,O   5)                  0.9600         0.519956   
      7. B(O   7,Fe  0)                  1.8200         1.166709   
      8. B(H   8,O   7)                  0.9600         0.519956   
      9. B(H   9,O   5)                  0.9600         0.519956   
     10. B(H  10,O   3)                  0.9600         0.519956   
     11. B(H  11,O   7)                  0.9600         0.519956   
     12. B(H  12,O   1)                  0.9600         0.519956   
     13. A(O   1,Fe  0,O   3)           90.0000         0.694653   
     14. A(O   5,Fe  0,O   7)           90.0000         0.694653   
     15. A(O   1,Fe  0,O   7)           90.0000         0.694653   
     16. A(O   3,Fe  0,O   5)           90.0000         0.694653   
     17. A(Fe  0,O   1,H  12)          109.4712         0.464522   
     18. A(H   2,O   1,H  12)          109.4712         0.321834   
     19. A(Fe  0,O   1,H   2)          109.4712         0.464522   
     20. A(H   4,O   3,H  10)          109.4712         0.321834   
     21. A(Fe  0,O   3,H   4)          109.4712         0.464522   
     22. A(Fe  0,O   3,H  10)          109.4712         0.464522   
     23. A(H   6,O   5,H   9)          120.0000         0.321834   
     24. A(Fe  0,O   5,H   6)          120.0000         0.464522   
     25. A(Fe  0,O   5,H   9)          120.0000         0.464522   
     26. A(H   8,O   7,H  11)          120.0000         0.321834   
     27. A(Fe  0,O   7,H  11)          120.0000         0.464522   
     28. A(Fe  0,O   7,H   8)          120.0000         0.464522   
     29. D(H  12,O   1,Fe  0,O   3)   -119.9785         0.010000   
     30. D(H  12,O   1,Fe  0,O   7)     60.0215         0.010000   
     31. D(H   2,O   1,Fe  0,O   3)    120.0215         0.010000   
     32. D(H   2,O   1,Fe  0,O   7)    -59.9785         0.010000   
     33. D(H   4,O   3,Fe  0,O   5)    -33.6435         0.010000   
     34. D(H   4,O   3,Fe  0,O   1)    146.3565         0.010000   
     35. D(H  10,O   3,Fe  0,O   1)     26.3565         0.010000   
     36. D(H  10,O   3,Fe  0,O   5)   -153.6435         0.010000   
     37. D(H   6,O   5,O   1,H  12)     58.2531         0.010000   
     38. D(H   6,O   5,O   1,H   2)    -61.7469         0.010000   
     39. D(H   9,O   5,Fe  0,O   7)    178.2316         0.010000   
     40. D(H   9,O   5,Fe  0,O   3)     -1.7684         0.010000   
     41. D(H   6,O   5,Fe  0,O   7)     -1.7684         0.010000   
     42. D(H   9,O   5,O   1,H   2)    118.2531         0.010000   
     43. D(H   6,O   5,Fe  0,O   3)    178.2316         0.010000   
     44. D(H   9,O   5,O   1,H  12)   -121.7469         0.010000   
     45. D(H  11,O   7,O   3,H  10)    122.2348         0.010000   
     46. D(H   8,O   7,O   3,H  10)    -57.7652         0.010000   
     47. D(H   8,O   7,O   3,H   4)     62.2348         0.010000   
     48. D(H  11,O   7,Fe  0,O   5)    -84.1217         0.010000   
     49. D(H  11,O   7,Fe  0,O   1)     95.8783         0.010000   
     50. D(H  11,O   7,O   3,H   4)   -117.7652         0.010000   
     51. D(H   8,O   7,Fe  0,O   5)     95.8783         0.010000   
     52. D(H   8,O   7,Fe  0,O   1)    -84.1217         0.010000   
    -----------------------------------------------------------------

Number of atoms                         .... 13
Number of degrees of freedom            .... 52


         *************************************************************
         *                GEOMETRY OPTIMIZATION CYCLE   1            *
         *************************************************************
---------------------------------
CARTESIAN COORDINATES (ANGSTROEM)
---------------------------------
  Fe    -2.131148   -0.939470    0.000000
  O     -2.131148    0.880530    0.000000
  H     -1.678305    1.200530    0.783667
  O     -3.951148   -0.939470    0.000000
  H     -4.271148   -1.692964   -0.501444
  O     -2.131148   -2.759470    0.000000
  H     -1.300159   -3.239470   -0.025656
  O     -0.311148   -0.939470    0.000000
  H      0.168852   -0.854323   -0.827013
  H     -2.962136   -3.239470    0.025656
  H     -4.271148   -0.128460   -0.401823
  H      0.168852   -1.024617    0.827013
  H     -1.678893    1.200530   -0.784006

----------------------------
CARTESIAN COORDINATES (A.U.)
----------------------------
  NO LB      ZA    FRAG     MASS         X           Y           Z
   0 Fe   26.0000    0    55.850   -4.027285   -1.775342    0.000000
   1 O     8.0000    0    15.999   -4.027285    1.663960    0.000000
   2 H     1.0000    0     1.008   -3.171537    2.268672    1.480916
   3 O     8.0000    0    15.999   -7.466587   -1.775342    0.000000
   4 H     1.0000    0     1.008   -8.071299   -3.199239   -0.947593
   5 O     8.0000    0    15.999   -4.027285   -5.214643    0.000000
   6 H     1.0000    0     1.008   -2.456945   -6.121712   -0.048483
   7 O     8.0000    0    15.999   -0.587984   -1.775342    0.000000
   8 H     1.0000    0     1.008    0.319085   -1.614437   -1.562828
   9 H     1.0000    0     1.008   -5.597626   -6.121712    0.048483
  10 H     1.0000    0     1.008   -8.071299   -0.242753   -0.759335
  11 H     1.0000    0     1.008    0.319085   -1.936246    1.562828
  12 H     1.0000    0     1.008   -3.172649    2.268672   -1.481558

--------------------------------
INTERNAL COORDINATES (ANGSTROEM)
--------------------------------
 Fe     0   0   0     0.000000000000     0.00000000     0.00000000
 O      1   0   0     1.820000000000     0.00000000     0.00000000
 H      2   1   0     0.959999999061   109.47122065     0.00000000
 O      1   2   3     1.820000000000    90.00000000   120.02149934
 H      4   1   2     0.959999995065   109.47122074   146.35654271
 O      1   2   3     1.820000000000   180.00000000     0.00000000
 H      6   1   2     0.960000003528   119.99999988     0.00000000
 O      1   2   3     1.820000000000    90.00000000   300.02149934
 H      8   1   2     0.959999999395   120.00000002   275.87829955
 H      6   1   8     0.959999994872   120.00000018   178.23159989
 H      4   1   2     0.959999995329   109.47122073    26.35654283
 H      8   1   2     0.960000000282   119.99999999    95.87830024
 H      2   1   3     0.959999998633   109.47122066   119.99999963

---------------------------
INTERNAL COORDINATES (A.U.)
---------------------------
 Fe     0   0   0     0.000000000000     0.00000000     0.00000000
 O      1   0   0     3.439301563737     0.00000000     0.00000000
 H      2   1   0     1.814137086790   109.47122065     0.00000000
 O      1   2   3     3.439301563737    90.00000000   120.02149934
 H      4   1   2     1.814137079239   109.47122074   146.35654271
 O      1   2   3     3.439301563737   180.00000000     0.00000000
 H      6   1   2     1.814137095232   119.99999988     0.00000000
 O      1   2   3     3.439301563737    90.00000000   300.02149934
 H      8   1   2     1.814137087421   120.00000002   275.87829955
 H      6   1   8     1.814137078874   120.00000018   178.23159989
 H      4   1   2     1.814137079737   109.47122073    26.35654283
 H      8   1   2     1.814137089097   119.99999999    95.87830024
 H      2   1   3     1.814137085980   109.47122066   119.99999963

---------------------
BASIS SET INFORMATION
---------------------
There are 3 groups of distinct atoms

 Group   1 Type Fe  : 14s9p5d1f contracted to 5s3p2d1f pattern {63311/531/41/1}
 Group   2 Type O   : 7s4p1d contracted to 3s2p1d pattern {511/31/1}
 Group   3 Type H   : 4s1p contracted to 2s1p pattern {31/1}

Atom   0Fe   basis set group =>   1
Atom   1O    basis set group =>   2
Atom   2H    basis set group =>   3
Atom   3O    basis set group =>   2
Atom   4H    basis set group =>   3
Atom   5O    basis set group =>   2
Atom   6H    basis set group =>   3
Atom   7O    basis set group =>   2
Atom   8H    basis set group =>   3
Atom   9H    basis set group =>   3
Atom  10H    basis set group =>   3
Atom  11H    basis set group =>   3
Atom  12H    basis set group =>   3
---------------------------------
AUXILIARY/J BASIS SET INFORMATION
---------------------------------
There are 3 groups of distinct atoms

 Group   1 Type Fe  : 19s5p5d3f3g contracted to 8s5p5d2f3g pattern {121111111/11111/11111/21/111}
 Group   2 Type O   : 12s5p4d2f1g contracted to 6s4p3d1f1g pattern {711111/2111/211/2/1}
 Group   3 Type H   : 5s2p1d contracted to 3s1p1d pattern {311/2/1}

Atom   0Fe   basis set group =>   1
Atom   1O    basis set group =>   2
Atom   2H    basis set group =>   3
Atom   3O    basis set group =>   2
Atom   4H    basis set group =>   3
Atom   5O    basis set group =>   2
Atom   6H    basis set group =>   3
Atom   7O    basis set group =>   2
Atom   8H    basis set group =>   3
Atom   9H    basis set group =>   3
Atom  10H    basis set group =>   3
Atom  11H    basis set group =>   3
Atom  12H    basis set group =>   3


           ************************************************************
           *        Program running with 64 parallel MPI-processes    *
           *              working on a common directory               *
           ************************************************************
------------------------------------------------------------------------------
                             ORCA STARTUP CALCULATIONS
                           -- RI-GTO INTEGRALS CHOSEN --
------------------------------------------------------------------------------
------------------------------------------------------------------------------
                   ___                                                        
                  /   \      - P O W E R E D   B Y -                         
                 /     \                                                     
                 |  |  |   _    _      __       _____    __    __             
                 |  |  |  | |  | |    /  \     |  _  \  |  |  /  |          
                  \  \/   | |  | |   /    \    | | | |  |  | /  /          
                 / \  \   | |__| |  /  /\  \   | |_| |  |  |/  /          
                |  |  |   |  __  | /  /__\  \  |    /   |      \           
                |  |  |   | |  | | |   __   |  |    \   |  |\   \          
                \     /   | |  | | |  |  |  |  | |\  \  |  | \   \       
                 \___/    |_|  |_| |__|  |__|  |_| \__\ |__|  \__/        
                                                                              
                      - O R C A' S   B I G   F R I E N D -                    
                                      &                                       
                       - I N T E G R A L  F E E D E R -                       
                                                                              
 v1 FN, 2020, v2 2021, v3 2022-2024                                           
------------------------------------------------------------------------------


----------------------
SHARK INTEGRAL PACKAGE
----------------------

Number of atoms                             ...     13
Number of basis functions                   ...    127
Number of shells                            ...     59
Maximum angular momentum                    ...      3
Integral batch strategy                     ... SHARK/LIBINT Hybrid
RI-J (if used) integral strategy            ... SPLIT-RIJ (Revised 2003 algorithm where possible)
Printlevel                                  ...      1
Contraction scheme used                     ... SEGMENTED contraction
Prescreening option                         ... SCHWARTZ
   Thresh                                   ... 2.500e-11
   Tcut                                     ... 2.500e-12
   Tpresel                                  ... 2.500e-12 
Coulomb Range Separation                    ... NOT USED
Exchange Range Separation                   ... NOT USED
Multipole approximations                    ... NOT USED
Finite Nucleus Model                        ... NOT USED
CABS basis                                  ... NOT available
Auxiliary Coulomb fitting basis             ... AVAILABLE
   # of basis functions in Aux-J            ...    373
   # of shells in Aux-J                     ...    123
   Maximum angular momentum in Aux-J        ...      4
Auxiliary J/K fitting basis                 ... NOT available
Auxiliary Correlation fitting basis         ... NOT available
Auxiliary 'external' fitting basis          ... NOT available

Checking pre-screening integrals            ... done (  0.0 sec) Dimension = 59
   => SHARK Basis and OBASIS are compatible. Storing Pre-screening
Shell pair information
Shell pair cut-off parameter TPreSel        ...   2.5e-12
Total number of shell pairs                 ...      1770
Shell pairs after pre-screening             ...      1720
Total number of primitive shell pairs       ...      7019
Primitive shell pairs kept                  ...      5099
          la=0 lb=0:    539 shell pairs
          la=1 lb=0:    607 shell pairs
          la=1 lb=1:    186 shell pairs
          la=2 lb=0:    194 shell pairs
          la=2 lb=1:    114 shell pairs
          la=2 lb=2:     21 shell pairs
          la=3 lb=0:     33 shell pairs
          la=3 lb=1:     19 shell pairs
          la=3 lb=2:      6 shell pairs
          la=3 lb=3:      1 shell pairs

Checking whether 4 symmetric matrices of dimension 127 fit in memory
:Max Core in MB      =   2109.00
 MB in use           =      5.62
 MB left             =   2103.38
 MB needed           =      0.25
 Data fit in memory  = YES
Calculating RI/J V-Matrix + Cholesky decomp.... done (  0.2 sec)
Calculating Nuclear repulsion               ... done (  0.0 sec) ENN=    430.839247573102 Eh

Diagonalization of the overlap matrix:
Smallest eigenvalue                        ... 1.524e-02
Time for diagonalization                   ...    0.004 sec
Threshold for overlap eigenvalues          ... 1.000e-07
Number of eigenvalues below threshold      ... 0
Time for construction of square roots      ...    0.189 sec
Total time needed                          ...    0.207 sec

-------------------
DFT GRID GENERATION
-------------------

General Integration Accuracy     IntAcc      ... 4.388
Radial Grid Type                 RadialGrid  ... OptM3 with GC (2021)
Angular Grid (max. ang.)         AngularGrid ... 4 (Lebedev-302)
Angular grid pruning method      GridPruning ... 4 (adaptive)
Weight generation scheme         WeightScheme... mBecke (2022)
Basis function cutoff            BFCut       ... 1.0000e-11
Integration weight cutoff        WCut        ... 1.0000e-14
Partially contracted basis set               ... off
Rotationally invariant grid construction     ... off
Angular grids for H and He will be reduced by one unit
Core-polarized basis detected: some atoms will have their core
                               angular grid increased.

Total number of grid points                  ...    61293
Total number of batches                      ...      963
Average number of points per batch           ...       63
Average number of grid points per atom       ...     4715

--------------------
COSX GRID GENERATION
--------------------

GRIDX 1
-------
General Integration Accuracy     IntAcc      ... 3.816
Radial Grid Type                 RadialGrid  ... OptM3 with GC (2021)
Angular Grid (max. ang.)         AngularGrid ... 1 (Lebedev-50)
Angular grid pruning method      GridPruning ... 4 (adaptive)
Weight generation scheme         WeightScheme... mBecke (2022)
Basis function cutoff            BFCut       ... 1.0000e-11
Integration weight cutoff        WCut        ... 1.0000e-14
Partially contracted basis set               ... on
Rotationally invariant grid construction     ... off
Angular grids for H and He will be reduced by one unit
Core-polarized basis detected: some atoms will have their core
                               angular grid increased.

Total number of grid points                  ...    12269
Total number of batches                      ...      101
Average number of points per batch           ...      121
Average number of grid points per atom       ...      944
UseSFitting                                  ... on

GRIDX 2
-------
General Integration Accuracy     IntAcc      ... 4.020
Radial Grid Type                 RadialGrid  ... OptM3 with GC (2021)
Angular Grid (max. ang.)         AngularGrid ... 2 (Lebedev-110)
Angular grid pruning method      GridPruning ... 4 (adaptive)
Weight generation scheme         WeightScheme... mBecke (2022)
Basis function cutoff            BFCut       ... 1.0000e-11
Integration weight cutoff        WCut        ... 1.0000e-14
Partially contracted basis set               ... on
Rotationally invariant grid construction     ... off
Angular grids for H and He will be reduced by one unit
Core-polarized basis detected: some atoms will have their core
                               angular grid increased.

Total number of grid points                  ...    19358
Total number of batches                      ...      159
Average number of points per batch           ...      121
Average number of grid points per atom       ...     1489
UseSFitting                                  ... on

GRIDX 3
-------
General Integration Accuracy     IntAcc      ... 4.338
Radial Grid Type                 RadialGrid  ... OptM3 with GC (2021)
Angular Grid (max. ang.)         AngularGrid ... 3 (Lebedev-194)
Angular grid pruning method      GridPruning ... 4 (adaptive)
Weight generation scheme         WeightScheme... mBecke (2022)
Basis function cutoff            BFCut       ... 1.0000e-11
Integration weight cutoff        WCut        ... 1.0000e-14
Partially contracted basis set               ... on
Rotationally invariant grid construction     ... off
Angular grids for H and He will be reduced by one unit
Core-polarized basis detected: some atoms will have their core
                               angular grid increased.

Total number of grid points                  ...    35546
Total number of batches                      ...      285
Average number of points per batch           ...      124
Average number of grid points per atom       ...     2734
UseSFitting                                  ... on
Grids setup in   1.0 sec
Initializing property integral containers    ... done (  0.1 sec)

SHARK setup successfully completed in   2.1 seconds

Maximum memory used throughout the entire STARTUP-calculation: 17.9 MB


           ************************************************************
           *        Program running with 64 parallel MPI-processes    *
           *              working on a common directory               *
           ************************************************************
-------------------------------------------------------------------------------
                                 ORCA GUESS
                   Start orbitals & Density for SCF / CASSCF
-------------------------------------------------------------------------------

------------
SCF SETTINGS
------------
Hamiltonian:
 Density Functional     Method          .... DFT(GTOs)
 Exchange Functional    Exchange        .... M062X
 Correlation Functional Correlation     .... M062X
 Gradients option       PostSCFGGA      .... off
 Hybrid DFT is turned on
   Fraction HF Exchange ScalHFX         ....  0.540000
   Scaling of DF-GGA-X  ScalDFX         ....  0.460000
   Scaling of DF-GGA-C  ScalDFC         ....  1.000000
   Scaling of DF-LDA-C  ScalLDAC        ....  1.000000
   Perturbative correction              ....  0.000000
 RI-approximation to the Coulomb term is turned on
   Number of AuxJ basis functions       .... 373
   RIJ-COSX (HFX calculated with COS-X)).... on


General Settings:
 Integral files         IntName         .... /users/s1155246974/li/fe2_quintet/fe2_quintet
 Hartree-Fock type      HFTyp           .... UHF
 Total Charge           Charge          ....    2
 Multiplicity           Mult            ....    5
 Number of Electrons    NEL             ....   64
 Basis Dimension        Dim             ....  127
 Nuclear Repulsion      ENuc            ....    430.8392475731 Eh

Convergence Acceleration:
 AO-DIIS                CNVDIIS         .... on
   Start iteration      DIISMaxIt       ....    12
   Startup error        DIISStart       ....  0.200000
   # of expansion vecs  DIISMaxEq       ....     5
   Bias factor          DIISBfac        ....   1.050
   Max. coefficient     DIISMaxC        ....  10.000
 MO-DIIS                CNVKDIIS        .... off
 Trust-Rad. Augm. Hess. CNVTRAH         .... auto
   Auto Start mean grad. ratio tolernc. ....  1.125000
   Auto Start start iteration           ....    50
   Auto Start num. interpolation iter.  ....    10
   Max. Number of Micro iterations      ....    24
   Max. Number of Macro iterations      .... Maxiter - #DIIS iter
   Number of Davidson start vectors     ....     2
   Converg. threshold    (grad. norm)   ....   1.000e-05
   Grad. Scal. Fac. for Micro threshold ....   0.100
   Minimum threshold for Micro iter.    ....   1.000e-02
   NR start threshold (gradient norm)   ....   1.000e-04
   Initial trust radius                 ....   0.400
   Minimum AH scaling param. (alpha)    ....   1.000
   Maximum AH scaling param. (alpha)    .... 1000.000
   Quad. conv. algorithm                .... NR
   White noise on init. David. guess    .... on
   Maximum white noise                  ....   0.010
   Pseudo random numbers                .... off
   Inactive MOs                         .... canonical
   Orbital update algorithm             .... Taylor
   Preconditioner                       .... Diag
   Full preconditioner red. dimension   ....   250
 SOSCF                 CNVSOSCF           .... on
   Start iteration     SOSCFMaxIt         ....   150
   Startup grad/error  SOSCFStart         ....  0.003300
   Hessian update      SOSCFHessUp        .... L-BFGS
   Autom. constraints  SOSCFAutoConstrain .... off
 Level Shifting         CNVShift        .... on
   Level shift para.    LevelShift      ....    0.2500
   Turn off err/grad.   ShiftErr        ....    0.0010
 Zerner damping         CNVZerner       .... off
 Static damping         CNVDamp         .... on
   Fraction old density DampFac         ....    0.7000
   Max. Damping (<1)    DampMax         ....    0.9800
   Min. Damping (>=0)   DampMin         ....    0.0000
   Turn off err/grad.   DampErr         ....    0.1000

SCF Procedure:
 Maximum # iterations   MaxIter         ....   125
 SCF integral mode      SCFMode         .... Direct
   Integral package                     .... SHARK and LIBINT hybrid scheme
 Reset frequency        DirectResetFreq ....    20
 Integral Threshold     Thresh          ....  2.500e-11 Eh
 Primitive CutOff       TCut            ....  2.500e-12 Eh

Convergence Tolerance:
 Convergence Check Mode ConvCheckMode   .... Total+1el-Energy
 Convergence forced     ConvForced      .... 0
 Energy Change          TolE            ....  1.000e-08 Eh
 1-El. energy change                    ....  1.000e-05 Eh
 Orbital Gradient       TolG            ....  1.000e-05
 Orbital Rotation angle TolX            ....  1.000e-05
 DIIS Error             TolErr          ....  5.000e-07

------------------------------
INITIAL GUESS: MODEL POTENTIAL
------------------------------
Loading Hartree-Fock densities                     ... done
Calculating cut-offs                               ... done
Initializing the effective Hamiltonian             ... done
Setting up the integral package (SHARK)            ... done
Starting the Coulomb interaction                   ... done (   0.1 sec)
Making the grid                                    ... done (   0.1 sec)
Mapping shells                                     ... done
Starting the XC term evaluation                    ... done (   0.0 sec)
  promolecular density results
     # of electrons  =     65.998544033
     EX              =    -89.331163655
     EC              =     -2.503922825
     EX+EC           =    -91.835086480
Transforming the Hamiltonian                       ... done (   0.0 sec)
Diagonalizing the Hamiltonian                      ... done (   0.0 sec)
Back transforming the eigenvectors                 ... done (   0.1 sec)
Now organizing SCF variables                       ... done
                      ------------------
                      INITIAL GUESS DONE (   0.5 sec)
                      ------------------
             **** ENERGY FILE WAS UPDATED (/users/s1155246974/li/fe2_quintet/fe2_quintet.en.tmp) ****
Finished Guess after   2.3 sec
Maximum memory used throughout the entire GUESS-calculation: 9.2 MB


           ************************************************************
           *        Program running with 64 parallel MPI-processes    *
           *              working on a common directory               *
           ************************************************************

-------------------------------------------------------------------------------------------
                                      ORCA LEAN-SCF
                              memory conserving SCF solver
-------------------------------------------------------------------------------------------

----------------------------------------D-I-I-S--------------------------------------------
Iteration    Energy (Eh)           Delta-E    RMSDP     MaxDP     DIISErr   Damp  Time(sec)
-------------------------------------------------------------------------------------------
               ***  Starting incremental Fock matrix formation  ***
    1    -1567.9902800117515653     0.00e+00  1.87e-02  3.17e-02  1.20e-01  0.700   1.2
    2    -1568.0920036429131414    -1.02e-01  1.15e-02  1.92e-02  6.12e-02  0.700   0.9
                               ***Turning on AO-DIIS***
    3    -1568.1370207884119736    -4.50e-02  4.73e-03  1.53e-02  3.01e-02  0.700   0.5
    4    -1568.1655819414627331    -2.86e-02  1.21e-02  4.12e-02  2.48e-02  0.000   0.5
    5    -1568.2327307500991083    -6.71e-02  2.98e-03  1.24e-02  8.37e-03  0.000   0.6
    6    -1568.2337632049404874    -1.03e-03  1.98e-03  1.23e-02  8.25e-03  0.000   0.8
    7    -1568.2342915648334838    -5.28e-04  1.77e-03  1.12e-02  8.11e-03  0.000   0.6
    8    -1568.2347262830523960    -4.35e-04  1.69e-03  1.11e-02  7.98e-03  0.000   0.7
    9    -1568.2351410643220788    -4.15e-04  1.77e-03  1.14e-02  7.84e-03  0.000   0.7
   10    -1568.2355747409987998    -4.34e-04  2.13e-03  1.37e-02  7.67e-03  0.000   0.7
   11    -1568.2360961178339949    -5.21e-04  3.12e-03  1.98e-02  7.39e-03  0.000   1.2
   12    -1568.2368482460385621    -7.52e-04  3.02e-03  1.85e-02  6.86e-03  0.000   0.5
   13    -1568.2375664108558340    -7.18e-04  3.92e-03  2.32e-02  6.39e-03  0.000   0.6
   14    -1568.2384711349554891    -9.05e-04  1.91e-03  1.02e-02  5.63e-03  0.000   0.8
   15    -1568.2389097168654644    -4.39e-04  7.52e-03  3.96e-02  5.57e-03  0.000   0.5
   16    -1568.2404593690325783    -1.55e-03  1.23e-03  5.99e-03  4.57e-03  0.000   0.6
   17    -1568.2403345012178306     1.25e-04  2.82e-03  1.59e-02  4.75e-03  0.000   0.7
   18    -1568.2409069289360559    -5.72e-04  5.80e-03  3.44e-02  3.98e-03  0.000   0.8
   19    -1568.2419834341992555    -1.08e-03  1.95e-03  9.92e-03  4.66e-03  0.000   0.8
   20    -1568.2423589325160265    -3.75e-04  4.34e-03  2.55e-02  4.32e-03  0.000   0.5
               *** Restarting incremental Fock matrix formation ***
                             ****Resetting DIIS****
   21    -1568.2443772244587308    -2.02e-03  1.92e-03  7.56e-03  4.48e-03  0.000   0.6
   22    -1568.2446586087301057    -2.81e-04  1.28e-03  6.22e-03  5.16e-03  0.000   0.7
   23    -1568.2448650185490351    -2.06e-04  1.00e-03  4.89e-03  5.36e-03  0.000   0.5
   24    -1568.2450250128713378    -1.60e-04  1.30e-03  6.85e-03  5.45e-03  0.000   1.7
   25    -1568.2452356222897834    -2.11e-04  1.30e-03  7.02e-03  5.51e-03  0.000   1.4
   26    -1568.2454444755214809    -2.09e-04  2.32e-03  1.27e-02  5.54e-03  0.000   0.7
   27    -1568.2458120522951504    -3.68e-04  4.10e-03  2.34e-02  5.57e-03  0.000   0.7
   28    -1568.2464424910053822    -6.30e-04  7.57e-03  4.52e-02  5.46e-03  0.000   0.5
   29    -1568.2475113808895912    -1.07e-03  3.40e-03  2.13e-02  4.91e-03  0.000   0.6
   30    -1568.2479465994156271    -4.35e-04  1.07e-02  6.72e-02  4.76e-03  0.000   0.8
   31    -1568.2491279940552431    -1.18e-03  3.85e-03  2.53e-02  4.59e-03  0.000   1.3
   32    -1568.2487616809391966     3.66e-04  8.22e-03  5.19e-02  4.31e-03  0.000   0.5
   33    -1568.2496033137053928    -8.42e-04  4.92e-03  3.14e-02  3.77e-03  0.000   0.9
   34    -1568.2500916659594168    -4.88e-04  2.48e-03  1.57e-02  3.69e-03  0.000   0.5
   35    -1568.2503500416121369    -2.58e-04  6.78e-03  4.12e-02  3.91e-03  0.000   0.5
   36    -1568.2510348995501772    -6.85e-04  7.07e-04  3.37e-03  3.81e-03  0.000   1.1
   37    -1568.2510451648788603    -1.03e-05  1.95e-03  1.14e-02  4.04e-03  0.000   1.3
   38    -1568.2512485171866956    -2.03e-04  5.17e-03  2.92e-02  3.98e-03  0.000   0.5
   39    -1568.2517794190855511    -5.31e-04  1.18e-02  6.36e-02  3.77e-03  0.000   1.0
                              *** Initializing SOSCF ***
---------------------------------------S-O-S-C-F--------------------------------------
Iteration    Energy (Eh)           Delta-E    RMSDP     MaxDP     MaxGrad    Time(sec)
--------------------------------------------------------------------------------------
   40    -1568.2527964322293883    -1.02e-03  4.25e-03  2.34e-02  2.59e-03     0.5
               *** Restarting incremental Fock matrix formation ***
   41    -1568.2512505126314863     1.55e-03  1.10e-03  3.94e-03  2.74e-03     0.5
   42    -1568.2513199674667703    -6.95e-05  3.71e-03  1.87e-02  2.35e-03     0.5
   43    -1568.2515115867754503    -1.92e-04  5.97e-03  3.79e-02  2.98e-03     0.6
   44    -1568.2517880327941384    -2.76e-04  8.43e-03  6.19e-02  4.20e-03     0.7
   45    -1568.2521012231429722    -3.13e-04  4.15e-03  3.00e-02  3.64e-03     1.1
   46    -1568.2522305139032142    -1.29e-04  1.14e-03  3.78e-03  1.26e-03     0.8
   47    -1568.2522476891401766    -1.72e-05  4.63e-04  3.15e-03  3.86e-04     0.6
   48    -1568.2522536683459293    -5.98e-06  1.41e-04  6.30e-04  3.22e-04     0.7
   49    -1568.2522549395841907    -1.27e-06  3.96e-04  2.32e-03  2.99e-04     0.6
   50    -1568.2522572762013624    -2.34e-06  2.41e-04  1.41e-03  2.09e-04     0.6
   51    -1568.2522580742995615    -7.98e-07  2.81e-04  1.57e-03  1.50e-04     0.8
   52    -1568.2522588699084736    -7.96e-07  1.99e-04  1.08e-03  1.81e-04     1.1
   53    -1568.2522594381043746    -5.68e-07  1.37e-04  6.98e-04  1.28e-04     0.8
   54    -1568.2522597402494284    -3.02e-07  7.37e-05  4.03e-04  5.02e-05     0.5
   55    -1568.2522598272671530    -8.70e-08  4.53e-05  2.44e-04  3.87e-05     0.6
   56    -1568.2522598654804824    -3.82e-08  2.28e-05  1.13e-04  2.78e-05     0.6
   57    -1568.2522598818445658    -1.64e-08  1.39e-05  7.46e-05  2.57e-05     0.7
   58    -1568.2522598901762194    -8.33e-09  3.97e-05  2.72e-04  2.35e-05     0.6
                 **** Energy Check signals convergence ****

               *****************************************************
               *                     SUCCESS                       *
               *           SCF CONVERGED AFTER  58 CYCLES          *
               *****************************************************

Recomputing exchange energy using gridx3       ... done (    0.111 sec)
Old exchange energy                            :    -48.607325276 Eh
New exchange energy                            :    -48.607330148 Eh
Exchange energy change after final integration :     -0.000004872 Eh
Total energy after final integration           :  -1568.252264776 Eh
             **** ENERGY FILE WAS UPDATED (/users/s1155246974/li/fe2_quintet/fe2_quintet.en.tmp) ****

----------------
TOTAL SCF ENERGY
----------------

Total Energy       :      -1568.25226477572232 Eh          -42674.31364 eV

Components:
Nuclear Repulsion  :        430.83924757310189 Eh           11723.73195 eV
Electronic Energy  :      -1999.09150747678336 Eh          -54398.04546 eV
One Electron Energy:      -2997.29722840718659 Eh          -81560.60405 eV
Two Electron Energy:        998.20572093040323 Eh           27162.55858 eV

Virial components:
Potential Energy   :      -3133.98697731467792 Eh          -85280.12121 eV
Kinetic Energy     :       1565.73471253895559 Eh           42605.80757 eV
Virial Ratio       :          2.00160790472141

DFT components:
N(Alpha)           :       34.000000398769 electrons
N(Beta)            :       29.999999736530 electrons
N(Total)           :       64.000000135300 electrons
E(XC)              :      -44.092098787731 Eh       

---------------
SCF CONVERGENCE
---------------

  Last Energy change         ...    8.3317e-09  Tolerance :   1.0000e-08
  Last MAX-Density change    ...    2.7155e-04  Tolerance :   1.0000e-07
  Last RMS-Density change    ...    3.9739e-05  Tolerance :   5.0000e-09
  Last DIIS Error            ...    2.5851e-03  Tolerance :   5.0000e-07
  Last Orbital Gradient      ...    2.3454e-05  Tolerance :   1.0000e-05
  Last Orbital Rotation      ...    4.5448e-04  Tolerance :   1.0000e-05


----------------------
UHF SPIN CONTAMINATION
----------------------

Warning: in a DFT calculation there is little theoretical justification to 
         calculate <S**2> as in Hartree-Fock theory. We will do it anyways
         but you should keep in mind that the values have only limited relevance

Expectation value of <S**2>     :     6.020618
Ideal value S*(S+1) for S=2.0   :     6.000000
Deviation                       :     0.020618

----------------
ORBITAL ENERGIES
----------------
                 SPIN UP ORBITALS
  NO   OCC          E(Eh)            E(eV) 
   0   1.0000    -258.277245     -7028.0811 
   1   1.0000     -31.043778      -844.7441 
   2   1.0000     -26.911125      -732.2889 
   3   1.0000     -26.909809      -732.2531 
   4   1.0000     -26.892370      -731.7786 
   5   1.0000     -20.066258      -546.0306 
   6   1.0000     -20.057080      -545.7809 
   7   1.0000     -20.056453      -545.7638 
   8   1.0000     -20.051981      -545.6421 
   9   1.0000      -4.165643      -113.3529 
  10   1.0000      -2.947437       -80.2038 
  11   1.0000      -2.945461       -80.1501 
  12   1.0000      -2.896513       -78.8181 
  13   1.0000      -1.568598       -42.6837 
  14   1.0000      -1.552841       -42.2549 
  15   1.0000      -1.550285       -42.1854 
  16   1.0000      -1.542260       -41.9670 
  17   1.0000      -1.081021       -29.4161 
  18   1.0000      -1.076620       -29.2963 
  19   1.0000      -1.050696       -28.5909 
  20   1.0000      -1.037873       -28.2420 
  21   1.0000      -1.028783       -27.9946 
  22   1.0000      -0.998047       -27.1582 
  23   1.0000      -0.939423       -25.5630 
  24   1.0000      -0.924878       -25.1672 
  25   1.0000      -0.918773       -25.0011 
  26   1.0000      -0.893670       -24.3180 
  27   1.0000      -0.888994       -24.1908 
  28   1.0000      -0.831874       -22.6365 
  29   1.0000      -0.823042       -22.3961 
  30   1.0000      -0.819921       -22.3112 
  31   1.0000      -0.806437       -21.9443 
  32   1.0000      -0.802013       -21.8239 
  33   1.0000      -0.705655       -19.2019 
  34   0.0000      -0.336304        -9.1513 
  35   0.0000      -0.273812        -7.4508 
  36   0.0000      -0.254529        -6.9261 
  37   0.0000      -0.248234        -6.7548 
  38   0.0000      -0.202085        -5.4990 
  39   0.0000      -0.199817        -5.4373 
  40   0.0000      -0.191240        -5.2039 
  41   0.0000      -0.168776        -4.5926 
  42   0.0000      -0.161200        -4.3865 
  43   0.0000      -0.143456        -3.9036 
  44   0.0000      -0.093277        -2.5382 

                 SPIN DOWN ORBITALS
  NO   OCC          E(Eh)            E(eV) 
   0   1.0000    -258.277057     -7028.0760 
   1   1.0000     -30.947428      -842.1223 
   2   1.0000     -26.825489      -729.9587 
   3   1.0000     -26.819444      -729.7942 
   4   1.0000     -26.819170      -729.7867 
   5   1.0000     -20.064107      -545.9721 
   6   1.0000     -20.054943      -545.7227 
   7   1.0000     -20.053997      -545.6970 
   8   1.0000     -20.049607      -545.5775 
   9   1.0000      -3.972907      -108.1083 
  10   1.0000      -2.689023       -73.1720 
  11   1.0000      -2.685571       -73.0781 
  12   1.0000      -2.684194       -73.0406 
  13   1.0000      -1.563527       -42.5457 
  14   1.0000      -1.546927       -42.0940 
  15   1.0000      -1.544389       -42.0250 
  16   1.0000      -1.535653       -41.7872 
  17   1.0000      -1.072175       -29.1754 
  18   1.0000      -1.069976       -29.1155 
  19   1.0000      -1.043341       -28.3908 
  20   1.0000      -1.032744       -28.1024 
  21   1.0000      -0.981141       -26.6982 
  22   1.0000      -0.947746       -25.7895 
  23   1.0000      -0.921465       -25.0743 
  24   1.0000      -0.912998       -24.8439 
  25   1.0000      -0.870652       -23.6916 
  26   1.0000      -0.842729       -22.9318 
  27   1.0000      -0.827956       -22.5298 
  28   1.0000      -0.815945       -22.2030 
  29   1.0000      -0.688110       -18.7244 
  30   0.0000      -0.328840        -8.9482 
  31   0.0000      -0.324519        -8.8306 
  32   0.0000      -0.317191        -8.6312 
  33   0.0000      -0.313619        -8.5340 
  34   0.0000      -0.273109        -7.4317 
  35   0.0000      -0.251196        -6.8354 
  36   0.0000      -0.243268        -6.6197 
  37   0.0000      -0.234171        -6.3721 
  38   0.0000      -0.197481        -5.3737 
  39   0.0000      -0.186209        -5.0670 
  40   0.0000      -0.179580        -4.8866 
*Only the first 10 virtual orbitals were printed.

                    ********************************
                    * MULLIKEN POPULATION ANALYSIS *
                    ********************************

--------------------------------------------
MULLIKEN ATOMIC CHARGES AND SPIN POPULATIONS
--------------------------------------------
   0 Fe:    1.027976    3.758982
   1 O :   -0.297720    0.047530
   2 H :    0.279709    0.005805
   3 O :   -0.287325    0.052253
   4 H :    0.258360    0.004771
   5 O :   -0.343563    0.049808
   6 H :    0.292184    0.006355
   7 O :   -0.371885    0.044019
   8 H :    0.299251    0.006763
   9 H :    0.283434    0.005238
  10 H :    0.285175    0.005830
  11 H :    0.301675    0.006616
  12 H :    0.272729    0.006030
Sum of atomic charges         :    2.0000000
Sum of atomic spin populations:    4.0000000

-----------------------------------------------------
MULLIKEN REDUCED ORBITAL CHARGES AND SPIN POPULATIONS
-----------------------------------------------------
CHARGE
  0 Fes       :     6.450572  s :     6.450572
      pz      :     4.081830  p :    12.343173
      px      :     4.132215
      py      :     4.129128
      dz2     :     1.856904  d :     6.175646
      dxz     :     1.026842
      dyz     :     1.030961
      dx2y2   :     1.216604
      dxy     :     1.044335
      f0      :     0.000142  f :     0.002633
      f+1     :     0.000342
      f-1     :     0.000340
      f+2     :     0.000211
      f-2     :     0.000001
      f+3     :     0.000779
      f-3     :     0.000818

  1 O s       :     3.631116  s :     3.631116
      pz      :     1.245968  p :     4.657555
      px      :     1.710778
      py      :     1.700808
      dz2     :     0.000600  d :     0.009050
      dxz     :     0.004527
      dyz     :     0.000834
      dx2y2   :     0.001471
      dxy     :     0.001618

  2 H s       :     0.652337  s :     0.652337
      pz      :     0.032296  p :     0.067953
      px      :     0.018902
      py      :     0.016755

  3 O s       :     3.634956  s :     3.634956
      pz      :     1.700552  p :     4.642969
      px      :     1.696950
      py      :     1.245467
      dz2     :     0.000976  d :     0.009401
      dxz     :     0.001619
      dyz     :     0.004633
      dx2y2   :     0.001190
      dxy     :     0.000983

  4 H s       :     0.672894  s :     0.672894
      pz      :     0.021265  p :     0.068745
      px      :     0.017460
      py      :     0.030021

  5 O s       :     3.615964  s :     3.615964
      pz      :     1.914785  p :     4.721833
      px      :     1.226396
      py      :     1.580652
      dz2     :     0.001389  d :     0.005766
      dxz     :     0.000022
      dyz     :     0.000302
      dx2y2   :     0.000650
      dxy     :     0.003403

  6 H s       :     0.642969  s :     0.642969
      pz      :     0.014848  p :     0.064847
      px      :     0.033425
      py      :     0.016574

  7 O s       :     3.617404  s :     3.617404
      pz      :     1.243503  p :     4.748871
      px      :     1.587174
      py      :     1.918194
      dz2     :     0.001028  d :     0.005610
      dxz     :     0.003111
      dyz     :     0.000072
      dx2y2   :     0.000942
      dxy     :     0.000457

  8 H s       :     0.635615  s :     0.635615
      pz      :     0.032914  p :     0.065134
      px      :     0.016997
      py      :     0.015224

  9 H s       :     0.651414  s :     0.651414
      pz      :     0.015398  p :     0.065151
      px      :     0.032471
      py      :     0.017282

 10 H s       :     0.646954  s :     0.646954
      pz      :     0.017895  p :     0.067871
      px      :     0.015971
      py      :     0.034006

 11 H s       :     0.633191  s :     0.633191
      pz      :     0.033047  p :     0.065133
      px      :     0.016910
      py      :     0.015176

 12 H s       :     0.659067  s :     0.659067
      pz      :     0.032073  p :     0.068204
      px      :     0.019035
      py      :     0.017097


SPIN
  0 Fes       :    -0.068214  s :    -0.068214
      pz      :    -0.001931  p :     0.002619
      px      :     0.002400
      py      :     0.002150
      dz2     :     0.064161  d :     3.824656
      dxz     :     0.974700
      dyz     :     0.972947
      dx2y2   :     0.850349
      dxy     :     0.962498
      f0      :     0.000029  f :    -0.000079
      f+1     :    -0.000024
      f-1     :    -0.000023
      f+2     :     0.000001
      f-2     :     0.000000
      f+3     :    -0.000030
      f-3     :    -0.000033

  1 O s       :     0.006232  s :     0.006232
      pz      :     0.001944  p :     0.040370
      px      :     0.008023
      py      :     0.030403
      dz2     :     0.000044  d :     0.000928
      dxz     :     0.000050
      dyz     :     0.000404
      dx2y2   :     0.000240
      dxy     :     0.000191

  2 H s       :     0.005183  s :     0.005183
      pz      :     0.000091  p :     0.000622
      px      :     0.000175
      py      :     0.000357

  3 O s       :     0.005869  s :     0.005869
      pz      :     0.011543  p :     0.045537
      px      :     0.032557
      py      :     0.001438
      dz2     :     0.000056  d :     0.000847
      dxz     :     0.000210
      dyz     :     0.000038
      dx2y2   :     0.000224
      dxy     :     0.000319

  4 H s       :     0.004062  s :     0.004062
      pz      :     0.000143  p :     0.000709
      px      :     0.000392
      py      :     0.000174

  5 O s       :     0.007910  s :     0.007910
      pz      :     0.018769  p :     0.040837
      px      :     0.000213
      py      :     0.021855
      dz2     :     0.000095  d :     0.001061
      dxz     :     0.000009
      dyz     :     0.000285
      dx2y2   :     0.000295
      dxy     :     0.000376

  6 H s       :     0.005556  s :     0.005556
      pz      :     0.000525  p :     0.000799
      px      :     0.000010
      py      :     0.000264

  7 O s       :     0.008106  s :     0.008106
      pz      :     0.000423  p :     0.034728
      px      :     0.020747
      py      :     0.013558
      dz2     :     0.000053  d :     0.001186
      dxz     :     0.000511
      dyz     :     0.000008
      dx2y2   :     0.000368
      dxy     :     0.000246

  8 H s       :     0.006113  s :     0.006113
      pz      :     0.000057  p :     0.000650
      px      :     0.000251
      py      :     0.000341

  9 H s       :     0.004394  s :     0.004394
      pz      :     0.000537  p :     0.000843
      px      :     0.000032
      py      :     0.000274

 10 H s       :     0.005154  s :     0.005154
      pz      :     0.000185  p :     0.000675
      px      :     0.000383
      py      :     0.000108

 11 H s       :     0.005987  s :     0.005987
      pz      :     0.000048  p :     0.000629
      px      :     0.000250
      py      :     0.000331

 12 H s       :     0.005413  s :     0.005413
      pz      :     0.000081  p :     0.000617
      px      :     0.000175
      py      :     0.000362



                     *******************************
                     * LOEWDIN POPULATION ANALYSIS *
                     *******************************

-------------------------------------------
LOEWDIN ATOMIC CHARGES AND SPIN POPULATIONS
-------------------------------------------
   0 Fe:    0.624146    3.741339
   1 O :    0.046924    0.052259
   2 H :    0.148398    0.005116
   3 O :    0.056112    0.057381
   4 H :    0.136825    0.004773
   5 O :    0.049300    0.055902
   6 H :    0.151053    0.005861
   7 O :    0.036637    0.050213
   8 H :    0.154176    0.005938
   9 H :    0.147282    0.005165
  10 H :    0.149317    0.005035
  11 H :    0.156214    0.005853
  12 H :    0.143615    0.005163

----------------------------------------------------
LOEWDIN REDUCED ORBITAL CHARGES AND SPIN POPULATIONS
----------------------------------------------------
CHARGE
  0 Fes       :     6.388242  s :     6.388242
      pz      :     4.092145  p :    12.579886
      px      :     4.242998
      py      :     4.244742
      dz2     :     1.916494  d :     6.403310
      dxz     :     1.033018
      dyz     :     1.040655
      dx2y2   :     1.355730
      dxy     :     1.057414
      f0      :     0.000178  f :     0.004415
      f+1     :     0.000587
      f-1     :     0.000584
      f+2     :     0.000293
      f-2     :     0.000001
      f+3     :     0.001351
      f-3     :     0.001422

  1 O s       :     3.317229  s :     3.317229
      pz      :     1.277792  p :     4.617790
      px      :     1.689871
      py      :     1.650127
      dz2     :     0.002523  d :     0.018057
      dxz     :     0.008495
      dyz     :     0.003013
      dx2y2   :     0.002168
      dxy     :     0.001858

  2 H s       :     0.670838  s :     0.670838
      pz      :     0.071726  p :     0.180764
      px      :     0.056432
      py      :     0.052606

  3 O s       :     3.318858  s :     3.318858
      pz      :     1.679277  p :     4.606472
      px      :     1.645475
      py      :     1.281720
      dz2     :     0.000902  d :     0.018558
      dxz     :     0.001839
      dyz     :     0.008659
      dx2y2   :     0.003954
      dxy     :     0.003203

  4 H s       :     0.682818  s :     0.682818
      pz      :     0.061118  p :     0.180357
      px      :     0.052847
      py      :     0.066393

  5 O s       :     3.284601  s :     3.284601
      pz      :     1.830901  p :     4.651072
      px      :     1.271949
      py      :     1.548222
      dz2     :     0.002971  d :     0.015027
      dxz     :     0.000037
      dyz     :     0.000504
      dx2y2   :     0.002781
      dxy     :     0.008734

  6 H s       :     0.668326  s :     0.668326
      pz      :     0.048525  p :     0.180621
      px      :     0.079618
      py      :     0.052477

  7 O s       :     3.284421  s :     3.284421
      pz      :     1.277764  p :     4.664544
      px      :     1.553208
      py      :     1.833572
      dz2     :     0.003280  d :     0.014398
      dxz     :     0.008244
      dyz     :     0.000160
      dx2y2   :     0.002022
      dxy     :     0.000692

  8 H s       :     0.663161  s :     0.663161
      pz      :     0.078845  p :     0.182663
      px      :     0.053682
      py      :     0.050136

  9 H s       :     0.672399  s :     0.672399
      pz      :     0.049149  p :     0.180319
      px      :     0.077727
      py      :     0.053443

 10 H s       :     0.670289  s :     0.670289
      pz      :     0.053080  p :     0.180394
      px      :     0.051268
      py      :     0.076046

 11 H s       :     0.661059  s :     0.661059
      pz      :     0.079115  p :     0.182727
      px      :     0.053501
      py      :     0.050111

 12 H s       :     0.675290  s :     0.675290
      pz      :     0.071225  p :     0.181095
      px      :     0.056862
      py      :     0.053008


SPIN
  0 Fes       :    -0.045149  s :    -0.045149
      pz      :    -0.001131  p :    -0.001689
      px      :    -0.000227
      py      :    -0.000331
      dz2     :     0.049827  d :     3.788279
      dxz     :     0.971714
      dyz     :     0.968947
      dx2y2   :     0.840820
      dxy     :     0.956971
      f0      :     0.000028  f :    -0.000101
      f+1     :    -0.000026
      f-1     :    -0.000025
      f+2     :     0.000002
      f-2     :     0.000000
      f+3     :    -0.000038
      f-3     :    -0.000041

  1 O s       :     0.008211  s :     0.008211
      pz      :     0.003059  p :     0.041622
      px      :     0.009638
      py      :     0.028925
      dz2     :     0.000066  d :     0.002426
      dxz     :     0.000147
      dyz     :     0.000907
      dx2y2   :     0.000815
      dxy     :     0.000491

  2 H s       :     0.002908  s :     0.002908
      pz      :    -0.000002  p :     0.002208
      px      :     0.000405
      py      :     0.001805

  3 O s       :     0.008441  s :     0.008441
      pz      :     0.013634  p :     0.046680
      px      :     0.030955
      py      :     0.002091
      dz2     :     0.000323  d :     0.002260
      dxz     :     0.000518
      dyz     :     0.000102
      dx2y2   :     0.000567
      dxy     :     0.000750

  4 H s       :     0.002386  s :     0.002386
      pz      :     0.000386  p :     0.002388
      px      :     0.001810
      py      :     0.000192

  5 O s       :     0.010770  s :     0.010770
      pz      :     0.020109  p :     0.042597
      px      :     0.001050
      py      :     0.021437
      dz2     :     0.000651  d :     0.002535
      dxz     :     0.000015
      dyz     :     0.000429
      dx2y2   :     0.000509
      dxy     :     0.000932

  6 H s       :     0.003269  s :     0.003269
      pz      :     0.001033  p :     0.002592
      px      :     0.000030
      py      :     0.001530

  7 O s       :     0.010287  s :     0.010287
      pz      :     0.001765  p :     0.037046
      px      :     0.020625
      py      :     0.014656
      dz2     :    -0.000037  d :     0.002880
      dxz     :     0.001239
      dyz     :     0.000018
      dx2y2   :     0.001251
      dxy     :     0.000409

  8 H s       :     0.003635  s :     0.003635
      pz      :    -0.000073  p :     0.002302
      px      :     0.001600
      py      :     0.000776

  9 H s       :     0.002518  s :     0.002518
      pz      :     0.001040  p :     0.002647
      px      :     0.000065
      py      :     0.001542

 10 H s       :     0.002771  s :     0.002771
      pz      :     0.000408  p :     0.002265
      px      :     0.001716
      py      :     0.000141

 11 H s       :     0.003596  s :     0.003596
      pz      :    -0.000064  p :     0.002257
      px      :     0.001570
      py      :     0.000752

 12 H s       :     0.003005  s :     0.003005
      pz      :    -0.000022  p :     0.002159
      px      :     0.000401
      py      :     0.001780



                      *****************************
                      * MAYER POPULATION ANALYSIS *
                      *****************************

  NA   - Mulliken gross atomic population
  ZA   - Total nuclear charge
  QA   - Mulliken gross atomic charge
  VA   - Mayer's total valence
  BVA  - Mayer's bonded valence
  FA   - Mayer's free valence

  ATOM       NA         ZA         QA         VA         BVA        FA
  0 Fe    24.9720    26.0000     1.0280     5.3416     1.6858     3.6559
  1 O      8.2977     8.0000    -0.2977     2.2746     2.2727     0.0019
  2 H      0.7203     1.0000     0.2797     0.9506     0.9506     0.0000
  3 O      8.2873     8.0000    -0.2873     2.2887     2.2865     0.0023
  4 H      0.7416     1.0000     0.2584     0.9669     0.9669     0.0000
  5 O      8.3436     8.0000    -0.3436     2.2414     2.2394     0.0020
  6 H      0.7078     1.0000     0.2922     0.9477     0.9477     0.0000
  7 O      8.3719     8.0000    -0.3719     2.2103     2.2088     0.0016
  8 H      0.7007     1.0000     0.2993     0.9360     0.9360     0.0000
  9 H      0.7166     1.0000     0.2834     0.9493     0.9493     0.0000
 10 H      0.7148     1.0000     0.2852     0.9495     0.9495     0.0000
 11 H      0.6983     1.0000     0.3017     0.9339     0.9338     0.0000
 12 H      0.7273     1.0000     0.2727     0.9550     0.9550     0.0000

  Mayer bond orders larger than 0.100000
B(  0-Fe,  1-O ) :   0.4152 B(  0-Fe,  3-O ) :   0.4320 B(  0-Fe,  5-O ) :   0.4052 
B(  0-Fe,  7-O ) :   0.3664 B(  1-O ,  2-H ) :   0.9229 B(  1-O , 12-H ) :   0.9274 
B(  3-O ,  4-H ) :   0.9340 B(  3-O , 10-H ) :   0.9158 B(  5-O ,  6-H ) :   0.9090 
B(  5-O ,  9-H ) :   0.9198 B(  7-O ,  8-H ) :   0.9126 B(  7-O , 11-H ) :   0.9111 


-------
TIMINGS
-------

Total SCF time: 0 days 0 hours 0 min 46 sec 

Total time                  ....      46.126 sec
Sum of individual times     ....      44.883 sec  ( 97.3%)

SCF preparation             ....       1.551 sec  (  3.4%)
Fock matrix formation       ....      36.927 sec  ( 80.1%)
  Startup                   ....       0.250 sec  (  0.7% of F)
  Split-RI-J                ....       3.156 sec  (  8.5% of F)
  Chain of spheres X        ....       6.994 sec  ( 18.9% of F)
  XC integration            ....      14.914 sec  ( 40.4% of F)
    XC Preparation          ....       0.000 sec  (  0.0% of XC)
    Basis function eval.    ....       0.132 sec  (  0.9% of XC)
    Density eval.           ....       0.296 sec  (  2.0% of XC)
    XC-Functional eval.     ....       0.083 sec  (  0.6% of XC)
    XC-Potential eval.      ....       0.322 sec  (  2.2% of XC)
Diagonalization             ....       0.000 sec  (  0.0%)
Density matrix formation    ....       1.984 sec  (  4.3%)
Total Energy calculation    ....       0.434 sec  (  0.9%)
Population analysis         ....       0.061 sec  (  0.1%)
Orbital Transformation      ....       0.368 sec  (  0.8%)
Orbital Orthonormalization  ....       0.000 sec  (  0.0%)
DIIS solution               ....       2.339 sec  (  5.1%)
SOSCF solution              ....       1.220 sec  (  2.6%)
Finished LeanSCF after  46.4 sec

Maximum memory used throughout the entire LEANSCF-calculation: 11.6 MB


           ************************************************************
           *        Program running with 64 parallel MPI-processes    *
           *              working on a common directory               *
           ************************************************************

------------------------------------------------------------------------------
                         ORCA PROPERTY INTEGRAL CALCULATIONS
------------------------------------------------------------------------------

GBWName                                   ... /users/s1155246974/li/fe2_quintet/fe2_quintet.gbw
Number of atoms                           ...     13
Number of basis functions                 ...    127
Max core memory                           ...   2109 MB

Dipole integrals                          ... YES
Quadrupole integrals                      ...  NO
Linear momentum integrals                 ...  NO
Angular momentum integrals                ...  NO
Higher moments length integrals           ...  NO
Higher moments velocity integrals         ...  NO
Kinetic energy integrals                  ...  NO
GIAO right hand sides                     ...  NO
GIAO dipole derivative integrals          ...  NO
SOC integrals                             ...  NO
EPR diamagnetic integrals (GIAO)          ...  NO
EPR gauge integrals                       ...  NO
Field gradient integrals                  ...  NO (   0 nuclei)
Spin-dipole/Fermi contact integrals       ...  NO (   0 nuclei)
Contact density integrals                 ...  NO (   0 nuclei)
Nucleus-orbit integrals                   ...  NO (   0 nuclei)
Geometric perturbations                   ...  NO (  13 nuclei)

Choice of electric origin   ... Center of mass
Position of electric origin ... ( -4.0090, -1.7793, -0.0135) 
Choice of magnetic origin   ... GIAO
Position of magnetic origin ... (  0.0000,  0.0000,  0.0000) 

Calculating integrals                     ... Electric Dipole (Length)     done (  0.0 sec)

Property integrals calculated in   0.0 sec

Maximum memory used throughout the entire PROPINT-calculation: 9.6 MB

-------------------------   --------------------
FINAL SINGLE POINT ENERGY     -1568.252264775722
-------------------------   --------------------



           ************************************************************
           *        Program running with 64 parallel MPI-processes    *
           *              working on a common directory               *
           ************************************************************
------------------------------------------------------------------------------
                         ORCA SCF GRADIENT CALCULATION
------------------------------------------------------------------------------

Nuc. rep. gradient        (SHARK) ... done (  0.0 sec)
HCore & Overlap gradient  (SHARK) ... done (  0.5 sec)
Split-RIJ-J gradient      (SHARK) ... done (  0.6 sec)
done (  0.4 sec)
XC gradient                       ... done (  0.1 sec)

------------------
CARTESIAN GRADIENT
------------------

   1   Fe  :    0.002323048    0.010712178   -0.009243188
   2   O   :    0.009151360   -0.062292122    0.002686779
   3   H   :   -0.004904506   -0.021609280   -0.009706551
   4   O   :    0.054977773    0.006249257    0.002254869
   5   H   :    0.024492624    0.002743869    0.005899874
   6   O   :    0.004449654    0.039422545    0.001538690
   7   H   :   -0.000336594    0.025064752    0.000431127
   8   O   :   -0.047212216    0.003362255    0.000803724
   9   H   :   -0.027367621    0.000594014    0.001443007
  10   H   :   -0.003926381    0.028709092   -0.003869309
  11   H   :    0.021216057   -0.011585428    0.002281926
  12   H   :   -0.027064509    0.000696672   -0.002285754
  13   H   :   -0.005798691   -0.022067805    0.007764806

Difference to translation invariance:
           :   -0.0000000004    0.0000000001    0.0000000002

Difference to rotation invariance:
           :   -0.0004912797   -0.0010332662   -0.0006458850

Norm of the Cartesian gradient     ...    0.1281853105
RMS gradient                       ...    0.0205260771
MAX gradient                       ...    0.0622921216

-------
TIMINGS
-------

Total SCF gradient time     ....        1.639 sec

Densities                   ....       0.003 sec  (  0.2%)
One electron gradient       ....       0.453 sec  ( 27.7%)
RI-J Coulomb gradient       ....       0.650 sec  ( 39.6%)
COSX gradient               ....       0.441 sec  ( 26.9%)
XC gradient                 ....       0.088 sec  (  5.4%)

Maximum memory used throughout the entire SCFGRAD-calculation: 16.2 MB
------------------------------------------------------------------------------
                         ORCA GEOMETRY RELAXATION STEP
------------------------------------------------------------------------------

Reading the OPT-File                    .... done
Getting information on internals        .... done
Copying old internal coords+grads       .... done
Making the new internal coordinates     .... (2022 redundants) done
Validating the new internal coordinates .... (2022 redundants) done
Calculating the B-matrix                .... done
Calculating the G,G- and P matrices     .... done
Transforming gradient to internals      .... done
Projecting the internal gradient        .... done
Number of atoms                         ....  13
Number of internal coordinates          ....  52
Current Energy                          .... -1568.252264776 Eh
Current gradient norm                   ....     0.128185310 Eh/bohr
Maximum allowed component of the step   ....  0.300
Current trust radius                    ....  0.300
Evaluating the initial hessian          ....  (Almloef) done
Projecting the Hessian                  .... done
Forming the augmented Hessian           .... done
Diagonalizing the augmented Hessian     .... done
Last element of RFO vector              ....  0.962817797
Lowest eigenvalues of augmented Hessian:
 -0.050610350  0.010000000  0.010000000  0.010000000  0.010000000
Length of the computed step             ....  0.280584348
The final length of the internal step   ....  0.280584348
Converting the step to Cartesian space:
 Initial RMS(Int)=    0.0389100483
Transforming coordinates:
 Iter   0:  RMS(Cart)=    0.0864198566 RMS(Int)=    0.0390924809
 Iter   5:  RMS(Cart)=    0.0000000254 RMS(Int)=    0.0000000215
done
Storing new coordinates                 .... done

                                .--------------------.
          ----------------------|Geometry convergence|-------------------------
          Item                value                   Tolerance       Converged
          ---------------------------------------------------------------------
          RMS gradient        0.0304259012            0.0001000000      NO
          MAX gradient        0.1059672709            0.0003000000      NO
          RMS step            0.0389100483            0.0020000000      NO
          MAX step            0.0870496589            0.0040000000      NO
[...]

DFT components:
N(Alpha)           :       34.000002765441 electrons
N(Beta)            :       30.000001540095 electrons
N(Total)           :       64.000004305536 electrons
E(XC)              :      -43.971526105731 Eh       

---------------
SCF CONVERGENCE
---------------

  Last Energy change         ...    9.3230e-09  Tolerance :   1.0000e-08
  Last MAX-Density change    ...    4.9219e-04  Tolerance :   1.0000e-07
  Last RMS-Density change    ...    6.1470e-05  Tolerance :   5.0000e-09
  Last DIIS Error            ...    6.0531e-04  Tolerance :   5.0000e-07
  Last Orbital Gradient      ...    2.6756e-05  Tolerance :   1.0000e-05
  Last Orbital Rotation      ...    7.8447e-04  Tolerance :   1.0000e-05


----------------------
UHF SPIN CONTAMINATION
----------------------

Warning: in a DFT calculation there is little theoretical justification to 
         calculate <S**2> as in Hartree-Fock theory. We will do it anyways
         but you should keep in mind that the values have only limited relevance

Expectation value of <S**2>     :     6.004616
Ideal value S*(S+1) for S=2.0   :     6.000000
Deviation                       :     0.004616

Total SCF time: 0 days 0 hours 1 min 1 sec 
Finished LeanSCF after  67.0 sec

Maximum memory used throughout the entire LEANSCF-calculation: 13.3 MB


           ************************************************************
           *        Program running with 64 parallel MPI-processes    *
           *              working on a common directory               *
           ************************************************************

------------------------------------------------------------------------------
                         ORCA PROPERTY INTEGRAL CALCULATIONS
------------------------------------------------------------------------------

GBWName                                   ... /users/s1155246974/li/fe2_quintet/fe2_quintet.gbw
Number of atoms                           ...     13
Number of basis functions                 ...    127
Max core memory                           ...   2109 MB

Dipole integrals                          ... YES
Quadrupole integrals                      ...  NO
Linear momentum integrals                 ...  NO
Angular momentum integrals                ...  NO
Higher moments length integrals           ...  NO
Higher moments velocity integrals         ...  NO
Kinetic energy integrals                  ...  NO
GIAO right hand sides                     ...  NO
GIAO dipole derivative integrals          ...  NO
SOC integrals                             ...  NO
EPR diamagnetic integrals (GIAO)          ...  NO
EPR gauge integrals                       ...  NO
Field gradient integrals                  ...  NO (   0 nuclei)
Spin-dipole/Fermi contact integrals       ...  NO (   0 nuclei)
Contact density integrals                 ...  NO (   0 nuclei)
Nucleus-orbit integrals                   ...  NO (   0 nuclei)
Geometric perturbations                   ...  NO (  13 nuclei)

Choice of electric origin   ... Center of mass
Position of electric origin ... ( -3.8478, -1.8459, -0.1115) 
Choice of magnetic origin   ... GIAO
Position of magnetic origin ... (  0.0000,  0.0000,  0.0000) 

Calculating integrals                     ... Electric Dipole (Length)     done (  0.3 sec)

Property integrals calculated in   0.3 sec

Maximum memory used throughout the entire PROPINT-calculation: 9.5 MB

-------------------------   --------------------
FINAL SINGLE POINT ENERGY     -1568.374663409875
-------------------------   --------------------



           ************************************************************
           *        Program running with 64 parallel MPI-processes    *
           *              working on a common directory               *
           ************************************************************
------------------------------------------------------------------------------
                         ORCA SCF GRADIENT CALCULATION
------------------------------------------------------------------------------

Nuc. rep. gradient        (SHARK) ... done (  0.0 sec)
HCore & Overlap gradient  (SHARK) ... done (  0.6 sec)
Split-RIJ-J gradient      (SHARK) ... done (  0.7 sec)
done (  3.2 sec)
XC gradient                       ... done (  1.1 sec)

------------------
CARTESIAN GRADIENT
------------------

   1   Fe  :   -0.000220739   -0.000221135   -0.000095195
   2   O   :    0.000155661    0.000012301   -0.000016040
   3   H   :   -0.000022326    0.000068545    0.000021433
   4   O   :    0.000027049    0.000110370    0.000050221
   5   H   :   -0.000022277    0.000007531    0.000032256
   6   O   :    0.000095937    0.000124960   -0.000147571
   7   H   :    0.000015130   -0.000071684    0.000059783
   8   O   :    0.000016802   -0.000084933   -0.000076320
   9   H   :   -0.000011478    0.000044563   -0.000054499
  10   H   :    0.000045062   -0.000106949   -0.000012976
  11   H   :   -0.000013506   -0.000013163    0.000114550
  12   H   :    0.000004585    0.000079120   -0.000047986
  13   H   :   -0.000069899    0.000050474    0.000172345

Difference to translation invariance:
           :    0.0000000001    0.0000000000   -0.0000000001

Difference to rotation invariance:
           :    0.0015110304    0.0020600256    0.0004680041

Norm of the Cartesian gradient     ...    0.0005484458
RMS gradient                       ...    0.0000878216
MAX gradient                       ...    0.0002211351

-------
TIMINGS
-------

Total SCF gradient time     ....        5.642 sec

Densities                   ....       0.012 sec  (  0.2%)
One electron gradient       ....       0.550 sec  (  9.8%)
RI-J Coulomb gradient       ....       0.684 sec  ( 12.1%)
COSX gradient               ....       3.243 sec  ( 57.5%)
XC gradient                 ....       1.138 sec  ( 20.2%)

Maximum memory used throughout the entire SCFGRAD-calculation: 16.0 MB
------------------------------------------------------------------------------
                         ORCA GEOMETRY RELAXATION STEP
------------------------------------------------------------------------------

Reading the OPT-File                    .... done
Getting information on internals        .... done
Copying old internal coords+grads       .... done
Making the new internal coordinates     .... (2022 redundants) done
Validating the new internal coordinates .... (2022 redundants) done
Calculating the B-matrix                .... done
Calculating the G,G- and P matrices     .... done
Transforming gradient to internals      .... done
Projecting the internal gradient        .... done
Number of atoms                         ....  13
Number of internal coordinates          ....  52
Current Energy                          .... -1568.374663410 Eh
Current gradient norm                   ....     0.000548446 Eh/bohr
Maximum allowed component of the step   ....  0.300
Current trust radius                    ....  0.100
Updating the Hessian (BFGS)             .... done
Forming the augmented Hessian           .... done
Diagonalizing the augmented Hessian     .... done
Last element of RFO vector              ....  0.999832096
Lowest eigenvalues of augmented Hessian:
 -0.000000899  0.000455235  0.000720152  0.001913865  0.004136632
Length of the computed step             ....  0.018327372
The final length of the internal step   ....  0.018327372
Converting the step to Cartesian space:
 Initial RMS(Int)=    0.0025415492
Transforming coordinates:
 Iter   0:  RMS(Cart)=    0.0024890821 RMS(Int)=    0.0025389483
done
Storing new coordinates                 .... done
The predicted energy change is          ....    -0.000000450
Previously predicted energy change      ....    -0.000000518
Actually observed energy change         ....     0.000017947
Ratio of predicted to observed change   ....    34.618116848
New trust radius                        ....     0.100000000

                                .--------------------.
          ----------------------|Geometry convergence|-------------------------
          Item                value                   Tolerance       Converged
          ---------------------------------------------------------------------
          Energy change       0.0000179472            0.0000050000      NO
          RMS gradient        0.0000523987            0.0001000000      YES
          MAX gradient        0.0001993963            0.0003000000      YES
          RMS step            0.0025415492            0.0020000000      NO
          MAX step            0.0080260806            0.0040000000      NO
          -------------------------------------------------------------------------
          ........................................................
          Max(Bonds)      0.0003      Max(Angles)    0.09
          Max(Dihed)        0.46      Max(Improp)    0.00
          ---------------------------------------------------------------------

The optimization has not yet converged - more geometry cycles are needed


    ---------------------------------------------------------------------------
                         Redundant Internal Coordinates
                            (Angstroem and degrees)

        Definition                    Value    dE/dq     Step     New-Value
    ----------------------------------------------------------------------------
     1. B(O   1,Fe  0)                2.0400  0.000199 -0.0003    2.0397   
     2. B(H   2,O   1)                0.9734  0.000006 -0.0000    0.9734   
     3. B(O   3,Fe  0)                2.0411 -0.000115 -0.0002    2.0408   
     4. B(H   4,O   3)                0.9731  0.000004 -0.0000    0.9731   
     5. B(O   5,Fe  0)                2.0346 -0.000025 -0.0003    2.0343   
     6. B(H   6,O   5)                0.9740  0.000022 -0.0000    0.9739   
     7. B(O   7,Fe  0)                2.0388  0.000089 -0.0003    2.0384   
     8. B(H   8,O   7)                0.9733  0.000015 -0.0000    0.9733   
     9. B(H   9,O   5)                0.9734  0.000012 -0.0000    0.9734   
    10. B(H  10,O   3)                0.9737 -0.000000 -0.0000    0.9737   
    11. B(H  11,O   7)                0.9737  0.000015 -0.0000    0.9737   
    12. B(H  12,O   1)                0.9737  0.000000 -0.0000    0.9737   
    13. A(O   1,Fe  0,O   3)          103.27 -0.000051    0.09    103.36   
    14. A(O   5,Fe  0,O   7)          107.31 -0.000050    0.06    107.36   
    15. A(O   1,Fe  0,O   7)          106.04  0.000001   -0.07    105.97   
    16. A(O   3,Fe  0,O   5)          108.94  0.000057   -0.06    108.88   
    17. A(Fe  0,O   1,H  12)          126.32  0.000109   -0.06    126.26   
    18. A(H   2,O   1,H  12)          105.79 -0.000146    0.03    105.82   
    19. A(Fe  0,O   1,H   2)          127.82  0.000039    0.00    127.82   
    20. A(H   4,O   3,H  10)          105.81  0.000042    0.03    105.83   
    21. A(Fe  0,O   3,H   4)          128.43 -0.000018    0.00    128.43   
    22. A(Fe  0,O   3,H  10)          125.63 -0.000025   -0.02    125.61   
    23. A(H   6,O   5,H   9)          105.78 -0.000106    0.03    105.82   
    24. A(Fe  0,O   5,H   6)          126.27  0.000087   -0.01    126.27   
    25. A(Fe  0,O   5,H   9)          127.93  0.000018   -0.02    127.90   
    26. A(H   8,O   7,H  11)          105.80 -0.000010    0.02    105.82   
    27. A(Fe  0,O   7,H  11)          126.61 -0.000026   -0.01    126.59   
    28. A(Fe  0,O   7,H   8)          127.53  0.000036   -0.00    127.52   
    29. D(H  12,O   1,Fe  0,O   3)    -53.63  0.000018   -0.07    -53.69   
    30. D(H  12,O   1,Fe  0,O   7)     67.01  0.000028   -0.14     66.86   
    31. D(H   2,O   1,Fe  0,O   3)    129.61 -0.000028   -0.01    129.60   
    32. D(H   2,O   1,Fe  0,O   7)   -109.75 -0.000018   -0.08   -109.84   
    33. D(H   4,O   3,Fe  0,O   5)   -100.79  0.000033   -0.08   -100.87   
    34. D(H   4,O   3,Fe  0,O   1)    134.04  0.000014   -0.12    133.92   
    35. D(H  10,O   3,Fe  0,O   1)    -50.76  0.000007   -0.06    -50.82   
    36. D(H  10,O   3,Fe  0,O   5)     74.42  0.000026   -0.01     74.40   
    37. D(H   6,O   5,O   1,H  12)     40.76  0.000031   -0.46     40.30   
    38. D(H   6,O   5,O   1,H   2)   -145.42 -0.000005   -0.26   -145.67   
    39. D(H   9,O   5,Fe  0,O   7)    133.61  0.000005   -0.21    133.40   
    40. D(H   9,O   5,Fe  0,O   3)   -102.02  0.000045   -0.29   -102.31   
    41. D(H   6,O   5,Fe  0,O   7)    -47.99 -0.000036   -0.15    -48.14   
    42. D(H   9,O   5,O   1,H   2)     19.45 -0.000038   -0.16     19.29   
    43. D(H   6,O   5,Fe  0,O   3)     76.38  0.000004   -0.23     76.14   
    44. D(H   9,O   5,O   1,H  12)   -154.38 -0.000002   -0.36   -154.74   
    45. D(H  11,O   7,O   3,H  10)     28.06 -0.000031   -0.22     27.84   
    46. D(H   8,O   7,O   3,H  10)   -147.76 -0.000007   -0.22   -147.98   
    47. D(H   8,O   7,O   3,H   4)     16.93 -0.000006   -0.23     16.69   
    48. D(H  11,O   7,Fe  0,O   5)    -60.06  0.000029   -0.13    -60.19   
    49. D(H  11,O   7,Fe  0,O   1)     65.84  0.000019   -0.12     65.73   
    50. D(H  11,O   7,O   3,H   4)   -167.25 -0.000029   -0.23   -167.48   
    51. D(H   8,O   7,Fe  0,O   5)    123.26  0.000016   -0.27    122.99   
    52. D(H   8,O   7,Fe  0,O   1)   -110.84  0.000006   -0.26   -111.10   
    ----------------------------------------------------------------------------

Geometry step timings:
Preparation and reading OPT file:      0.000 s ( 0.155 %)
Internal coordinates            :      0.000 s ( 0.088 %)
B/P matrices and projection     :      0.000 s ( 0.787 %)
Hessian update/contruction      :      0.027 s (53.178 %)
Making the step                 :      0.000 s ( 0.590 %)
Converting the step to Cartesian:      0.000 s ( 0.108 %)
Storing new data                :      0.000 s ( 0.227 %)
Checking convergence            :      0.000 s ( 0.118 %)
Final printing                  :      0.022 s (44.748 %)
Total time                      :      0.050 s

Time for energy+gradient        :    100.791 s
Time for complete geometry iter :    117.132 s




    ----------------------------------------------------------------------------
                                   ERROR !!!
       The optimization did not converge but reached the maximum 
       number of optimization cycles.
       As a subsequent Frequencies calculation has been requested
       ORCA will abort at this point of the run.
       Please restart the calculation with the lowest energy geometry and/or
       a larger maxiter for the geometry optimization.
    ----------------------------------------------------------------------------



--------------------------------
SUGGESTED CITATIONS FOR THIS RUN
--------------------------------

Below you find a list of papers that are relevant to this ORCA run
We neither can nor want to force you to cite these papers, but we appreciate if you do
You receive ORCA, which is the product of decades of hard work by many enthusiastic individuals, for free
The only thing we kindly ask in return is that you cite our papers,
We deeply appreciate it, if you show your appreciation for ORCA by not just citing the generic ORCA reference.

Please note that relegating all ORCA citations to the supporting information does *not* help us.
SI sections are not indexed - citations you put there will not count into any citation statistics
But we need these citations in order to attract the funding resources that allow us to do what we are doing

Therefore, if you are a happy ORCA user, please consider citing a few of the papers listed below in the main body of your paper

In addition to the list printed below, the program has created the file /users/s1155246974/li/fe2_quintet/fe2_quintet.bibtex that contains the list in bibtex format
You can import this file easily into all common literature databanks and citation aid programs


List of essential papers. We consider these as the minimum necessary citations

  1. Neese, F.
     Software update: the ORCA program system, version 6.0
     WIRES Comput. Molec. Sci. 2025 15(1), e70019
     doi.org/10.1002/wcms.7019

List of papers to cite with high priority. The work reported in these papers was absolutely
necessary for this run to complete.
Our perspective: the developers of density functionals and basis sets usually get cited in chemistry papers
Good! But without the algorithms to do something with them, the functionals or basis sets would not do anything.
Hence, in our opinion, the algorithm design and method developments papers are equally worthy of getting cited

  1. Neese, F.
     An improvement of the resolution of the identity approximation for the formation of the Coulomb matrix
     J. Comp. Chem. 2003 24(14), 1740-1747
     doi.org/10.1002/jcc.10318
  2. Neese, F.; Wennmohs, F.; Hansen, A.; Becker, U.
     Efficient, approximate and parallel Hartree-Fock and hybrid DFT calculations. A 'chain-of-spheres' algorithm for the Hartree-Fock exchange
     Chem. Phys. 2009 356(1-3), 98-109
     doi.org/10.1016/j.chemphys.2008.10.036
  3. Bykov, D.; Petrenko, T.; Izsak, R.; Kossmann, S.; Becker, U.; Valeev, E.; Neese, F.
     Efficient implementation of the analytic second derivatives of Hartree-Fock and hybrid DFT energies: a detailed analysis of different approximations
     Molec. Phys. 2015 113 , 1961-1977
     doi.org/10.1080/00268976.2015.1025114
  4. Helmich-Paris, B.; de Souza, B.; Neese, F.; Izsák, R.
     An improved chain of spheres for exchange algorithm
     J. Chem. Phys. 2021 155(10), 104109
     doi.org/10.1063/5.0058766
  5. Neese, F.
     The SHARK Integral Generation and Digestion System
     J. Comp. Chem. 2022 44(3), 381
     doi.org/10.1002/jcc.26942

List of suggested additional citations. These are papers that are important in the 'surrounding' of 
of this run, or papers that preceded the highly important papers. If you like your results we are grateful for a citation.

  1. Izsak, R.; Neese, F.
     An overlap fitted chain of spheres exchange method
     J. Chem. Phys. 2011 135 , 144105
     doi.org/10.1063/1.3646921
  2. Izsak, R.; Hansen, A.; Neese, F.
     The resolution of identity and chain of spheres approximations for the LPNO-CCSD singles Fock term
     Molec. Phys. 2012 110 , 2413-2417
     doi.org/10.1080/00268976.2012.687466
  3. Neese, F.
     The ORCA program system
     WIRES Comput. Molec. Sci. 2012 2(1), 73-78
     doi.org/10.1002/wcms.81
  4. Izsak, R.; Neese, F.; Klopper, W.
     Robust fitting techniques in the chain of spheres approximation to the Fock exchange: The role of the complementary space
     J. Chem. Phys. 2013 139 , 
     doi.org/10.1063/1.4819264
  5. Neese, F.
     Software update: the ORCA program system, version 4.0
     WIRES Comput. Molec. Sci. 2018 8(1), 1-6
     doi.org/10.1002/wcms.1327
  6. Neese, F.; Wennmohs, F.; Becker, U.; Riplinger, C.
     The ORCA quantum chemistry program package
     J. Chem. Phys. 2020 152(22), 224108
     doi.org/10.1063/5.0004608
  7. Neese, F.
     Software update: The ORCA program system—Version 5.0
     WIRES Comput. Molec. Sci. 2022 12(1), e1606
     doi.org/10.1002/wcms.1606

List of optional additional citations

  1. Neese, F.
     Approximate second-order SCF convergence for spin unrestricted wavefunctions
     Chem. Phys. Lett. 2000 325(1-3), 93-98
     doi.org/10.1016/s0009-2614(00)00662-x

Timings for individual modules:

Sum of individual times          ...     4524.037 sec (=  75.401 min)
Startup calculation              ...      503.444 sec (=   8.391 min)  11.1 %
SCF iterations                   ...     3650.065 sec (=  60.834 min)  80.7 %
Property integrals               ...      111.522 sec (=   1.859 min)   2.5 %
SCF Gradient evaluation          ...      255.850 sec (=   4.264 min)   5.7 %
Geometry relaxation              ...        3.156 sec (=   0.053 min)   0.1 %
                             ****ORCA TERMINATED NORMALLY****
TOTAL RUN TIME: 0 days 1 hours 31 minutes 12 seconds 451 msec
