
                                 *****************
                                 * O   R   C   A *
                                 *****************

                                            #,                                       
                                            ###                                      
                                            ####                                     
                                            #####                                    
                                            ######                                   
                                           ########,                                 
                                     ,,################,,,,,                         
                               ,,#################################,,                 
                          ,,##########################################,,             
                       ,#########################################, ''#####,          
                    ,#############################################,,   '####,        
                  ,##################################################,,,,####,       
                ,###########''''           ''''###############################       
              ,#####''   ,,,,##########,,,,          '''####'''          '####       
            ,##' ,,,,###########################,,,                        '##       
           ' ,,###''''                  '''############,,,                           
         ,,##''                                '''############,,,,        ,,,,,,###''
      ,#''                                            '''#######################'''  
     '                                                          ''''####''''         
             ,#######,   #######,   ,#######,      ##                                
            ,#'     '#,  ##    ##  ,#'     '#,    #''#        ,####,    ,#,          
            ##       ##  ##   ,#'  ##            #'  '#       #'       ,# #          
            ##       ##  #######   ##           ,######,      #####,      #          
            '#,     ,#'  ##    ##  '#,     ,#' ,#      #,     #,   #      #          
             '#######'   ##     ##  '#######'  #'      '#     '####' #    #          



                #########################################################
                #                        -***-                          #
                #          Department of theory and spectroscopy        #
                #                                                       #
                #                      Frank Neese                      #
                #                                                       #
                #     Directorship, Architecture, Infrastructure        #
                #                    SHARK, DRIVERS                     #
                #        Core code/Algorithms in most modules           #
                #                                                       #
                #        Max Planck Institute fuer Kohlenforschung      #
                #                Kaiser Wilhelm Platz 1                 #
                #                 D-45470 Muelheim/Ruhr                 #
                #                      Germany                          #
                #                                                       #
                #                  All rights reserved                  #
                #                        -***-                          #
                #########################################################


                         Program Version 6.1.0  -  RELEASE   -
                                (GIT: $679e74b$)
                          ($2025-06-10 18:02:51 +0200$)


 With contributions from (in alphabetic order):
[Max-Planck-Institut fuer Kohlenforschung]                               
  Daniel Aravena         : Magnetic Suceptibility                        
  Michael Atanasov       : Ab Initio Ligand Field Theory (pilot matlab implementation)
  Alexander A. Auer      : GIAO ZORA, VPT2 properties, NMR spectrum      
  Ute Becker             : All parallelization in ORCA, NUMFREQ, NUMCALC 
  Giovanni Bistoni       : ED, misc. LED, open-shell LED, HFLD           
  Dmytro Bykov           : pre 5.0 version of the SCF Hessian            
  Marcos Casanova-Páez   : Triplet and SCS-CIS(D). UHF-(DLPNO)-IP/EA/STEOM-CCSD. UHF-CVS-IP/STEOM-CCSD   
  Vijay G. Chilkuri      : MRCI spin determinant printing, contributions to CSF-ICE 
  Pauline Colinet        : FMM embedding                                 
  Dipayan Datta          : RHF DLPNO-CCSD density                        
  Achintya Kumar Dutta   : EOM-CC, STEOM-CC                              
  Nicolas Foglia         : Exact transition moments, OPA infrastructure, MCD improvements    
  Dmitry Ganyushin       : Spin-Orbit,Spin-Spin,Magnetic field MRCI      
  Miquel Garcia-Rates    : C-PCM and meta-GGA Hessian, CCSD/C-PCM, Gaussian charge scheme 
  Tiago L. C. Gouveia    : GS-ROHF, GS-ROCIS                             
  Yang Guo               : DLPNO-NEVPT2, F12-NEVPT2, CIM, IAO-localization        
  Andreas Hansen         : Spin unrestricted coupled pair/coupled cluster methods 
  Ingolf Harden          : AUTO-CI MPn and infrastructure                
  Benjamin Helmich-Paris : MC-RPA, TRAH-(SCF,CASSCF), AVAS, COSX integrals, SCF dyn. polar., MC-PDFT, srDFT 
  Lee Huntington         : MR-EOM, pCC                                   
  Robert Izsak           : Overlap fitted RIJCOSX, COSX-SCS-MP3, EOM     
  Riya Kayal             : Wick's Theorem for AUTO-CI, AUTO-CI UHF-CCSDT 
  Emily Kempfer          : AUTO-CI RHF CISDT and CCSDT, approximate NEVPT4
  Christian Kollmar      : KDIIS, OOCD, Brueckner-CCSD(T), CCSD density, CASPT2, CASPT2-K, improved NEVPT2 
  Axel Koslowski         : Symmetry handling                             
  Simone Kossmann        : meta-GGA functionals, TD-DFT gradient, OOMP2, (MP2 Hessian; deprecated post 5.0) 
  Lucas Lang             : DCDCAS, Hyperfine gauge corrections, ICE-SOC+SSC
  Marvin Lechner         : AUTO-CI (C++ implementation), FIC-MRCC        
  Spencer Leger          : CASSCF response                               
  Dagmar Lenk            : GEPOL surface, SMD, ORCA-2-JSON               
  Dimitrios Liakos       : Extrapolation schemes; Compound Job, Property file
  Dimitrios Manganas     : Further ROCIS development; embedding schemes. LFT, Crystal Embedding 
  Dimitrios Pantazis     : SARC Basis sets                               
  Anastasios Papadopoulos: AUTO-CI, single reference methods and gradients 
  Taras Petrenko         : pre 6.0 DFT Hessian and TD-DFT gradient,  ECA, NRVS 
  Petra Pikulova         : Analytic Raman intensities                    
  Peter Pinski           : DLPNO-MP2, DLPNO-MP2 Gradient                 
  Shashank Vittal Rao    : ES-AILFT, MagRelax                            
  Christoph Reimann      : Effective Core Potentials                     
  Marius Retegan         : Local ZFS, SOC                                
  Christoph Riplinger    : Optimizer, TS searches, QM/MM, DLPNO-CCSD(T), (RO)-DLPNO pert. Triples 
  Michael Roemelt        : Original ROCIS implementation, recursive CI coupling coefficients
  Masaaki Saitow         : Open-shell DLPNO-CCSD energy and density      
  Barbara Sandhoefer     : DKH picture change effects                    
  Yorick L. A. Schmerwitz: GMF and freeze-and-release deltaSCF, NEB S-IDPP initial path                    
  Kantharuban Sivalingam : CASSCF convergence/infrastructure, NEVPT2, NEVPT3, NEVPT4(SD), FIC-MRCI and CEPA variants
  Bernardo de Souza      : ESD, SOC TD-DFT                               
  Georgi L. Stoychev     : AutoAux, RI-MP2 NMR, DLPNO-MP2 response, X2C  
  Van Anh Tran           : RI-MP2 g-tensors                              
  Willem Van den Heuvel  : Paramagnetic NMR                              
  Zikuan Wang            : NOTCH, Electric field optimization            
  Frank Wennmohs         : Technical directorship and infrastructure     
  Hang Xu                : AUTO-CI-Response properties                   
                                                                         
[FACCTs GmbH]                                                            
  Markus Bursch, Nicolas Foglia, Miquel Garcia-Rates, Ingolf Harden, Hagen Neugebauer, Anastasios Papadopoulos, 
  Christoph Riplinger, Bernardo de Souza, Georgi L. Stoychev                                                    
                                                                 
  APM, various basis sets, CI-OPT, improved COSX, DLPNO-Multilevel,           
  DOCKER, DRACO, updates on ESD, Fragmentator, GOAT, IRC, LR-CPCM, L-BFGS, MBIS, meta-GGA TD-DFT gradient, ML-optimized integration grids, 
  MM, NACMEs, nearIR, NEB, NEB-TS, NL-DFT gradient (VV10), 2- and 3-layer-ONIOM, interface openCOSMO-RS, QMMM,   
  Crystal-QMMM, RESP, rigid body optimization, SF, symmetry and pop. for TD-DFT, various functionals, SOLVATOR                                   
                                                                         
[Other institutions]                                                     
  V. Asgeirsson          : NEB                                           
  Christoph Bannwarth    : sTDA-DFT, sTD-DFT, PBEh-3c, B97-3c, D3        
  Giovanni Bistoni       : ETS/NOCV, ADLD/ADEX, COVALED                  
  Martin Brehm           : Molecular dynamics                            
  Ronald Cardenas        : ETS/NOCV                                      
  Martina Colucci        : COVALED                                       
  Sebastian Ehlert       : rSCAN, r2SCAN, r2SCAN-3c, D4, dhf basis sets  
  Marvin Friede          : D4 for Fr, Ra, Ac-Lr                          
  Lars Goerigk           : TD-DFT with DH, B97 family of functionals     
  Stefan Grimme          : VdW corrections, initial TS optimization, DFT functionals, gCP, sTDA/sTD-DF 
  Waldemar Hujo          : DFT-NL                                        
  H. Jonsson             : NEB                                           
  Holger Kruse           : gCP                                           
  Marcel Mueller         : wB97X-3c, vDZP basis set                      
  Hagen Neugebauer       : wr2SCAN, Native XTB                           
  Gianluca Regni         : ADLD/ADEX                                     
  Tobias Risthaus        : pre 6.0 range-separated hybrid DFT and stability analysis
  Lukas Wittmann         : regularized MP2, r2SCAN double-hybrids, wr2SCAN        
                                                                         
We gratefully acknowledge several colleagues who have allowed us to      
interface, adapt or use parts of their codes:                            
  Ed Valeev, F. Pavosevic, A. Kumar             : LibInt (2-el integral package), F12 methods 
  Garnet Chan, S. Sharma, J. Yang, R. Olivares  : DMRG                   
  Ulf Ekstrom                                   : XCFun DFT Library      
  Mihaly Kallay                                 : mrcc  (arbitrary order and MRCC methods)
  Frank Weinhold                                : gennbo (NPA and NBO analysis)           
  Simon Mueller                                 : openCOSMO-RS                            
  Christopher J. Cramer and Donald G. Truhlar   : smd solvation model                     
  S Lehtola, MJT Oliveira, MAL Marques          : LibXC Library                           
  Liviu Ungur et al                             : ANISO software                          


 Your calculation uses the libint2 library for the computation of 2-el integrals
 For citations please refer to: http://libint.valeyev.net

 Your ORCA version has been built with support for libXC version: 7.0.0
 For citations please refer to: https://libxc.gitlab.io

 This ORCA versions uses:
   CBLAS   interface :  Fast vector & matrix operations
   LAPACKE interface :  Fast linear algebra routines
   SCALAPACK package :  Parallel linear algebra routines
   Shared memory     :  Shared parallel matrices
   BLAS/LAPACK       :  OpenBLAS 0.3.29  USE64BITINT DYNAMIC_ARCH NO_AFFINITY Cooperlake SINGLE_THREADED
        Core in use  :  Cooperlake
   Copyright (c) 2011-2014, The OpenBLAS Project


  ***********************************
  * Starting time: Fri Nov 28 16:48:36 2025
  * Host name:     chpc-cn077.rc.cuhk.edu.hk
  * Process ID:    3151821
  * Working dir.:  /lustre/scratch/xlzhang/zihan/fe2_triplet
  ***********************************

NOTE: MaxCore=2109 MB was set to SCF,MP2,MDCI,CIPSI,MRCI,RASCI and CIS
      => If you want to overwrite this, your respective input block should be placed after the MaxCore statement
XCFun DFT library Copyright 2009-2010 Ulf Ekstrom and contributors.
See http://admol.org/xcfun for more information.
This is free software; see the source code for copying conditions.
There is ABSOLUTELY NO WARRANTY; not even for MERCHANTABILITY or FITNESS FOR A PARTICULAR PURPOSE.
For details see the documentation.
Scientific users of this library should cite U. Ekstrom, L. Visscher, R. Bast, A. J. Thorvaldsen and K. Ruud;
J.Chem.Theor.Comp. 2010, DOI: 10.1021/ct100117s
XCFun Version 0.99 

Warning: RI is on but no J-basis has been assigned. Assigning Def2/J (nothing to worry about!)
================================================================================

----- Orbital basis set information -----
Your calculation utilizes the basis: def2-SVP
   F. Weigend and R. Ahlrichs, Phys. Chem. Chem. Phys. 7, 3297 (2005).

----- AuxJ basis set information -----
Your calculation utilizes the auxiliary basis: def2/J
   H-Rn: F. Weigend, Phys. Chem. Chem. Phys. 8, 1057 (2006).
   Fr-Lr: K. Eichkorn, F. Weigend, O. Treutler, R. Ahlrichs; Theor. Chem. Acc. 97, 119 (1997).

================================================================================
                                        WARNINGS
                       Please study these warnings very carefully!
================================================================================


WARNING: your system is open-shell and RHF/RKS was chosen
  ===> : WILL SWITCH to UHF/UKS

WARNING: Functional chosen is sensitive to the integration grid.
         DEFGRID3 seems to be a minimum grid for robust results!

WARNING: Geometry Optimization
  ===> : Switching off AutoStart
         For restart on a previous wavefunction, please use MOREAD

================================================================================
                                       INPUT FILE
================================================================================
NAME = /users/s1155246974/li/fe2_triplet/fe2_triplet.inp
|  1> ! Opt Freq M062X def2-SVP defgrid2
|  2> # Number of processors
|  3> %pal nprocs 64 end
|  4> # Memory per core
|  5> %maxcore 2109
|  6> * xyz 2 3
|  7> Fe      -2.1311475900   -0.9394703500    0.0000000000
|  8> O       -2.1311475900    0.8805296500    0.0000000000
|  9> H       -1.6783051600    1.2005296500    0.7836668500
| 10> O       -3.9511475900   -0.9394703500    0.0000000000
| 11> H       -4.2711475900   -1.6929644800   -0.5014445000
| 12> O       -2.1311475900   -2.7594703500    0.0000000000
| 13> H       -1.3001591600   -3.2394703500   -0.0256561100
| 14> O       -0.3111475900   -0.9394703500    0.0000000000
| 15> H        0.1688524100   -0.8543234600   -0.8270127000
| 16> H       -2.9621360100   -3.2394703500    0.0256561100
| 17> H       -4.2711475900   -0.1284596100   -0.4018228100
| 18> H        0.1688524100   -1.0246172500    0.8270127000
| 19> H       -1.6788934000    1.2005296500   -0.7840064700
| 20> *
| 21> 
| 22>                          ****END OF INPUT****
================================================================================

                       *****************************
                       * Geometry Optimization Run *
                       *****************************

Geometry optimization settings:
Update method            Update   .... BFGS
Choice of coordinates    CoordSys .... (2022) Redundant Internals
Initial Hessian          InHess   .... Almloef's Model
Max. no of cycles        MaxIter  .... 50

Convergence Tolerances:
Energy Change            TolE     ....  5.0000e-06 Eh
Max. Gradient            TolMAXG  ....  3.0000e-04 Eh/bohr
RMS Gradient             TolRMSG  ....  1.0000e-04 Eh/bohr
Max. Displacement        TolMAXD  ....  4.0000e-03 bohr
RMS Displacement         TolRMSD  ....  2.0000e-03 bohr
Strict Convergence                .... False

------------------------------------------------------------------------------
                        ORCA OPTIMIZATION COORDINATE SETUP
------------------------------------------------------------------------------

The optimization will be done in redundant internal coordinates (2022)
Making redundant internal coordinates   ...  (2022 redundants) done
Evaluating the initial hessian          ...  (Almloef) done
Evaluating the coordinates              ...  done
Calculating the B-matrix                .... done
Calculating the G-matrix                .... done
The number of degrees of freedom        ....   52

    -----------------------------------------------------------------
                    Redundant Internal Coordinates


    -----------------------------------------------------------------
         Definition                    Initial Value    Approx d2E/dq
    -----------------------------------------------------------------
      1. B(O   1,Fe  0)                  1.8200         1.166709   
      2. B(H   2,O   1)                  0.9600         0.519956   
      3. B(O   3,Fe  0)                  1.8200         1.166709   
      4. B(H   4,O   3)                  0.9600         0.519956   
      5. B(O   5,Fe  0)                  1.8200         1.166709   
      6. B(H   6,O   5)                  0.9600         0.519956   
      7. B(O   7,Fe  0)                  1.8200         1.166709   
      8. B(H   8,O   7)                  0.9600         0.519956   
      9. B(H   9,O   5)                  0.9600         0.519956   
     10. B(H  10,O   3)                  0.9600         0.519956   
     11. B(H  11,O   7)                  0.9600         0.519956   
     12. B(H  12,O   1)                  0.9600         0.519956   
     13. A(O   1,Fe  0,O   3)           90.0000         0.694653   
     14. A(O   5,Fe  0,O   7)           90.0000         0.694653   
     15. A(O   1,Fe  0,O   7)           90.0000         0.694653   
     16. A(O   3,Fe  0,O   5)           90.0000         0.694653   
     17. A(Fe  0,O   1,H  12)          109.4712         0.464522   
     18. A(H   2,O   1,H  12)          109.4712         0.321834   
     19. A(Fe  0,O   1,H   2)          109.4712         0.464522   
     20. A(H   4,O   3,H  10)          109.4712         0.321834   
     21. A(Fe  0,O   3,H   4)          109.4712         0.464522   
     22. A(Fe  0,O   3,H  10)          109.4712         0.464522   
     23. A(H   6,O   5,H   9)          120.0000         0.321834   
     24. A(Fe  0,O   5,H   6)          120.0000         0.464522   
     25. A(Fe  0,O   5,H   9)          120.0000         0.464522   
     26. A(H   8,O   7,H  11)          120.0000         0.321834   
     27. A(Fe  0,O   7,H  11)          120.0000         0.464522   
     28. A(Fe  0,O   7,H   8)          120.0000         0.464522   
     29. D(H  12,O   1,Fe  0,O   3)   -119.9785         0.010000   
     30. D(H  12,O   1,Fe  0,O   7)     60.0215         0.010000   
     31. D(H   2,O   1,Fe  0,O   3)    120.0215         0.010000   
     32. D(H   2,O   1,Fe  0,O   7)    -59.9785         0.010000   
     33. D(H   4,O   3,Fe  0,O   5)    -33.6435         0.010000   
     34. D(H   4,O   3,Fe  0,O   1)    146.3565         0.010000   
     35. D(H  10,O   3,Fe  0,O   1)     26.3565         0.010000   
     36. D(H  10,O   3,Fe  0,O   5)   -153.6435         0.010000   
     37. D(H   6,O   5,O   1,H  12)     58.2531         0.010000   
     38. D(H   6,O   5,O   1,H   2)    -61.7469         0.010000   
     39. D(H   9,O   5,Fe  0,O   7)    178.2316         0.010000   
     40. D(H   9,O   5,Fe  0,O   3)     -1.7684         0.010000   
     41. D(H   6,O   5,Fe  0,O   7)     -1.7684         0.010000   
     42. D(H   9,O   5,O   1,H   2)    118.2531         0.010000   
     43. D(H   6,O   5,Fe  0,O   3)    178.2316         0.010000   
     44. D(H   9,O   5,O   1,H  12)   -121.7469         0.010000   
     45. D(H  11,O   7,O   3,H  10)    122.2348         0.010000   
     46. D(H   8,O   7,O   3,H  10)    -57.7652         0.010000   
     47. D(H   8,O   7,O   3,H   4)     62.2348         0.010000   
     48. D(H  11,O   7,Fe  0,O   5)    -84.1217         0.010000   
     49. D(H  11,O   7,Fe  0,O   1)     95.8783         0.010000   
     50. D(H  11,O   7,O   3,H   4)   -117.7652         0.010000   
     51. D(H   8,O   7,Fe  0,O   5)     95.8783         0.010000   
     52. D(H   8,O   7,Fe  0,O   1)    -84.1217         0.010000   
    -----------------------------------------------------------------

Number of atoms                         .... 13
Number of degrees of freedom            .... 52


         *************************************************************
         *                GEOMETRY OPTIMIZATION CYCLE   1            *
         *************************************************************
---------------------------------
CARTESIAN COORDINATES (ANGSTROEM)
---------------------------------
  Fe    -2.131148   -0.939470    0.000000
  O     -2.131148    0.880530    0.000000
  H     -1.678305    1.200530    0.783667
  O     -3.951148   -0.939470    0.000000
  H     -4.271148   -1.692964   -0.501444
  O     -2.131148   -2.759470    0.000000
  H     -1.300159   -3.239470   -0.025656
  O     -0.311148   -0.939470    0.000000
  H      0.168852   -0.854323   -0.827013
  H     -2.962136   -3.239470    0.025656
  H     -4.271148   -0.128460   -0.401823
  H      0.168852   -1.024617    0.827013
  H     -1.678893    1.200530   -0.784006

----------------------------
CARTESIAN COORDINATES (A.U.)
----------------------------
  NO LB      ZA    FRAG     MASS         X           Y           Z
   0 Fe   26.0000    0    55.850   -4.027285   -1.775342    0.000000
   1 O     8.0000    0    15.999   -4.027285    1.663960    0.000000
   2 H     1.0000    0     1.008   -3.171537    2.268672    1.480916
   3 O     8.0000    0    15.999   -7.466587   -1.775342    0.000000
   4 H     1.0000    0     1.008   -8.071299   -3.199239   -0.947593
   5 O     8.0000    0    15.999   -4.027285   -5.214643    0.000000
   6 H     1.0000    0     1.008   -2.456945   -6.121712   -0.048483
   7 O     8.0000    0    15.999   -0.587984   -1.775342    0.000000
   8 H     1.0000    0     1.008    0.319085   -1.614437   -1.562828
   9 H     1.0000    0     1.008   -5.597626   -6.121712    0.048483
  10 H     1.0000    0     1.008   -8.071299   -0.242753   -0.759335
  11 H     1.0000    0     1.008    0.319085   -1.936246    1.562828
  12 H     1.0000    0     1.008   -3.172649    2.268672   -1.481558

--------------------------------
INTERNAL COORDINATES (ANGSTROEM)
--------------------------------
 Fe     0   0   0     0.000000000000     0.00000000     0.00000000
 O      1   0   0     1.820000000000     0.00000000     0.00000000
 H      2   1   0     0.959999999061   109.47122065     0.00000000
 O      1   2   3     1.820000000000    90.00000000   120.02149934
 H      4   1   2     0.959999995065   109.47122074   146.35654271
 O      1   2   3     1.820000000000   180.00000000     0.00000000
 H      6   1   2     0.960000003528   119.99999988     0.00000000
 O      1   2   3     1.820000000000    90.00000000   300.02149934
 H      8   1   2     0.959999999395   120.00000002   275.87829955
 H      6   1   8     0.959999994872   120.00000018   178.23159989
 H      4   1   2     0.959999995329   109.47122073    26.35654283
 H      8   1   2     0.960000000282   119.99999999    95.87830024
 H      2   1   3     0.959999998633   109.47122066   119.99999963

---------------------------
INTERNAL COORDINATES (A.U.)
---------------------------
 Fe     0   0   0     0.000000000000     0.00000000     0.00000000
 O      1   0   0     3.439301563737     0.00000000     0.00000000
 H      2   1   0     1.814137086790   109.47122065     0.00000000
 O      1   2   3     3.439301563737    90.00000000   120.02149934
 H      4   1   2     1.814137079239   109.47122074   146.35654271
 O      1   2   3     3.439301563737   180.00000000     0.00000000
 H      6   1   2     1.814137095232   119.99999988     0.00000000
 O      1   2   3     3.439301563737    90.00000000   300.02149934
 H      8   1   2     1.814137087421   120.00000002   275.87829955
 H      6   1   8     1.814137078874   120.00000018   178.23159989
 H      4   1   2     1.814137079737   109.47122073    26.35654283
 H      8   1   2     1.814137089097   119.99999999    95.87830024
 H      2   1   3     1.814137085980   109.47122066   119.99999963

---------------------
BASIS SET INFORMATION
---------------------
There are 3 groups of distinct atoms

 Group   1 Type Fe  : 14s9p5d1f contracted to 5s3p2d1f pattern {63311/531/41/1}
 Group   2 Type O   : 7s4p1d contracted to 3s2p1d pattern {511/31/1}
 Group   3 Type H   : 4s1p contracted to 2s1p pattern {31/1}

Atom   0Fe   basis set group =>   1
Atom   1O    basis set group =>   2
Atom   2H    basis set group =>   3
Atom   3O    basis set group =>   2
Atom   4H    basis set group =>   3
Atom   5O    basis set group =>   2
Atom   6H    basis set group =>   3
Atom   7O    basis set group =>   2
Atom   8H    basis set group =>   3
Atom   9H    basis set group =>   3
Atom  10H    basis set group =>   3
Atom  11H    basis set group =>   3
Atom  12H    basis set group =>   3
---------------------------------
AUXILIARY/J BASIS SET INFORMATION
---------------------------------
There are 3 groups of distinct atoms

 Group   1 Type Fe  : 19s5p5d3f3g contracted to 8s5p5d2f3g pattern {121111111/11111/11111/21/111}
 Group   2 Type O   : 12s5p4d2f1g contracted to 6s4p3d1f1g pattern {711111/2111/211/2/1}
 Group   3 Type H   : 5s2p1d contracted to 3s1p1d pattern {311/2/1}

Atom   0Fe   basis set group =>   1
Atom   1O    basis set group =>   2
Atom   2H    basis set group =>   3
Atom   3O    basis set group =>   2
Atom   4H    basis set group =>   3
Atom   5O    basis set group =>   2
Atom   6H    basis set group =>   3
Atom   7O    basis set group =>   2
Atom   8H    basis set group =>   3
Atom   9H    basis set group =>   3
Atom  10H    basis set group =>   3
Atom  11H    basis set group =>   3
Atom  12H    basis set group =>   3


           ************************************************************
           *        Program running with 64 parallel MPI-processes    *
           *              working on a common directory               *
           ************************************************************
------------------------------------------------------------------------------
                             ORCA STARTUP CALCULATIONS
                           -- RI-GTO INTEGRALS CHOSEN --
------------------------------------------------------------------------------
------------------------------------------------------------------------------
                   ___                                                        
                  /   \      - P O W E R E D   B Y -                         
                 /     \                                                     
                 |  |  |   _    _      __       _____    __    __             
                 |  |  |  | |  | |    /  \     |  _  \  |  |  /  |          
                  \  \/   | |  | |   /    \    | | | |  |  | /  /          
                 / \  \   | |__| |  /  /\  \   | |_| |  |  |/  /          
                |  |  |   |  __  | /  /__\  \  |    /   |      \           
                |  |  |   | |  | | |   __   |  |    \   |  |\   \          
                \     /   | |  | | |  |  |  |  | |\  \  |  | \   \       
                 \___/    |_|  |_| |__|  |__|  |_| \__\ |__|  \__/        
                                                                              
                      - O R C A' S   B I G   F R I E N D -                    
                                      &                                       
                       - I N T E G R A L  F E E D E R -                       
                                                                              
 v1 FN, 2020, v2 2021, v3 2022-2024                                           
------------------------------------------------------------------------------


----------------------
SHARK INTEGRAL PACKAGE
----------------------

Number of atoms                             ...     13
Number of basis functions                   ...    127
Number of shells                            ...     59
Maximum angular momentum                    ...      3
Integral batch strategy                     ... SHARK/LIBINT Hybrid
RI-J (if used) integral strategy            ... SPLIT-RIJ (Revised 2003 algorithm where possible)
Printlevel                                  ...      1
Contraction scheme used                     ... SEGMENTED contraction
Prescreening option                         ... SCHWARTZ
   Thresh                                   ... 2.500e-11
   Tcut                                     ... 2.500e-12
   Tpresel                                  ... 2.500e-12 
Coulomb Range Separation                    ... NOT USED
Exchange Range Separation                   ... NOT USED
Multipole approximations                    ... NOT USED
Finite Nucleus Model                        ... NOT USED
CABS basis                                  ... NOT available
Auxiliary Coulomb fitting basis             ... AVAILABLE
   # of basis functions in Aux-J            ...    373
   # of shells in Aux-J                     ...    123
   Maximum angular momentum in Aux-J        ...      4
Auxiliary J/K fitting basis                 ... NOT available
Auxiliary Correlation fitting basis         ... NOT available
Auxiliary 'external' fitting basis          ... NOT available

Checking pre-screening integrals            ... done (  0.4 sec) Dimension = 59
   => SHARK Basis and OBASIS are compatible. Storing Pre-screening
Shell pair information
Shell pair cut-off parameter TPreSel        ...   2.5e-12
Total number of shell pairs                 ...      1770
Shell pairs after pre-screening             ...      1720
Total number of primitive shell pairs       ...      7019
Primitive shell pairs kept                  ...      5099
          la=0 lb=0:    539 shell pairs
          la=1 lb=0:    607 shell pairs
          la=1 lb=1:    186 shell pairs
          la=2 lb=0:    194 shell pairs
          la=2 lb=1:    114 shell pairs
          la=2 lb=2:     21 shell pairs
          la=3 lb=0:     33 shell pairs
          la=3 lb=1:     19 shell pairs
          la=3 lb=2:      6 shell pairs
          la=3 lb=3:      1 shell pairs

Checking whether 4 symmetric matrices of dimension 127 fit in memory
:Max Core in MB      =   2109.00
 MB in use           =      5.62
 MB left             =   2103.38
 MB needed           =      0.25
 Data fit in memory  = YES
Calculating RI/J V-Matrix + Cholesky decomp.... done (  0.5 sec)
Calculating Nuclear repulsion               ... done (  0.0 sec) ENN=    430.839247573102 Eh

Diagonalization of the overlap matrix:
Smallest eigenvalue                        ... 1.524e-02
Time for diagonalization                   ...    0.003 sec
Threshold for overlap eigenvalues          ... 1.000e-07
Number of eigenvalues below threshold      ... 0
Time for construction of square roots      ...    0.126 sec
Total time needed                          ...    0.264 sec

-------------------
DFT GRID GENERATION
-------------------

General Integration Accuracy     IntAcc      ... 4.388
Radial Grid Type                 RadialGrid  ... OptM3 with GC (2021)
Angular Grid (max. ang.)         AngularGrid ... 4 (Lebedev-302)
Angular grid pruning method      GridPruning ... 4 (adaptive)
Weight generation scheme         WeightScheme... mBecke (2022)
Basis function cutoff            BFCut       ... 1.0000e-11
Integration weight cutoff        WCut        ... 1.0000e-14
Partially contracted basis set               ... off
Rotationally invariant grid construction     ... off
Angular grids for H and He will be reduced by one unit
Core-polarized basis detected: some atoms will have their core
                               angular grid increased.

Total number of grid points                  ...    61293
Total number of batches                      ...      963
Average number of points per batch           ...       63
Average number of grid points per atom       ...     4715

--------------------
COSX GRID GENERATION
--------------------

GRIDX 1
-------
General Integration Accuracy     IntAcc      ... 3.816
Radial Grid Type                 RadialGrid  ... OptM3 with GC (2021)
Angular Grid (max. ang.)         AngularGrid ... 1 (Lebedev-50)
Angular grid pruning method      GridPruning ... 4 (adaptive)
Weight generation scheme         WeightScheme... mBecke (2022)
Basis function cutoff            BFCut       ... 1.0000e-11
Integration weight cutoff        WCut        ... 1.0000e-14
Partially contracted basis set               ... on
Rotationally invariant grid construction     ... off
Angular grids for H and He will be reduced by one unit
Core-polarized basis detected: some atoms will have their core
                               angular grid increased.

Total number of grid points                  ...    12269
Total number of batches                      ...      101
Average number of points per batch           ...      121
Average number of grid points per atom       ...      944
UseSFitting                                  ... on

GRIDX 2
-------
General Integration Accuracy     IntAcc      ... 4.020
Radial Grid Type                 RadialGrid  ... OptM3 with GC (2021)
Angular Grid (max. ang.)         AngularGrid ... 2 (Lebedev-110)
Angular grid pruning method      GridPruning ... 4 (adaptive)
Weight generation scheme         WeightScheme... mBecke (2022)
Basis function cutoff            BFCut       ... 1.0000e-11
Integration weight cutoff        WCut        ... 1.0000e-14
Partially contracted basis set               ... on
Rotationally invariant grid construction     ... off
Angular grids for H and He will be reduced by one unit
Core-polarized basis detected: some atoms will have their core
                               angular grid increased.

Total number of grid points                  ...    19358
Total number of batches                      ...      159
Average number of points per batch           ...      121
Average number of grid points per atom       ...     1489
UseSFitting                                  ... on

GRIDX 3
-------
General Integration Accuracy     IntAcc      ... 4.338
Radial Grid Type                 RadialGrid  ... OptM3 with GC (2021)
Angular Grid (max. ang.)         AngularGrid ... 3 (Lebedev-194)
Angular grid pruning method      GridPruning ... 4 (adaptive)
Weight generation scheme         WeightScheme... mBecke (2022)
Basis function cutoff            BFCut       ... 1.0000e-11
Integration weight cutoff        WCut        ... 1.0000e-14
Partially contracted basis set               ... on
Rotationally invariant grid construction     ... off
Angular grids for H and He will be reduced by one unit
Core-polarized basis detected: some atoms will have their core
                               angular grid increased.

Total number of grid points                  ...    35546
Total number of batches                      ...      285
Average number of points per batch           ...      124
Average number of grid points per atom       ...     2734
UseSFitting                                  ... on
Grids setup in   9.3 sec
Initializing property integral containers    ... done (  0.4 sec)

SHARK setup successfully completed in  12.2 seconds

Maximum memory used throughout the entire STARTUP-calculation: 17.9 MB


           ************************************************************
           *        Program running with 64 parallel MPI-processes    *
           *              working on a common directory               *
           ************************************************************
-------------------------------------------------------------------------------
                                 ORCA GUESS
                   Start orbitals & Density for SCF / CASSCF
-------------------------------------------------------------------------------

------------
SCF SETTINGS
------------
Hamiltonian:
 Density Functional     Method          .... DFT(GTOs)
 Exchange Functional    Exchange        .... M062X
 Correlation Functional Correlation     .... M062X
 Gradients option       PostSCFGGA      .... off
 Hybrid DFT is turned on
   Fraction HF Exchange ScalHFX         ....  0.540000
   Scaling of DF-GGA-X  ScalDFX         ....  0.460000
   Scaling of DF-GGA-C  ScalDFC         ....  1.000000
   Scaling of DF-LDA-C  ScalLDAC        ....  1.000000
   Perturbative correction              ....  0.000000
 RI-approximation to the Coulomb term is turned on
   Number of AuxJ basis functions       .... 373
   RIJ-COSX (HFX calculated with COS-X)).... on


General Settings:
 Integral files         IntName         .... /users/s1155246974/li/fe2_triplet/fe2_triplet
 Hartree-Fock type      HFTyp           .... UHF
 Total Charge           Charge          ....    2
 Multiplicity           Mult            ....    3
 Number of Electrons    NEL             ....   64
 Basis Dimension        Dim             ....  127
 Nuclear Repulsion      ENuc            ....    430.8392475731 Eh

Convergence Acceleration:
 AO-DIIS                CNVDIIS         .... on
   Start iteration      DIISMaxIt       ....    12
   Startup error        DIISStart       ....  0.200000
   # of expansion vecs  DIISMaxEq       ....     5
   Bias factor          DIISBfac        ....   1.050
   Max. coefficient     DIISMaxC        ....  10.000
 MO-DIIS                CNVKDIIS        .... off
 Trust-Rad. Augm. Hess. CNVTRAH         .... auto
   Auto Start mean grad. ratio tolernc. ....  1.125000
   Auto Start start iteration           ....    50
   Auto Start num. interpolation iter.  ....    10
   Max. Number of Micro iterations      ....    24
   Max. Number of Macro iterations      .... Maxiter - #DIIS iter
   Number of Davidson start vectors     ....     2
   Converg. threshold    (grad. norm)   ....   1.000e-05
   Grad. Scal. Fac. for Micro threshold ....   0.100
   Minimum threshold for Micro iter.    ....   1.000e-02
   NR start threshold (gradient norm)   ....   1.000e-04
   Initial trust radius                 ....   0.400
   Minimum AH scaling param. (alpha)    ....   1.000
   Maximum AH scaling param. (alpha)    .... 1000.000
   Quad. conv. algorithm                .... NR
   White noise on init. David. guess    .... on
   Maximum white noise                  ....   0.010
   Pseudo random numbers                .... off
   Inactive MOs                         .... canonical
   Orbital update algorithm             .... Taylor
   Preconditioner                       .... Diag
   Full preconditioner red. dimension   ....   250
 SOSCF                 CNVSOSCF           .... on
   Start iteration     SOSCFMaxIt         ....   150
   Startup grad/error  SOSCFStart         ....  0.003300
   Hessian update      SOSCFHessUp        .... L-BFGS
   Autom. constraints  SOSCFAutoConstrain .... off
 Level Shifting         CNVShift        .... on
   Level shift para.    LevelShift      ....    0.2500
   Turn off err/grad.   ShiftErr        ....    0.0010
 Zerner damping         CNVZerner       .... off
 Static damping         CNVDamp         .... on
   Fraction old density DampFac         ....    0.7000
   Max. Damping (<1)    DampMax         ....    0.9800
   Min. Damping (>=0)   DampMin         ....    0.0000
   Turn off err/grad.   DampErr         ....    0.1000

SCF Procedure:
 Maximum # iterations   MaxIter         ....   125
 SCF integral mode      SCFMode         .... Direct
   Integral package                     .... SHARK and LIBINT hybrid scheme
 Reset frequency        DirectResetFreq ....    20
 Integral Threshold     Thresh          ....  2.500e-11 Eh
 Primitive CutOff       TCut            ....  2.500e-12 Eh

Convergence Tolerance:
 Convergence Check Mode ConvCheckMode   .... Total+1el-Energy
 Convergence forced     ConvForced      .... 0
 Energy Change          TolE            ....  1.000e-08 Eh
 1-El. energy change                    ....  1.000e-05 Eh
 Orbital Gradient       TolG            ....  1.000e-05
 Orbital Rotation angle TolX            ....  1.000e-05
 DIIS Error             TolErr          ....  5.000e-07

------------------------------
INITIAL GUESS: MODEL POTENTIAL
------------------------------
Loading Hartree-Fock densities                     ... done
Calculating cut-offs                               ... done
Initializing the effective Hamiltonian             ... done
Setting up the integral package (SHARK)            ... done
Starting the Coulomb interaction                   ... done (   1.1 sec)
Making the grid                                    ... done (   3.8 sec)
Mapping shells                                     ... done
Starting the XC term evaluation                    ... done (   0.0 sec)
  promolecular density results
     # of electrons  =     65.998544033
     EX              =    -89.331163655
     EC              =     -2.503922825
     EX+EC           =    -91.835086480
Transforming the Hamiltonian                       ... done (   0.2 sec)
Diagonalizing the Hamiltonian                      ... done (   0.6 sec)
Back transforming the eigenvectors                 ... done (   0.5 sec)
Now organizing SCF variables                       ... done
                      ------------------
                      INITIAL GUESS DONE (   7.4 sec)
                      ------------------
             **** ENERGY FILE WAS UPDATED (/users/s1155246974/li/fe2_triplet/fe2_triplet.en.tmp) ****
Finished Guess after  11.5 sec
Maximum memory used throughout the entire GUESS-calculation: 9.2 MB


           ************************************************************
           *        Program running with 64 parallel MPI-processes    *
           *              working on a common directory               *
           ************************************************************

-------------------------------------------------------------------------------------------
                                      ORCA LEAN-SCF
                              memory conserving SCF solver
-------------------------------------------------------------------------------------------

----------------------------------------D-I-I-S--------------------------------------------
Iteration    Energy (Eh)           Delta-E    RMSDP     MaxDP     DIISErr   Damp  Time(sec)
-------------------------------------------------------------------------------------------
               ***  Starting incremental Fock matrix formation  ***
    1    -1568.0297498306256330     0.00e+00  1.74e-02  3.06e-02  1.17e-01  0.700   9.6
    2    -1568.1190809143827209    -8.93e-02  1.06e-02  1.81e-02  5.91e-02  0.700   8.6
                               ***Turning on AO-DIIS***
    3    -1568.1578861987532036    -3.88e-02  4.14e-03  1.35e-02  2.46e-02  0.700   3.5
    4    -1568.1823506653806817    -2.45e-02  1.02e-02  3.84e-02  1.76e-02  0.000   6.2
    5    -1568.2389978083544975    -5.66e-02  2.31e-03  7.46e-03  5.97e-03  0.000   6.1
    6    -1568.2396109253970735    -6.13e-04  1.33e-03  5.81e-03  4.78e-03  0.000   4.9
    7    -1568.2398565806170154    -2.46e-04  1.09e-03  5.42e-03  3.78e-03  0.000   4.6
    8    -1568.2400117323602444    -1.55e-04  9.81e-04  5.02e-03  3.50e-03  0.000   2.8
    9    -1568.2401327181219131    -1.21e-04  9.89e-04  5.93e-03  3.47e-03  0.000   3.7
   10    -1568.2402452992105282    -1.13e-04  8.33e-04  5.22e-03  3.45e-03  0.000   8.4
   11    -1568.2403352153366995    -8.99e-05  6.96e-04  4.43e-03  3.49e-03  0.000  13.3
   12    -1568.2404097095579800    -7.45e-05  4.95e-04  3.07e-03  3.57e-03  0.000   8.3
   13    -1568.2404621899963786    -5.25e-05  2.24e-04  1.19e-03  3.66e-03  0.000   6.4
   14    -1568.2404842970040590    -2.21e-05  8.48e-05  5.53e-04  3.78e-03  0.000   5.2
   15    -1568.2404768585324746     7.44e-06  1.28e-04  8.61e-04  3.87e-03  0.000   3.0
   16    -1568.2404909117210536    -1.41e-05  2.65e-04  1.77e-03  3.85e-03  0.000   5.9
   17    -1568.2405200743410205    -2.92e-05  4.10e-04  2.69e-03  3.84e-03  0.000   4.2
   18    -1568.2405651769965971    -4.51e-05  4.29e-04  2.74e-03  3.83e-03  0.000   3.5
   19    -1568.2406122981392400    -4.71e-05  2.25e-04  1.29e-03  3.86e-03  0.000   6.8
   20    -1568.2406360404054340    -2.37e-05  1.42e-04  1.04e-03  3.93e-03  0.000   9.4
               *** Restarting incremental Fock matrix formation ***
                             ****Resetting DIIS****
   21    -1568.2417485361027047    -1.11e-03  1.12e-03  5.73e-03  4.05e-03  0.000  10.5
   22    -1568.2418517304397483    -1.03e-04  9.08e-04  5.58e-03  4.14e-03  0.000   8.7
   23    -1568.2419530494271385    -1.01e-04  5.57e-04  3.35e-03  4.21e-03  0.000   4.3
   24    -1568.2420161441659729    -6.31e-05  2.84e-04  1.72e-03  4.25e-03  0.000   2.9
   25    -1568.2420486140367757    -3.25e-05  5.95e-05  3.61e-04  4.26e-03  0.000   7.1
   26    -1568.2420418133015119     6.80e-06  3.81e-05  2.29e-04  4.26e-03  0.000   1.0
   27    -1568.2420461539070402    -4.34e-06  8.34e-04  4.97e-03  4.26e-03  0.000   0.7
   28    -1568.2421417697587458    -9.56e-05  6.56e-05  3.89e-04  4.31e-03  0.000   0.5
   29    -1568.2421492983362441    -7.53e-06  3.14e-04  1.84e-03  4.31e-03  0.000   1.0
   30    -1568.2421855614302331    -3.63e-05  9.78e-05  5.73e-04  4.33e-03  0.000   3.3
   31    -1568.2421968943538104    -1.13e-05  4.09e-04  2.38e-03  4.34e-03  0.000   3.8
   32    -1568.2422443345328702    -4.74e-05  5.30e-04  3.06e-03  4.36e-03  0.000   5.2
   33    -1568.2423060217329294    -6.17e-05  4.85e-05  2.76e-04  4.38e-03  0.000   3.3
   34    -1568.2423116620323071    -5.64e-06  4.25e-04  2.42e-03  4.38e-03  0.000   8.3
   35    -1568.2423612276199947    -4.96e-05  2.67e-04  1.50e-03  4.40e-03  0.000   7.2
   36    -1568.2423923865471806    -3.12e-05  4.59e-04  2.57e-03  4.41e-03  0.000   6.0
   37    -1568.2424460813731457    -5.37e-05  3.70e-04  2.05e-03  4.43e-03  0.000   6.8
   38    -1568.2424894346622750    -4.34e-05  2.59e-04  1.42e-03  4.44e-03  0.000   4.8
   39    -1568.2425198523783365    -3.04e-05  4.47e-04  2.44e-03  4.44e-03  0.000   6.0
   40    -1568.2425723862793348    -5.25e-05  3.87e-04  2.09e-03  4.46e-03  0.000   9.8
               *** Restarting incremental Fock matrix formation ***
                             ****Resetting DIIS****
   41    -1568.2426179528515604    -4.56e-05  1.03e-03  5.45e-03  4.47e-03  0.000   8.4
   42    -1568.2427388491557849    -1.21e-04  9.26e-04  4.90e-03  4.48e-03  0.000  10.8
   43    -1568.2428477879302591    -1.09e-04  6.23e-04  3.35e-03  4.50e-03  0.000   8.7
   44    -1568.2429209989238643    -7.32e-05  2.87e-04  1.56e-03  4.50e-03  0.000   6.5
   45    -1568.2429546931907680    -3.37e-05  9.24e-05  5.06e-04  4.51e-03  0.000   5.0
   46    -1568.2429655019495840    -1.08e-05  7.24e-04  3.96e-03  4.51e-03  0.000   5.0
   47    -1568.2430504615776954    -8.50e-05  7.93e-04  4.40e-03  4.51e-03  0.000  11.6
   48    -1568.2431433137041950    -9.29e-05  7.17e-04  4.03e-03  4.51e-03  0.000   2.3
   49    -1568.2432269920877843    -8.37e-05  6.63e-04  3.77e-03  4.51e-03  0.000   3.3
   50    -1568.2433041540027716    -7.72e-05  6.86e-04  3.93e-03  4.51e-03  0.000   8.4

       ******************************************************************************
       ***                                                                        ***
       ***                               Auto-TRAH                                ***
       ***                               ---------                                ***
       *** the maximum gradient error decreased on average only by a factor   1.0 ***
       *** during the last  10 iterations                                         ***
       ***                                                                        ***
       ***               Leaving SCF to start the TRAH-SCF procedure              ***
       ***                                                                        ***
       ******************************************************************************

 --------------------------------------------------------------------------------------------
   Iter.        energy            ||Error||_2        Shift      TRadius  Mac/Mic        Rej.
 --------------------------------------------------------------------------------------------
    0      -1568.242483342151     1.034578e-02                     0.400 (TRAH MAcro)   No
    0     dE    -5.061645e-04     5.823425e-02    -5.0198e-04      0.091 (TRAH MIcro)
    0     dE    -2.956489e-03     4.836488e-02    -6.1788e-03      0.400 (TRAH MIcro)
    0     dE    -3.624537e-03     1.008470e-02    -1.0533e-02      0.400 (TRAH MIcro)
    0     dE    -3.662917e-03     4.718263e-03    -1.0773e-02      0.400 (TRAH MIcro)
    0     dE    -3.681637e-03     5.159433e-03    -1.0880e-02      0.400 (TRAH MIcro)
    0     dE    -3.715200e-03     6.345484e-03    -1.1115e-02      0.400 (TRAH MIcro)
    0     dE    -3.741340e-03     2.859861e-03    -1.1347e-02      0.400 (TRAH MIcro)
    0     dE    -3.744269e-03     1.548351e-03    -1.1378e-02      0.400 (TRAH MIcro)
    0     dE    -3.746210e-03     1.256563e-03    -1.1401e-02      0.400 (TRAH MIcro)
    0     dE    -3.747922e-03     1.087067e-03    -1.1422e-02      0.400 (TRAH MIcro)
    0     dE    -3.715165e-03     8.949077e-04    -1.1543e-02      0.396 (TRAH MIcro)
    1      -1568.245068586419     1.807541e-02                     0.400 (TRAH MAcro)   No
    1     dE    -1.824615e-04     1.182402e-02    -1.8240e-04      0.018 (TRAH MIcro)
    1     dE    -2.948044e-04     1.188286e-02    -2.9424e-04      0.044 (TRAH MIcro)
    1     dE    -4.161885e-04     9.619806e-03    -4.1369e-04      0.078 (TRAH MIcro)
    1     dE    -4.847222e-04     7.857812e-03    -4.7994e-04      0.100 (TRAH MIcro)
    1     dE    -5.382282e-04     8.110086e-03    -5.3073e-04      0.119 (TRAH MIcro)
    1     dE    -5.786703e-04     6.022459e-03    -5.6836e-04      0.135 (TRAH MIcro)
    1     dE    -5.975743e-04     3.585537e-03    -5.8563e-04      0.143 (TRAH MIcro)
    1     dE    -6.026608e-04     2.002271e-03    -5.9020e-04      0.145 (TRAH MIcro)
    1     dE    -6.059314e-04     1.827433e-03    -5.9311e-04      0.147 (TRAH MIcro)
    1     dE    -6.102911e-04     1.735440e-03    -5.9694e-04      0.150 (TRAH MIcro)
    2      -1568.245769661820     3.425103e-03                     0.480 (TRAH MAcro)   No
    2     dE    -9.847661e-06     4.175912e-03    -9.8475e-06      0.004 (TRAH MIcro)
    2     dE    -2.062131e-05     4.367075e-03    -2.0617e-05      0.014 (TRAH MIcro)
    2     dE    -4.715557e-05     5.960747e-03    -4.7068e-05      0.043 (TRAH MIcro)
    2     dE    -6.546871e-05     2.520180e-03    -6.5198e-05      0.064 (TRAH MIcro)
    2     dE    -6.885359e-05     1.505641e-03    -6.8532e-05      0.069 (TRAH MIcro)
    2     dE    -7.040390e-05     8.912132e-04    -7.0056e-05      0.070 (TRAH MIcro)
    2     dE    -7.109430e-05     6.609767e-04    -7.0734e-05      0.071 (TRAH MIcro)
    2     dE    -7.153066e-05     6.907633e-04    -7.1162e-05      0.072 (TRAH MIcro)
    2     dE    -7.182532e-05     4.593279e-04    -7.1451e-05      0.072 (TRAH MIcro)
    2     dE    -7.204059e-05     3.153583e-04    -7.1662e-05      0.073 (TRAH MIcro)
    3      -1568.245872129063     1.219615e-03                     0.576 (TRAH MAcro)   No
    3     dE    -2.503810e-06     2.035951e-03    -2.5038e-06      0.003 (TRAH MIcro)
    3     dE    -5.536958e-06     2.869451e-03    -5.5365e-06      0.009 (TRAH MIcro)
    3     dE    -1.312373e-05     2.073976e-03    -1.3115e-05      0.025 (TRAH MIcro)
    3     dE    -1.693619e-05     1.834951e-03    -1.6917e-05      0.034 (TRAH MIcro)
    3     dE    -1.980496e-05     1.292596e-03    -1.9773e-05      0.040 (TRAH MIcro)
    3     dE    -2.098697e-05     7.029827e-04    -2.0948e-05      0.043 (TRAH MIcro)
    3     dE    -2.141440e-05     4.278077e-04    -2.1372e-05      0.044 (TRAH MIcro)
    3     dE    -2.160945e-05     4.547878e-04    -2.1566e-05      0.045 (TRAH MIcro)
    3     dE    -2.183176e-05     4.939720e-04    -2.1786e-05      0.046 (TRAH MIcro)
    3     dE    -2.198973e-05     3.018681e-04    -2.1943e-05      0.046 (TRAH MIcro)
    3     dE    -2.204658e-05     1.415923e-04    -2.1999e-05      0.046 (TRAH MIcro)
    3     dE    -2.205737e-05     5.776912e-05    -2.2010e-05      0.046 (TRAH MIcro)
    4      -1568.245906696317     9.239412e-04                     0.691 (TRAH MAcro)   No
    4     dE    -1.000818e-06     1.226367e-03    -1.0008e-06      0.002 (TRAH MIcro)
    4     dE    -1.968533e-06     1.761104e-03    -1.9685e-06      0.005 (TRAH MIcro)
    4     dE    -4.903199e-06     1.194037e-03    -4.9021e-06      0.015 (TRAH MIcro)
    4     dE    -6.316660e-06     1.198743e-03    -6.3142e-06      0.020 (TRAH MIcro)
    4     dE    -7.688632e-06     8.142370e-04    -7.6838e-06      0.025 (TRAH MIcro)
    4     dE    -8.344992e-06     6.026863e-04    -8.3386e-06      0.028 (TRAH MIcro)
    4     dE    -8.723757e-06     5.148912e-04    -8.7163e-06      0.029 (TRAH MIcro)
    4     dE    -9.014742e-06     5.676144e-04    -9.0063e-06      0.031 (TRAH MIcro)
    4     dE    -9.378794e-06     4.888317e-04    -9.3690e-06      0.032 (TRAH MIcro)
    4     dE    -9.542850e-06     2.159528e-04    -9.5324e-06      0.033 (TRAH MIcro)
    4     dE    -9.563571e-06     6.483842e-05    -9.5530e-06      0.033 (TRAH MIcro)
    5      -1568.245921776966     7.097602e-04                     0.829 (TRAH MAcro)   No
    5     dE    -3.906231e-07     6.944040e-04    -3.9062e-07      0.001 (TRAH MIcro)
    5     dE    -6.588780e-07     9.558609e-04    -6.5887e-07      0.002 (TRAH MIcro)
    5     dE    -1.571147e-06     7.406838e-04    -1.5711e-06      0.007 (TRAH MIcro)
    5     dE    -2.125024e-06     7.874007e-04    -2.1248e-06      0.011 (TRAH MIcro)
    5     dE    -2.786545e-06     5.984677e-04    -2.7859e-06      0.015 (TRAH MIcro)
    5     dE    -3.150508e-06     4.969664e-04    -3.1496e-06      0.017 (TRAH MIcro)
    5     dE    -3.333609e-06     3.786901e-04    -3.3324e-06      0.019 (TRAH MIcro)
    5     dE    -3.491628e-06     4.066769e-04    -3.4902e-06      0.020 (TRAH MIcro)
    5     dE    -3.717715e-06     4.146895e-04    -3.7160e-06      0.022 (TRAH MIcro)
    5     dE    -3.831888e-06     2.109426e-04    -3.8299e-06      0.023 (TRAH MIcro)
    5     dE    -3.850980e-06     1.005857e-04    -3.8490e-06      0.023 (TRAH MIcro)
    5     dE    -3.855785e-06     4.607738e-05    -3.8538e-06      0.023 (TRAH MIcro)
    6      -1568.245927567149     4.922233e-04                     0.995 (TRAH MAcro)   No
    6     dE    -1.320198e-07     3.536592e-04    -1.3202e-07      0.000 (TRAH MIcro)
    6     dE    -1.902680e-07     4.659071e-04    -1.9027e-07      0.001 (TRAH MIcro)
    6     dE    -3.802855e-07     3.652944e-04    -3.8028e-07      0.003 (TRAH MIcro)
    6     dE    -5.222256e-07     4.025399e-04    -5.2221e-07      0.005 (TRAH MIcro)
    6     dE    -6.952969e-07     3.346976e-04    -6.9526e-07      0.007 (TRAH MIcro)
    6     dE    -8.117872e-07     3.104655e-04    -8.1173e-07      0.008 (TRAH MIcro)
    6     dE    -8.801841e-07     2.297879e-04    -8.8011e-07      0.009 (TRAH MIcro)
    6     dE    -9.379054e-07     2.597776e-04    -9.3781e-07      0.010 (TRAH MIcro)
    6     dE    -1.012656e-06     2.728947e-04    -1.0125e-06      0.012 (TRAH MIcro)
    6     dE    -1.068204e-06     1.540238e-04    -1.0680e-06      0.012 (TRAH MIcro)
    6     dE    -1.081584e-06     6.753391e-05    -1.0814e-06      0.013 (TRAH MIcro)
    6     dE    -1.083893e-06     3.323250e-05    -1.0837e-06      0.013 (TRAH MIcro)
    7      -1568.245929096619     2.717764e-04                     1.194 (TRAH MAcro)   No
    7     dE    -3.115072e-08     1.446317e-04    -3.1151e-08      0.000 (TRAH MIcro)
    7     dE    -4.008933e-08     1.739443e-04    -4.0089e-08      0.000 (TRAH MIcro)
    7     dE    -6.542482e-08     1.360368e-04    -6.5425e-08      0.001 (TRAH MIcro)
    7     dE    -8.467877e-08     1.563269e-04    -8.4679e-08      0.002 (TRAH MIcro)
    7     dE    -1.104692e-07     1.269952e-04    -1.1047e-07      0.002 (TRAH MIcro)
    7     dE    -1.304016e-07     1.380594e-04    -1.3040e-07      0.003 (TRAH MIcro)
    7     dE    -1.421178e-07     1.058937e-04    -1.4212e-07      0.003 (TRAH MIcro)
    7     dE    -1.530139e-07     1.091715e-04    -1.5301e-07      0.004 (TRAH MIcro)
    7     dE    -1.687145e-07     1.196905e-04    -1.6871e-07      0.004 (TRAH MIcro)
    7     dE    -1.810384e-07     8.450324e-05    -1.8103e-07      0.005 (TRAH MIcro)
    7     dE    -1.846748e-07     4.891530e-05    -1.8467e-07      0.005 (TRAH MIcro)
    7     dE    -1.859804e-07     2.382681e-05    -1.8598e-07      0.005 (TRAH MIcro)
    8      -1568.245929352454     1.134533e-04                     1.433 (TRAH MAcro)   No
    8     dE    -4.763180e-09     4.938148e-05    -4.7632e-09      0.000 (TRAH MIcro)
    8     dE    -5.822324e-09     5.789448e-05    -5.8223e-09      0.000 (TRAH MIcro)
    8     dE    -8.255404e-09     4.566428e-05    -8.2554e-09      0.000 (TRAH MIcro)
    8     dE    -1.028775e-08     5.132554e-05    -1.0288e-08      0.000 (TRAH MIcro)
    8     dE    -1.271758e-08     4.494868e-05    -1.2718e-08      0.001 (TRAH MIcro)
    8     dE    -1.470305e-08     5.189033e-05    -1.4703e-08      0.001 (TRAH MIcro)
    8     dE    -1.712494e-08     4.105249e-05    -1.7125e-08      0.001 (TRAH MIcro)
    8     dE    -1.836102e-08     4.006290e-05    -1.8361e-08      0.001 (TRAH MIcro)
    8     dE    -1.980133e-08     3.364618e-05    -1.9801e-08      0.001 (TRAH MIcro)
    8     dE    -2.115463e-08     3.271779e-05    -2.1155e-08      0.002 (TRAH MIcro)
    8     dE    -2.190268e-08     2.059124e-05    -2.1903e-08      0.002 (TRAH MIcro)
    8     dE    -2.214923e-08     1.182547e-05    -2.2149e-08      0.002 (TRAH MIcro)
    8     dE    -2.229482e-08     9.216656e-06    -2.2295e-08      0.002 (TRAH MIcro)
    9      -1568.245929384381     3.697871e-05                           (NR   MAcro)
    9     dE    -5.462524e-10     1.141586e-05                           (NR   MIcro)
    9     dE    -6.532487e-10     1.128161e-05                           (NR   MIcro)
    9     dE    -8.926206e-10     1.554764e-05                           (NR   MIcro)
    9     dE    -1.174437e-09     1.667477e-05                           (NR   MIcro)
    9     dE    -1.441037e-09     1.446075e-05                           (NR   MIcro)
    9     dE    -1.637145e-09     1.084767e-05                           (NR   MIcro)
    9     dE    -1.801084e-09     1.156276e-05                           (NR   MIcro)
    9     dE    -1.939277e-09     1.163979e-05                           (NR   MIcro)
    9     dE    -2.078453e-09     1.118456e-05                           (NR   MIcro)
    9     dE    -2.193397e-09     8.304901e-06                           (NR   MIcro)
    9     dE    -2.281584e-09     7.253252e-06                           (NR   MIcro)
    9     dE    -2.313086e-09     3.216692e-06                           (NR   MIcro)
    9     dE    -2.325133e-09     3.471161e-06                           (NR   MIcro)
    9     dE    -2.335924e-09     3.046841e-06                           (NR   MIcro)
    9     dE    -2.343950e-09     2.201547e-06                           (NR   MIcro)
    9     dE    -2.353208e-09     3.172229e-06                           (NR   MIcro)
    9     dE    -2.365433e-09     2.646846e-06                           (NR   MIcro)
    9     dE    -2.369086e-09     1.474789e-06                           (NR   MIcro)
    9     dE    -2.370778e-09     1.061584e-06                           (NR   MIcro)
    9     dE    -2.372204e-09     1.191540e-06                           (NR   MIcro)
    9     dE    -2.374043e-09     7.464485e-07                           (NR   MIcro)
   10      -1568.245929388226     1.176637e-05                           (NR   MAcro)
   10     dE    -6.265481e-11     4.506711e-06                           (NR   MIcro)
   10     dE    -8.243275e-11     5.573561e-06                           (NR   MIcro)
   10     dE    -1.447078e-10     7.140016e-06                           (NR   MIcro)
   10     dE    -1.974490e-10     6.856664e-06                           (NR   MIcro)
   10     dE    -2.371395e-10     4.803957e-06                           (NR   MIcro)
   10     dE    -2.651661e-10     3.966197e-06                           (NR   MIcro)
   10     dE    -2.776997e-10     2.879477e-06                           (NR   MIcro)
   10     dE    -2.871002e-10     3.335992e-06                           (NR   MIcro)
   10     dE    -3.002823e-10     3.819832e-06                           (NR   MIcro)
   10     dE    -3.122570e-10     2.346068e-06                           (NR   MIcro)
   10     dE    -3.167230e-10     1.297530e-06                           (NR   MIcro)
   10     dE    -3.179522e-10     1.060068e-06                           (NR   MIcro)
   10     dE    -3.198062e-10     1.670451e-06                           (NR   MIcro)
   10     dE    -3.233001e-10     1.825054e-06                           (NR   MIcro)
   10     dE    -3.263588e-10     1.116737e-06                           (NR   MIcro)
   10     dE    -3.291094e-10     1.295194e-06                           (NR   MIcro)
   10     dE    -3.301760e-10     8.236971e-07                           (NR   MIcro)
   11      -1568.245929388942     4.156268e-06                           (NR   MAcro)

               *****************************************************
               *                     SUCCESS                       *
               *           SCF CONVERGED AFTER 203 CYCLES          *
               *****************************************************

Recomputing exchange energy using gridx3       ... done (    0.220 sec)
Old exchange energy                            :    -48.510052083 Eh
New exchange energy                            :    -48.510061208 Eh
Exchange energy change after final integration :     -0.000009124 Eh
Total energy after final integration           :  -1568.245938513 Eh
             **** ENERGY FILE WAS UPDATED (/users/s1155246974/li/fe2_triplet/fe2_triplet.en.tmp) ****

----------------
TOTAL SCF ENERGY
----------------

Total Energy       :      -1568.24593851298073 Eh          -42674.14150 eV

Components:
Nuclear Repulsion  :        430.83924757310189 Eh           11723.73195 eV
Electronic Energy  :      -1999.08517696204444 Eh          -54397.87320 eV
One Electron Energy:      -2997.67046520803251 Eh          -81570.76034 eV
Two Electron Energy:        998.58528824598818 Eh           27172.88714 eV

Virial components:
Potential Energy   :      -3133.26313082033403 Eh          -85260.42435 eV
Kinetic Energy     :       1565.01719230735330 Eh           42586.28285 eV
Virial Ratio       :          2.00206307395312

DFT components:
N(Alpha)           :       33.000001841916 electrons
N(Beta)            :       31.000000120378 electrons
N(Total)           :       64.000001962293 electrons
E(XC)              :      -44.044344028585 Eh       

---------------
SCF CONVERGENCE
---------------

  Last Energy change         ...   -7.1645e-10  Tolerance :   1.0000e-08
  Last MAX-Density change    ...    4.8506e-03  Tolerance :   1.0000e-07
  Last RMS-Density change    ...    8.3607e-04  Tolerance :   5.0000e-09
  Last DIIS Error            ...    4.5051e-03  Tolerance :   5.0000e-07


----------------------
UHF SPIN CONTAMINATION
----------------------

Warning: in a DFT calculation there is little theoretical justification to 
         calculate <S**2> as in Hartree-Fock theory. We will do it anyways
         but you should keep in mind that the values have only limited relevance

Expectation value of <S**2>     :     2.007514
Ideal value S*(S+1) for S=1.0   :     2.000000
Deviation                       :     0.007514

----------------
ORBITAL ENERGIES
----------------
                 SPIN UP ORBITALS
  NO   OCC          E(Eh)            E(eV) 
   0   1.0000    -258.280612     -7028.1728 
   1   1.0000     -31.019180      -844.0748 
   2   1.0000     -26.888199      -731.6651 
   3   1.0000     -26.884774      -731.5719 
   4   1.0000     -26.880239      -731.4485 
   5   1.0000     -20.066638      -546.0410 
   6   1.0000     -20.062926      -545.9400 
   7   1.0000     -20.062813      -545.9369 
   8   1.0000     -20.058164      -545.8104 
   9   1.0000      -4.105576      -111.7184 
  10   1.0000      -2.861901       -77.8763 
  11   1.0000      -2.857846       -77.7659 
  12   1.0000      -2.848247       -77.5047 
  13   1.0000      -1.564561       -42.5739 
  14   1.0000      -1.548311       -42.1317 
  15   1.0000      -1.546663       -42.0868 
  16   1.0000      -1.539139       -41.8821 
  17   1.0000      -1.076765       -29.3003 
  18   1.0000      -1.072586       -29.1866 
  19   1.0000      -1.049603       -28.5612 
  20   1.0000      -1.035347       -28.1732 
  21   1.0000      -0.984707       -26.7952 
  22   1.0000      -0.955736       -26.0069 
  23   1.0000      -0.925033       -25.1714 
  24   1.0000      -0.914798       -24.8929 
  25   1.0000      -0.890527       -24.2325 
  26   1.0000      -0.871210       -23.7068 
  27   1.0000      -0.859760       -23.3952 
  28   1.0000      -0.820644       -22.3309 
  29   1.0000      -0.791113       -21.5273 
  30   1.0000      -0.785317       -21.3696 
  31   1.0000      -0.774822       -21.0840 
  32   1.0000      -0.765086       -20.8190 
  33   0.0000      -0.331674        -9.0253 
  34   0.0000      -0.314971        -8.5708 
  35   0.0000      -0.272390        -7.4121 
  36   0.0000      -0.250479        -6.8159 
  37   0.0000      -0.243628        -6.6295 
  38   0.0000      -0.198778        -5.4090 
  39   0.0000      -0.194889        -5.3032 
  40   0.0000      -0.190028        -5.1709 
  41   0.0000      -0.167222        -4.5503 
  42   0.0000      -0.157836        -4.2949 
  43   0.0000      -0.142603        -3.8804 

                 SPIN DOWN ORBITALS
  NO   OCC          E(Eh)            E(eV) 
   0   1.0000    -258.280390     -7028.1667 
   1   1.0000     -30.973051      -842.8196 
   2   1.0000     -26.851338      -730.6621 
   3   1.0000     -26.850692      -730.6445 
   4   1.0000     -26.830687      -730.1001 
   5   1.0000     -20.066946      -546.0493 
   6   1.0000     -20.063103      -545.9448 
   7   1.0000     -20.062283      -545.9225 
   8   1.0000     -20.057985      -545.8055 
   9   1.0000      -4.009321      -109.0992 
  10   1.0000      -2.753540       -74.9276 
  11   1.0000      -2.749389       -74.8147 
  12   1.0000      -2.697867       -73.4127 
  13   1.0000      -1.564337       -42.5678 
  14   1.0000      -1.548268       -42.1305 
  15   1.0000      -1.546223       -42.0749 
  16   1.0000      -1.537876       -41.8477 
  17   1.0000      -1.074923       -29.2501 
  18   1.0000      -1.069934       -29.1144 
  19   1.0000      -1.045577       -28.4516 
  20   1.0000      -1.034716       -28.1561 
  21   1.0000      -0.979691       -26.6588 
  22   1.0000      -0.950879       -25.8747 
  23   1.0000      -0.923215       -25.1220 
  24   1.0000      -0.914522       -24.8854 
  25   1.0000      -0.882029       -24.0012 
  26   1.0000      -0.845004       -22.9937 
  27   1.0000      -0.831266       -22.6199 
  28   1.0000      -0.820178       -22.3182 
  29   1.0000      -0.722456       -19.6590 
  30   1.0000      -0.701248       -19.0819 
  31   0.0000      -0.348574        -9.4852 
  32   0.0000      -0.323561        -8.8045 
  33   0.0000      -0.306700        -8.3457 
  34   0.0000      -0.274140        -7.4597 
  35   0.0000      -0.263450        -7.1688 
  36   0.0000      -0.248569        -6.7639 
  37   0.0000      -0.237424        -6.4606 
  38   0.0000      -0.195471        -5.3190 
  39   0.0000      -0.190253        -5.1771 
  40   0.0000      -0.188089        -5.1182 
  41   0.0000      -0.166508        -4.5309 
*Only the first 10 virtual orbitals were printed.

                    ********************************
                    * MULLIKEN POPULATION ANALYSIS *
                    ********************************

--------------------------------------------
MULLIKEN ATOMIC CHARGES AND SPIN POPULATIONS
--------------------------------------------
   0 Fe:    0.919822    1.998013
   1 O :   -0.268140   -0.010686
   2 H :    0.280035    0.004305
   3 O :   -0.252135   -0.000786
   4 H :    0.257215    0.000811
   5 O :   -0.312603    0.012470
   6 H :    0.290310   -0.001115
   7 O :   -0.349140   -0.011197
   8 H :    0.296864    0.002526
   9 H :    0.282345   -0.000976
  10 H :    0.282040    0.000362
  11 H :    0.301850    0.003448
  12 H :    0.271540    0.002824
Sum of atomic charges         :    2.0000000
Sum of atomic spin populations:    2.0000000

-----------------------------------------------------
MULLIKEN REDUCED ORBITAL CHARGES AND SPIN POPULATIONS
-----------------------------------------------------
CHARGE
  0 Fes       :     6.408355  s :     6.408355
      pz      :     4.076324  p :    12.322938
      px      :     4.124661
      py      :     4.121953
      dz2     :     1.691689  d :     6.346175
      dxz     :     1.210647
      dyz     :     1.059193
      dx2y2   :     0.417363
      dxy     :     1.967283
      f0      :     0.000113  f :     0.002710
      f+1     :     0.000373
      f-1     :     0.000363
      f+2     :     0.000206
      f-2     :     0.000006
      f+3     :     0.000809
      f-3     :     0.000839

  1 O s       :     3.629253  s :     3.629253
      pz      :     1.246944  p :     4.629623
      px      :     1.719455
      py      :     1.663224
      dz2     :     0.000506  d :     0.009265
      dxz     :     0.004597
      dyz     :     0.000918
      dx2y2   :     0.001265
      dxy     :     0.001979

  2 H s       :     0.651851  s :     0.651851
      pz      :     0.032553  p :     0.068114
      px      :     0.019250
      py      :     0.016311

  3 O s       :     3.631952  s :     3.631952
      pz      :     1.705802  p :     4.610405
      px      :     1.658213
      py      :     1.246390
      dz2     :     0.000850  d :     0.009778
      dxz     :     0.001728
      dyz     :     0.004688
      dx2y2   :     0.000906
      dxy     :     0.001607

  4 H s       :     0.674265  s :     0.674265
      pz      :     0.021338  p :     0.068521
      px      :     0.016928
      py      :     0.030255

  5 O s       :     3.610601  s :     3.610601
      pz      :     1.917870  p :     4.695923
      px      :     1.225017
      py      :     1.553037
      dz2     :     0.001243  d :     0.006078
      dxz     :     0.000028
      dyz     :     0.000364
      dx2y2   :     0.000330
      dxy     :     0.004114

  6 H s       :     0.644783  s :     0.644783
      pz      :     0.014986  p :     0.064908
      px      :     0.033557
      py      :     0.016365

  7 O s       :     3.611275  s :     3.611275
      pz      :     1.241336  p :     4.732059
      px      :     1.558039
      py      :     1.932684
      dz2     :     0.000932  d :     0.005806
      dxz     :     0.003337
      dyz     :     0.000074
      dx2y2   :     0.000556
      dxy     :     0.000907

  8 H s       :     0.637483  s :     0.637483
      pz      :     0.032810  p :     0.065653
      px      :     0.016881
      py      :     0.015962

  9 H s       :     0.652441  s :     0.652441
      pz      :     0.015548  p :     0.065214
      px      :     0.032585
      py      :     0.017082

 10 H s       :     0.650331  s :     0.650331
      pz      :     0.017946  p :     0.067628
      px      :     0.015459
      py      :     0.034223

 11 H s       :     0.632535  s :     0.632535
      pz      :     0.033105  p :     0.065615
      px      :     0.016722
      py      :     0.015788

 12 H s       :     0.660270  s :     0.660270
      pz      :     0.032297  p :     0.068190
      px      :     0.019308
      py      :     0.016585


SPIN
  0 Fes       :    -0.005850  s :    -0.005850
      pz      :     0.000424  p :     0.010037
      px      :     0.005477
      py      :     0.004136
      dz2     :     0.200100  d :     1.993884
      dxz     :     0.787480
      dyz     :     0.942583
      dx2y2   :     0.030665
      dxy     :     0.033057
      f0      :     0.000004  f :    -0.000058
      f+1     :    -0.000037
      f-1     :    -0.000036
      f+2     :    -0.000001
      f-2     :    -0.000004
      f+3     :     0.000012
      f-3     :     0.000004

  1 O s       :    -0.001140  s :    -0.001140
      pz      :     0.000384  p :    -0.010010
      px      :    -0.000436
      py      :    -0.009959
      dz2     :     0.000009  d :     0.000464
      dxz     :     0.000057
      dyz     :     0.000453
      dx2y2   :     0.000005
      dxy     :    -0.000059

  2 H s       :     0.004412  s :     0.004412
      pz      :     0.000033  p :    -0.000107
      px      :     0.000001
      py      :    -0.000140

  3 O s       :    -0.000444  s :    -0.000444
      pz      :     0.007181  p :    -0.000427
      px      :    -0.007904
      py      :     0.000296
      dz2     :     0.000016  d :     0.000086
      dxz     :     0.000138
      dyz     :    -0.000009
      dx2y2   :     0.000015
      dxy     :    -0.000075

  4 H s       :     0.000727  s :     0.000727
      pz      :     0.000133  p :     0.000084
      px      :    -0.000120
      py      :     0.000071

  5 O s       :    -0.000082  s :    -0.000082
      pz      :     0.017601  p :     0.012329
      px      :     0.000566
      py      :    -0.005838
      dz2     :    -0.000020  d :     0.000223
      dxz     :     0.000008
      dyz     :     0.000316
      dx2y2   :     0.000008
      dxy     :    -0.000089

  6 H s       :    -0.001618  s :    -0.001618
      pz      :     0.000512  p :     0.000503
      px      :    -0.000018
      py      :     0.000009

  7 O s       :    -0.002199  s :    -0.002199
      pz      :    -0.000689  p :    -0.009403
      px      :    -0.008756
      py      :     0.000042
      dz2     :     0.000002  d :     0.000405
      dxz     :     0.000455
      dyz     :     0.000009
      dx2y2   :    -0.000002
      dxy     :    -0.000058

  8 H s       :     0.002570  s :     0.002570
      pz      :     0.000064  p :    -0.000044
      px      :    -0.000111
      py      :     0.000002

  9 H s       :    -0.001508  s :    -0.001508
      pz      :     0.000531  p :     0.000532
      px      :    -0.000016
      py      :     0.000016

 10 H s       :     0.000263  s :     0.000263
      pz      :     0.000176  p :     0.000098
      px      :    -0.000110
      py      :     0.000032

 11 H s       :     0.003570  s :     0.003570
      pz      :    -0.000068  p :    -0.000121
      px      :    -0.000023
      py      :    -0.000031

 12 H s       :     0.002730  s :     0.002730
      pz      :    -0.000008  p :     0.000094
      px      :     0.000106
      py      :    -0.000004



                     *******************************
                     * LOEWDIN POPULATION ANALYSIS *
                     *******************************

-------------------------------------------
LOEWDIN ATOMIC CHARGES AND SPIN POPULATIONS
-------------------------------------------
   0 Fe:    0.494598    1.982776
   1 O :    0.076217   -0.005616
   2 H :    0.151340    0.003133
   3 O :    0.091189    0.004188
   4 H :    0.137794    0.000316
   5 O :    0.081483    0.015141
   6 H :    0.151712   -0.000194
   7 O :    0.060644   -0.006039
   8 H :    0.154490    0.002258
   9 H :    0.148187   -0.000082
  10 H :    0.149270   -0.000046
  11 H :    0.157729    0.001940
  12 H :    0.145346    0.002223

----------------------------------------------------
LOEWDIN REDUCED ORBITAL CHARGES AND SPIN POPULATIONS
----------------------------------------------------
CHARGE
  0 Fes       :     6.362147  s :     6.362147
      pz      :     4.087776  p :    12.567943
      px      :     4.239107
      py      :     4.241059
      dz2     :     1.749001  d :     6.570798
      dxz     :     1.216534
      dyz     :     1.068839
      dx2y2   :     0.560753
      dxy     :     1.975672
      f0      :     0.000150  f :     0.004514
      f+1     :     0.000624
      f-1     :     0.000610
      f+2     :     0.000287
      f-2     :     0.000006
      f+3     :     0.001390
      f-3     :     0.001448

  1 O s       :     3.312567  s :     3.312567
      pz      :     1.279169  p :     4.593022
      px      :     1.700378
      py      :     1.613474
      dz2     :     0.002379  d :     0.018194
      dxz     :     0.008594
      dyz     :     0.003190
      dx2y2   :     0.001382
      dxy     :     0.002649

  2 H s       :     0.669308  s :     0.669308
      pz      :     0.072019  p :     0.179351
      px      :     0.057076
      py      :     0.050257

  3 O s       :     3.313487  s :     3.313487
      pz      :     1.685239  p :     4.576063
      px      :     1.607079
      py      :     1.283745
      dz2     :     0.000524  d :     0.019261
      dxz     :     0.002082
      dyz     :     0.008853
      dx2y2   :     0.003296
      dxy     :     0.004506

  4 H s       :     0.683944  s :     0.683944
      pz      :     0.061126  p :     0.178262
      px      :     0.050409
      py      :     0.066727

  5 O s       :     3.275833  s :     3.275833
      pz      :     1.833939  p :     4.627133
      px      :     1.272459
      py      :     1.520735
      dz2     :     0.002249  d :     0.015550
      dxz     :     0.000044
      dyz     :     0.000570
      dx2y2   :     0.002221
      dxy     :     0.010467

  6 H s       :     0.669031  s :     0.669031
      pz      :     0.048607  p :     0.179256
      px      :     0.079994
      py      :     0.050655

  7 O s       :     3.274541  s :     3.274541
      pz      :     1.277505  p :     4.650480
      px      :     1.524189
      py      :     1.848787
      dz2     :     0.003198  d :     0.014334
      dxz     :     0.008866
      dyz     :     0.000157
      dx2y2   :     0.000761
      dxy     :     0.001352

  8 H s       :     0.663617  s :     0.663617
      pz      :     0.078690  p :     0.181893
      px      :     0.051872
      py      :     0.051331

  9 H s       :     0.672924  s :     0.672924
      pz      :     0.049236  p :     0.178889
      px      :     0.078043
      py      :     0.051610

 10 H s       :     0.672285  s :     0.672285
      pz      :     0.053072  p :     0.178445
      px      :     0.048976
      py      :     0.076397

 11 H s       :     0.660277  s :     0.660277
      pz      :     0.079223  p :     0.181994
      px      :     0.051602
      py      :     0.051169

 12 H s       :     0.675242  s :     0.675242
      pz      :     0.071394  p :     0.179413
      px      :     0.057410
      py      :     0.050609


SPIN
[...]
     10       0.000322  -0.000030  -0.000002   0.000038   0.000242  -0.000362
     11      -0.001539   0.002717   0.000242   0.004945   0.004168   0.000042
     12       0.074069  -0.162077  -0.012200  -0.299309  -0.252806   0.000711
     13      -0.062991  -0.225742  -0.020199  -0.411569  -0.345939   0.001050
     14       0.010987  -0.023378  -0.001788  -0.042568  -0.035904   0.000726
     15      -0.001818  -0.000906  -0.001285   0.000025   0.000661   0.006569
     16      -0.048889  -0.027022  -0.037612   0.000139   0.020083  -0.001163
     17       0.002407  -0.000090   0.000039  -0.000006   0.000287  -0.045572
     18       0.054068  -0.036195  -0.050164  -0.000963   0.026470  -0.038530
     19       0.353706   0.242995   0.337363  -0.000966  -0.179355   0.277053
     20      -0.308319   0.308255   0.427212  -0.001521  -0.226424   0.330060
     21       0.010303  -0.019308  -0.001125   0.034838  -0.029220  -0.000179
     22      -0.000356   0.000035   0.000002   0.000032  -0.000239   0.000211
     23       0.001557  -0.002763  -0.000168   0.004945  -0.004129  -0.000020
     24      -0.075109   0.164604   0.012270  -0.299377   0.250454   0.000196
     25       0.063796   0.229846   0.013898  -0.411916   0.342958   0.000075
     26      -0.011078   0.023943   0.001752  -0.042943   0.035878  -0.000796
     27      -0.026284   0.050655   0.070797  -0.001128  -0.036745  -0.065455
     28       0.390100   0.188339   0.263440  -0.000944  -0.136849  -0.257952
     29       0.270058  -0.306668  -0.427970   0.001371   0.221553   0.391804
     30       0.077807  -0.139993  -0.015541  -0.258649  -0.216066  -0.003146
     31       0.057742   0.226207   0.021581   0.411294   0.341944   0.004706
     32       0.011312  -0.019720  -0.002058  -0.036672  -0.030519  -0.001248
     33      -0.078601   0.143233   0.005658  -0.259278   0.214500   0.002298
     34      -0.058413  -0.230583  -0.012589   0.411732  -0.339014  -0.003435
     35      -0.011458   0.019897   0.000912  -0.036296   0.029915   0.000928
     36       0.028414  -0.060545   0.063215  -0.001897   0.036634   0.078197
     37      -0.414037  -0.224764   0.234825  -0.003786   0.136209   0.307572
     38      -0.287645   0.364428  -0.379910   0.005960  -0.219683  -0.465461
                 36         37         38    
      0      -0.000016   0.000000   0.000001
      1      -0.000008  -0.000014   0.000145
      2       0.000090  -0.000000   0.000001
      3       0.006625   0.000338   0.000186
      4      -0.001356  -0.000149  -0.000007
      5      -0.045660  -0.000125  -0.001037
      6      -0.039428  -0.002559  -0.000976
      7       0.278203   0.002388   0.005134
      8       0.333413   0.002525   0.006016
      9       0.000037  -0.000598  -0.000873
     10       0.001005  -0.045661  -0.055889
     11      -0.000124  -0.000096  -0.000150
     12      -0.006087   0.263411   0.322336
     13      -0.007604   0.342771   0.420641
     14       0.000349   0.037677   0.046119
     15       0.007827  -0.000372   0.000118
     16      -0.001665   0.000149   0.000018
     17      -0.054357   0.000358  -0.001019
     18      -0.046278   0.002721  -0.000468
     19       0.331607  -0.003547   0.004750
     20       0.396102  -0.003884   0.005610
     21       0.000013   0.000745  -0.000726
     22       0.001083   0.055790  -0.045769
     23      -0.000127   0.000179  -0.000173
     24      -0.006354  -0.321847   0.263949
     25      -0.007986  -0.419314   0.344860
     26       0.000178  -0.046404   0.038066
     27      -0.077497   0.002415  -0.001507
     28      -0.304953   0.001392  -0.006747
     29       0.463801  -0.001947   0.010590
     30       0.005544  -0.253892  -0.308481
     31      -0.008296   0.380983   0.464028
     32       0.001851  -0.036017  -0.043781
     33       0.006124   0.309976  -0.252437
     34      -0.009153  -0.464751   0.379409
     35       0.002045   0.043442  -0.035394
     36      -0.065319  -0.002037  -0.001919
     37      -0.256535   0.000104  -0.006742
     38       0.388733  -0.000394   0.010500


-----------
IR SPECTRUM
-----------

 Mode   freq       eps      Int      T**2         TX        TY        TZ
       cm**-1   L/(mol*cm) km/mol    a.u.
----------------------------------------------------------------------------
  6:     84.30   0.000043    0.21  0.000157  (-0.008269  0.002242  0.009169)
  7:    136.82   0.000512    2.59  0.001168  ( 0.031189 -0.001874 -0.013837)
  8:    145.37   0.000000    0.00  0.000000  ( 0.000168  0.000044 -0.000329)
  9:    166.72   0.002034   10.28  0.003807  ( 0.010461 -0.001199 -0.060797)
 10:    175.37   0.003541   17.89  0.006301  ( 0.078542  0.006013  0.009783)
 11:    196.42   0.000000    0.00  0.000001  ( 0.000206  0.000718  0.000179)
 12:    203.67   0.003074   15.54  0.004711  ( 0.006912 -0.068270 -0.001419)
 13:    302.31   0.000001    0.00  0.000001  (-0.000406 -0.000172  0.000656)
 14:    382.40   0.012010   60.69  0.009801  (-0.095496  0.005202 -0.025583)
 15:    390.40   0.000005    0.03  0.000004  ( 0.001756 -0.000123  0.001035)
 16:    394.57   0.000000    0.00  0.000000  (-0.000123  0.000023  0.000067)
 17:    422.67   0.109881  555.30  0.081127  (-0.283167  0.008453 -0.029524)
 18:    427.08   0.000002    0.01  0.000002  ( 0.001225  0.000001  0.000145)
 19:    464.79   0.106230  536.84  0.071323  (-0.036607  0.000088  0.264543)
 20:    472.68   0.000080    0.40  0.000053  (-0.000817 -0.000169  0.007205)
 21:    481.32   0.000298    1.50  0.000193  ( 0.001586 -0.008237 -0.011077)
 22:    547.95   0.025318  127.95  0.014419  ( 0.118514 -0.001151  0.019288)
 23:    623.69   0.000000    0.00  0.000000  (-0.000086 -0.000119  0.000211)
 24:    634.15   0.000000    0.00  0.000000  ( 0.000051  0.000083  0.000101)
 25:    665.48   0.052676  266.21  0.024702  ( 0.016877 -0.004434 -0.156196)
 26:    687.39   0.031680  160.10  0.014382  ( 0.002891  0.119869 -0.002284)
 27:   1623.53   0.052626  265.95  0.010115  (-0.099461  0.003882 -0.014420)
 28:   1627.59   0.000034    0.17  0.000007  ( 0.002529 -0.000001  0.000338)
 29:   1641.37   0.043504  219.85  0.008271  ( 0.003696  0.090758 -0.004542)
 30:   1644.18   0.000039    0.20  0.000007  (-0.000194 -0.002715  0.000037)
 31:   3751.24   0.000537    2.72  0.000045  ( 0.000246 -0.006679  0.000157)
 32:   3751.90   0.102888  519.95  0.008558  ( 0.002444  0.092457 -0.001823)
 33:   3757.49   0.100812  509.46  0.008373  (-0.090675  0.000206 -0.012270)
 34:   3769.51   0.000002    0.01  0.000000  (-0.000335 -0.000181 -0.000009)
 35:   3821.64   0.001010    5.10  0.000082  ( 0.001349  0.000058 -0.008978)
 36:   3822.89   0.133397  674.13  0.010889  (-0.014854  0.000289  0.103288)
 37:   3833.51   0.001262    6.38  0.000103  (-0.000054 -0.010130 -0.000335)
 38:   3834.79   0.127138  642.50  0.010346  ( 0.000824  0.101680  0.002546)

* The epsilon (eps) is given for a Dirac delta lineshape.
** The dipole moment derivative (T) already includes vibrational overlap.

The first frequency considered to be a vibration is 6
The total number of vibrations considered is 33


--------------------------
THERMOCHEMISTRY AT 298.15K
--------------------------

Temperature         ...   298.15 K
Pressure            ...     1.00 atm
Total Mass          ...   127.91 AMU
Quasi RRHO          ...     True
Cut-Off Frequency   ...     1.00 cm^-1

Throughout the following assumptions are being made:
  (1) The electronic state is orbitally nondegenerate
      but the spin degeneracy is treated
  (2) There are no thermally accessible electronically excited states
  (3) Hindered rotations indicated by low frequency modes are not
      treated as such but are treated as vibrations and this may
      cause some error
  (4) All equations used are the standard statistical mechanics
      equations for an ideal gas
  (5) All vibrations are strictly harmonic

freq.      84.30  E(vib)   ...       0.48 
freq.     136.82  E(vib)   ...       0.42 
freq.     145.37  E(vib)   ...       0.41 
freq.     166.72  E(vib)   ...       0.39 
freq.     175.37  E(vib)   ...       0.38 
freq.     196.42  E(vib)   ...       0.36 
freq.     203.67  E(vib)   ...       0.35 
freq.     302.31  E(vib)   ...       0.26 
freq.     382.40  E(vib)   ...       0.21 
freq.     390.40  E(vib)   ...       0.20 
freq.     394.57  E(vib)   ...       0.20 
freq.     422.67  E(vib)   ...       0.18 
freq.     427.08  E(vib)   ...       0.18 
freq.     464.79  E(vib)   ...       0.16 
freq.     472.68  E(vib)   ...       0.15 
freq.     481.32  E(vib)   ...       0.15 
freq.     547.95  E(vib)   ...       0.12 
freq.     623.69  E(vib)   ...       0.09 
freq.     634.15  E(vib)   ...       0.09 
freq.     665.48  E(vib)   ...       0.08 
freq.     687.39  E(vib)   ...       0.07 
freq.    1623.53  E(vib)   ...       0.00 
freq.    1627.59  E(vib)   ...       0.00 
freq.    1641.37  E(vib)   ...       0.00 
freq.    1644.18  E(vib)   ...       0.00 
freq.    3751.24  E(vib)   ...       0.00 
freq.    3751.90  E(vib)   ...       0.00 
freq.    3757.49  E(vib)   ...       0.00 
freq.    3769.51  E(vib)   ...       0.00 
freq.    3821.64  E(vib)   ...       0.00 
freq.    3822.89  E(vib)   ...       0.00 
freq.    3833.51  E(vib)   ...       0.00 
freq.    3834.79  E(vib)   ...       0.00 

------------
INNER ENERGY
------------

The inner energy is: U= E(el) + E(ZPE) + E(vib) + E(rot) + E(trans)
    E(el)   - is the total energy from the electronic structure calculation
              = E(kin-el) + E(nuc-el) + E(el-el) + E(nuc-nuc)
    E(ZPE)  - the the zero temperature vibrational energy from the frequency calculation
    E(vib)  - the the finite temperature correction to E(ZPE) due to population
              of excited vibrational states
    E(rot)  - is the rotational thermal energy
    E(trans)- is the translational thermal energy

Summary of contributions to the inner energy U:
Electronic energy                ...  -1568.31486540 Eh
Zero point energy                ...      0.10225597 Eh      64.17 kcal/mol
Thermal vibrational correction   ...      0.00784120 Eh       4.92 kcal/mol
Thermal rotational correction    ...      0.00141627 Eh       0.89 kcal/mol
Thermal translational correction ...      0.00141627 Eh       0.89 kcal/mol
-----------------------------------------------------------------------
Total thermal energy                  -1568.20193569 Eh


Summary of corrections to the electronic energy:
(perhaps to be used in another calculation)
Total thermal correction                  0.01067375 Eh       6.70 kcal/mol
Non-thermal (ZPE) correction              0.10225597 Eh      64.17 kcal/mol
-----------------------------------------------------------------------
Total correction                          0.11292971 Eh      70.86 kcal/mol


--------
ENTHALPY
--------

The enthalpy is H = U + kB*T
                kB is Boltzmann's constant
Total thermal energy              ...  -1568.20193569 Eh 
Thermal Enthalpy correction       ...      0.00094421 Eh       0.59 kcal/mol
-----------------------------------------------------------------------
Total Enthalpy                    ...  -1568.20099148 Eh


Note: Only C1 symmetry has been detected, increase convergence thresholds 
      if your molecule has a higher symmetry. Symmetry factor of 1.0 is   
      used for the rotational entropy correction. 
 

Note: Rotational entropy computed according to Herzberg 
Infrared and Raman Spectra, Chapter V,1, Van Nostrand Reinhold, 1945 
Point Group:  C1, Symmetry Number:   1  
Rotational constants in cm-1:     0.112711     0.105403     0.055351 

Vibrational entropy computed according to the QRRHO of S. Grimme
Chem.Eur.J. 2012 18 9955 using a reference frequency of 100.0 cm-1


-------
ENTROPY
-------

The entropy contributions are T*S = T*(S(el)+S(vib)+S(rot)+S(trans))
     S(el)   - electronic entropy
     S(vib)  - vibrational entropy
     S(rot)  - rotational entropy
     S(trans)- translational entropy
The entropies will be listed as multiplied by the temperature to get
units of energy

Electronic entropy                ...      0.00103729 Eh      0.65 kcal/mol
Vibrational entropy               ...      0.01343241 Eh      8.43 kcal/mol
Rotational entropy                ...      0.01296979 Eh      8.14 kcal/mol
Translational entropy             ...      0.01921987 Eh     12.06 kcal/mol
-----------------------------------------------------------------------
Final entropy term                ...      0.04665936 Eh     29.28 kcal/mol

In case the symmetry of your molecule has not been determined correctly
or in case you have a reason to use a different symmetry number we print 
out the resulting rotational entropy values for sn=1,12:

 non-linear molecules -----------------------------------
|  sn= 1 | S(rot)=       0.01296979 Eh      8.14 kcal/mol|
|  sn= 2 | S(rot)=       0.01231534 Eh      7.73 kcal/mol|
|  sn= 3 | S(rot)=       0.01193250 Eh      7.49 kcal/mol|
|  sn= 4 | S(rot)=       0.01166088 Eh      7.32 kcal/mol|
|  sn= 5 | S(rot)=       0.01145019 Eh      7.19 kcal/mol|
|  sn= 6 | S(rot)=       0.01127805 Eh      7.08 kcal/mol|
|  sn= 7 | S(rot)=       0.01113250 Eh      6.99 kcal/mol|
|  sn= 8 | S(rot)=       0.01100642 Eh      6.91 kcal/mol|
|  sn= 9 | S(rot)=       0.01089521 Eh      6.84 kcal/mol|
|  sn=10 | S(rot)=       0.01079573 Eh      6.77 kcal/mol|
|  sn=11 | S(rot)=       0.01070574 Eh      6.72 kcal/mol|
|  sn=12 | S(rot)=       0.01062359 Eh      6.67 kcal/mol|
 linear molecules ---------------------------------------
|  Dinfh | S(rot)=       0.00805832 Eh      5.06 kcal/mol|
|  Cinfv | S(rot)=       0.00871278 Eh      5.47 kcal/mol|
 --------------------------------------------------------


-------------------
GIBBS FREE ENERGY
-------------------

The Gibbs free energy is G = H - T*S

Total enthalpy                    ...  -1568.20099148 Eh 
Total entropy correction          ...     -0.04665936 Eh    -29.28 kcal/mol
-----------------------------------------------------------------------
Final Gibbs free energy         ...  -1568.24765084 Eh

For completeness - the Gibbs free energy minus the electronic energy
G-E(el)                           ...      0.06721456 Eh     42.18 kcal/mol


Maximum memory used throughout the entire PROP-calculation: 52.5 MB

--------------------------------
SUGGESTED CITATIONS FOR THIS RUN
--------------------------------

Below you find a list of papers that are relevant to this ORCA run
We neither can nor want to force you to cite these papers, but we appreciate if you do
You receive ORCA, which is the product of decades of hard work by many enthusiastic individuals, for free
The only thing we kindly ask in return is that you cite our papers,
We deeply appreciate it, if you show your appreciation for ORCA by not just citing the generic ORCA reference.

Please note that relegating all ORCA citations to the supporting information does *not* help us.
SI sections are not indexed - citations you put there will not count into any citation statistics
But we need these citations in order to attract the funding resources that allow us to do what we are doing

Therefore, if you are a happy ORCA user, please consider citing a few of the papers listed below in the main body of your paper

In addition to the list printed below, the program has created the file /users/s1155246974/li/fe2_triplet/fe2_triplet.bibtex that contains the list in bibtex format
You can import this file easily into all common literature databanks and citation aid programs


List of essential papers. We consider these as the minimum necessary citations

  1. Neese, F.
     Software update: the ORCA program system, version 6.0
     WIRES Comput. Molec. Sci. 2025 15(1), e70019
     doi.org/10.1002/wcms.7019

List of papers to cite with high priority. The work reported in these papers was absolutely
necessary for this run to complete.
Our perspective: the developers of density functionals and basis sets usually get cited in chemistry papers
Good! But without the algorithms to do something with them, the functionals or basis sets would not do anything.
Hence, in our opinion, the algorithm design and method developments papers are equally worthy of getting cited

  1. Neese, F.
     An improvement of the resolution of the identity approximation for the formation of the Coulomb matrix
     J. Comp. Chem. 2003 24(14), 1740-1747
     doi.org/10.1002/jcc.10318
  2. Neese, F.; Wennmohs, F.; Hansen, A.; Becker, U.
     Efficient, approximate and parallel Hartree-Fock and hybrid DFT calculations. A 'chain-of-spheres' algorithm for the Hartree-Fock exchange
     Chem. Phys. 2009 356(1-3), 98-109
     doi.org/10.1016/j.chemphys.2008.10.036
  3. Bykov, D.; Petrenko, T.; Izsak, R.; Kossmann, S.; Becker, U.; Valeev, E.; Neese, F.
     Efficient implementation of the analytic second derivatives of Hartree-Fock and hybrid DFT energies: a detailed analysis of different approximations
     Molec. Phys. 2015 113 , 1961-1977
     doi.org/10.1080/00268976.2015.1025114
  4. Helmich-Paris, B.; de Souza, B.; Neese, F.; Izsák, R.
     An improved chain of spheres for exchange algorithm
     J. Chem. Phys. 2021 155(10), 104109
     doi.org/10.1063/5.0058766
  5. Helmich-Paris, B.
     A trust-region augmented Hessian implementation for restricted and unrestricted Hartree–Fock and Kohn–Sham methods
     J. Chem. Phys. 2021 154 , 164104
     doi.org/10.1063/5.0040798
  6. Neese, F.
     The SHARK Integral Generation and Digestion System
     J. Comp. Chem. 2022 44(3), 381
     doi.org/10.1002/jcc.26942

List of suggested additional citations. These are papers that are important in the 'surrounding' of 
of this run, or papers that preceded the highly important papers. If you like your results we are grateful for a citation.

  1. Izsak, R.; Neese, F.
     An overlap fitted chain of spheres exchange method
     J. Chem. Phys. 2011 135 , 144105
     doi.org/10.1063/1.3646921
  2. Izsak, R.; Hansen, A.; Neese, F.
     The resolution of identity and chain of spheres approximations for the LPNO-CCSD singles Fock term
     Molec. Phys. 2012 110 , 2413-2417
     doi.org/10.1080/00268976.2012.687466
  3. Neese, F.
     The ORCA program system
     WIRES Comput. Molec. Sci. 2012 2(1), 73-78
     doi.org/10.1002/wcms.81
  4. Izsak, R.; Neese, F.; Klopper, W.
     Robust fitting techniques in the chain of spheres approximation to the Fock exchange: The role of the complementary space
     J. Chem. Phys. 2013 139 , 
     doi.org/10.1063/1.4819264
  5. Neese, F.
     Software update: the ORCA program system, version 4.0
     WIRES Comput. Molec. Sci. 2018 8(1), 1-6
     doi.org/10.1002/wcms.1327
  6. Neese, F.; Wennmohs, F.; Becker, U.; Riplinger, C.
     The ORCA quantum chemistry program package
     J. Chem. Phys. 2020 152(22), 224108
     doi.org/10.1063/5.0004608
  7. Neese, F.
     Software update: The ORCA program system—Version 5.0
     WIRES Comput. Molec. Sci. 2022 12(1), e1606
     doi.org/10.1002/wcms.1606

List of optional additional citations

  1. Neese, F.
     Approximate second-order SCF convergence for spin unrestricted wavefunctions
     Chem. Phys. Lett. 2000 325(1-3), 93-98
     doi.org/10.1016/s0009-2614(00)00662-x

Timings for individual modules:

Sum of individual times          ...     5540.200 sec (=  92.337 min)
Startup calculation              ...      379.671 sec (=   6.328 min)   6.9 %
SCF iterations                   ...     4734.402 sec (=  78.907 min)  85.5 %
Property integrals               ...      126.026 sec (=   2.100 min)   2.3 %
SCF Response                     ...       63.590 sec (=   1.060 min)   1.1 %
Property calculations            ...        7.173 sec (=   0.120 min)   0.1 %
SCF Gradient evaluation          ...      228.434 sec (=   3.807 min)   4.1 %
Geometry relaxation              ...        0.903 sec (=   0.015 min)   0.0 %
                             ****ORCA TERMINATED NORMALLY****
TOTAL RUN TIME: 0 days 1 hours 39 minutes 25 seconds 477 msec
