
                                 *****************
                                 * O   R   C   A *
                                 *****************

                                            #,                                       
                                            ###                                      
                                            ####                                     
                                            #####                                    
                                            ######                                   
                                           ########,                                 
                                     ,,################,,,,,                         
                               ,,#################################,,                 
                          ,,##########################################,,             
                       ,#########################################, ''#####,          
                    ,#############################################,,   '####,        
                  ,##################################################,,,,####,       
                ,###########''''           ''''###############################       
              ,#####''   ,,,,##########,,,,          '''####'''          '####       
            ,##' ,,,,###########################,,,                        '##       
           ' ,,###''''                  '''############,,,                           
         ,,##''                                '''############,,,,        ,,,,,,###''
      ,#''                                            '''#######################'''  
     '                                                          ''''####''''         
             ,#######,   #######,   ,#######,      ##                                
            ,#'     '#,  ##    ##  ,#'     '#,    #''#        ,####,    ,#,          
            ##       ##  ##   ,#'  ##            #'  '#       #'       ,# #          
            ##       ##  #######   ##           ,######,      #####,      #          
            '#,     ,#'  ##    ##  '#,     ,#' ,#      #,     #,   #      #          
             '#######'   ##     ##  '#######'  #'      '#     '####' #    #          



                #########################################################
                #                        -***-                          #
                #          Department of theory and spectroscopy        #
                #                                                       #
                #                      Frank Neese                      #
                #                                                       #
                #     Directorship, Architecture, Infrastructure        #
                #                    SHARK, DRIVERS                     #
                #        Core code/Algorithms in most modules           #
                #                                                       #
                #        Max Planck Institute fuer Kohlenforschung      #
                #                Kaiser Wilhelm Platz 1                 #
                #                 D-45470 Muelheim/Ruhr                 #
                #                      Germany                          #
                #                                                       #
                #                  All rights reserved                  #
                #                        -***-                          #
                #########################################################


                         Program Version 6.1.0  -  RELEASE   -
                                (GIT: $679e74b$)
                          ($2025-06-10 18:02:51 +0200$)


 With contributions from (in alphabetic order):
[Max-Planck-Institut fuer Kohlenforschung]                               
  Daniel Aravena         : Magnetic Suceptibility                        
  Michael Atanasov       : Ab Initio Ligand Field Theory (pilot matlab implementation)
  Alexander A. Auer      : GIAO ZORA, VPT2 properties, NMR spectrum      
  Ute Becker             : All parallelization in ORCA, NUMFREQ, NUMCALC 
  Giovanni Bistoni       : ED, misc. LED, open-shell LED, HFLD           
  Dmytro Bykov           : pre 5.0 version of the SCF Hessian            
  Marcos Casanova-Páez   : Triplet and SCS-CIS(D). UHF-(DLPNO)-IP/EA/STEOM-CCSD. UHF-CVS-IP/STEOM-CCSD   
  Vijay G. Chilkuri      : MRCI spin determinant printing, contributions to CSF-ICE 
  Pauline Colinet        : FMM embedding                                 
  Dipayan Datta          : RHF DLPNO-CCSD density                        
  Achintya Kumar Dutta   : EOM-CC, STEOM-CC                              
  Nicolas Foglia         : Exact transition moments, OPA infrastructure, MCD improvements    
  Dmitry Ganyushin       : Spin-Orbit,Spin-Spin,Magnetic field MRCI      
  Miquel Garcia-Rates    : C-PCM and meta-GGA Hessian, CCSD/C-PCM, Gaussian charge scheme 
  Tiago L. C. Gouveia    : GS-ROHF, GS-ROCIS                             
  Yang Guo               : DLPNO-NEVPT2, F12-NEVPT2, CIM, IAO-localization        
  Andreas Hansen         : Spin unrestricted coupled pair/coupled cluster methods 
  Ingolf Harden          : AUTO-CI MPn and infrastructure                
  Benjamin Helmich-Paris : MC-RPA, TRAH-(SCF,CASSCF), AVAS, COSX integrals, SCF dyn. polar., MC-PDFT, srDFT 
  Lee Huntington         : MR-EOM, pCC                                   
  Robert Izsak           : Overlap fitted RIJCOSX, COSX-SCS-MP3, EOM     
  Riya Kayal             : Wick's Theorem for AUTO-CI, AUTO-CI UHF-CCSDT 
  Emily Kempfer          : AUTO-CI RHF CISDT and CCSDT, approximate NEVPT4
  Christian Kollmar      : KDIIS, OOCD, Brueckner-CCSD(T), CCSD density, CASPT2, CASPT2-K, improved NEVPT2 
  Axel Koslowski         : Symmetry handling                             
  Simone Kossmann        : meta-GGA functionals, TD-DFT gradient, OOMP2, (MP2 Hessian; deprecated post 5.0) 
  Lucas Lang             : DCDCAS, Hyperfine gauge corrections, ICE-SOC+SSC
  Marvin Lechner         : AUTO-CI (C++ implementation), FIC-MRCC        
  Spencer Leger          : CASSCF response                               
  Dagmar Lenk            : GEPOL surface, SMD, ORCA-2-JSON               
  Dimitrios Liakos       : Extrapolation schemes; Compound Job, Property file
  Dimitrios Manganas     : Further ROCIS development; embedding schemes. LFT, Crystal Embedding 
  Dimitrios Pantazis     : SARC Basis sets                               
  Anastasios Papadopoulos: AUTO-CI, single reference methods and gradients 
  Taras Petrenko         : pre 6.0 DFT Hessian and TD-DFT gradient,  ECA, NRVS 
  Petra Pikulova         : Analytic Raman intensities                    
  Peter Pinski           : DLPNO-MP2, DLPNO-MP2 Gradient                 
  Shashank Vittal Rao    : ES-AILFT, MagRelax                            
  Christoph Reimann      : Effective Core Potentials                     
  Marius Retegan         : Local ZFS, SOC                                
  Christoph Riplinger    : Optimizer, TS searches, QM/MM, DLPNO-CCSD(T), (RO)-DLPNO pert. Triples 
  Michael Roemelt        : Original ROCIS implementation, recursive CI coupling coefficients
  Masaaki Saitow         : Open-shell DLPNO-CCSD energy and density      
  Barbara Sandhoefer     : DKH picture change effects                    
  Yorick L. A. Schmerwitz: GMF and freeze-and-release deltaSCF, NEB S-IDPP initial path                    
  Kantharuban Sivalingam : CASSCF convergence/infrastructure, NEVPT2, NEVPT3, NEVPT4(SD), FIC-MRCI and CEPA variants
  Bernardo de Souza      : ESD, SOC TD-DFT                               
  Georgi L. Stoychev     : AutoAux, RI-MP2 NMR, DLPNO-MP2 response, X2C  
  Van Anh Tran           : RI-MP2 g-tensors                              
  Willem Van den Heuvel  : Paramagnetic NMR                              
  Zikuan Wang            : NOTCH, Electric field optimization            
  Frank Wennmohs         : Technical directorship and infrastructure     
  Hang Xu                : AUTO-CI-Response properties                   
                                                                         
[FACCTs GmbH]                                                            
  Markus Bursch, Nicolas Foglia, Miquel Garcia-Rates, Ingolf Harden, Hagen Neugebauer, Anastasios Papadopoulos, 
  Christoph Riplinger, Bernardo de Souza, Georgi L. Stoychev                                                    
                                                                 
  APM, various basis sets, CI-OPT, improved COSX, DLPNO-Multilevel,           
  DOCKER, DRACO, updates on ESD, Fragmentator, GOAT, IRC, LR-CPCM, L-BFGS, MBIS, meta-GGA TD-DFT gradient, ML-optimized integration grids, 
  MM, NACMEs, nearIR, NEB, NEB-TS, NL-DFT gradient (VV10), 2- and 3-layer-ONIOM, interface openCOSMO-RS, QMMM,   
  Crystal-QMMM, RESP, rigid body optimization, SF, symmetry and pop. for TD-DFT, various functionals, SOLVATOR                                   
                                                                         
[Other institutions]                                                     
  V. Asgeirsson          : NEB                                           
  Christoph Bannwarth    : sTDA-DFT, sTD-DFT, PBEh-3c, B97-3c, D3        
  Giovanni Bistoni       : ETS/NOCV, ADLD/ADEX, COVALED                  
  Martin Brehm           : Molecular dynamics                            
  Ronald Cardenas        : ETS/NOCV                                      
  Martina Colucci        : COVALED                                       
  Sebastian Ehlert       : rSCAN, r2SCAN, r2SCAN-3c, D4, dhf basis sets  
  Marvin Friede          : D4 for Fr, Ra, Ac-Lr                          
  Lars Goerigk           : TD-DFT with DH, B97 family of functionals     
  Stefan Grimme          : VdW corrections, initial TS optimization, DFT functionals, gCP, sTDA/sTD-DF 
  Waldemar Hujo          : DFT-NL                                        
  H. Jonsson             : NEB                                           
  Holger Kruse           : gCP                                           
  Marcel Mueller         : wB97X-3c, vDZP basis set                      
  Hagen Neugebauer       : wr2SCAN, Native XTB                           
  Gianluca Regni         : ADLD/ADEX                                     
  Tobias Risthaus        : pre 6.0 range-separated hybrid DFT and stability analysis
  Lukas Wittmann         : regularized MP2, r2SCAN double-hybrids, wr2SCAN        
                                                                         
We gratefully acknowledge several colleagues who have allowed us to      
interface, adapt or use parts of their codes:                            
  Ed Valeev, F. Pavosevic, A. Kumar             : LibInt (2-el integral package), F12 methods 
  Garnet Chan, S. Sharma, J. Yang, R. Olivares  : DMRG                   
  Ulf Ekstrom                                   : XCFun DFT Library      
  Mihaly Kallay                                 : mrcc  (arbitrary order and MRCC methods)
  Frank Weinhold                                : gennbo (NPA and NBO analysis)           
  Simon Mueller                                 : openCOSMO-RS                            
  Christopher J. Cramer and Donald G. Truhlar   : smd solvation model                     
  S Lehtola, MJT Oliveira, MAL Marques          : LibXC Library                           
  Liviu Ungur et al                             : ANISO software                          


 Your calculation uses the libint2 library for the computation of 2-el integrals
 For citations please refer to: http://libint.valeyev.net

 Your ORCA version has been built with support for libXC version: 7.0.0
 For citations please refer to: https://libxc.gitlab.io

 This ORCA versions uses:
   CBLAS   interface :  Fast vector & matrix operations
   LAPACKE interface :  Fast linear algebra routines
   SCALAPACK package :  Parallel linear algebra routines
   Shared memory     :  Shared parallel matrices
   BLAS/LAPACK       :  OpenBLAS 0.3.29  USE64BITINT DYNAMIC_ARCH NO_AFFINITY Cooperlake SINGLE_THREADED
        Core in use  :  Cooperlake
   Copyright (c) 2011-2014, The OpenBLAS Project


  ***********************************
  * Starting time: Fri Nov 28 16:46:25 2025
  * Host name:     chpc-cn074.rc.cuhk.edu.hk
  * Process ID:    285700
  * Working dir.:  /lustre/scratch/xlzhang/zihan/fe3_quartet
  ***********************************

NOTE: MaxCore=2109 MB was set to SCF,MP2,MDCI,CIPSI,MRCI,RASCI and CIS
      => If you want to overwrite this, your respective input block should be placed after the MaxCore statement
XCFun DFT library Copyright 2009-2010 Ulf Ekstrom and contributors.
See http://admol.org/xcfun for more information.
This is free software; see the source code for copying conditions.
There is ABSOLUTELY NO WARRANTY; not even for MERCHANTABILITY or FITNESS FOR A PARTICULAR PURPOSE.
For details see the documentation.
Scientific users of this library should cite U. Ekstrom, L. Visscher, R. Bast, A. J. Thorvaldsen and K. Ruud;
J.Chem.Theor.Comp. 2010, DOI: 10.1021/ct100117s
XCFun Version 0.99 

Warning: RI is on but no J-basis has been assigned. Assigning Def2/J (nothing to worry about!)
================================================================================

----- Orbital basis set information -----
Your calculation utilizes the basis: def2-SVP
   F. Weigend and R. Ahlrichs, Phys. Chem. Chem. Phys. 7, 3297 (2005).

----- AuxJ basis set information -----
Your calculation utilizes the auxiliary basis: def2/J
   H-Rn: F. Weigend, Phys. Chem. Chem. Phys. 8, 1057 (2006).
   Fr-Lr: K. Eichkorn, F. Weigend, O. Treutler, R. Ahlrichs; Theor. Chem. Acc. 97, 119 (1997).

================================================================================
                                        WARNINGS
                       Please study these warnings very carefully!
================================================================================


WARNING: your system is open-shell and RHF/RKS was chosen
  ===> : WILL SWITCH to UHF/UKS

WARNING: Functional chosen is sensitive to the integration grid.
         DEFGRID3 seems to be a minimum grid for robust results!

WARNING: Geometry Optimization
  ===> : Switching off AutoStart
         For restart on a previous wavefunction, please use MOREAD

================================================================================
                                       INPUT FILE
================================================================================
NAME = /users/s1155246974/li/fe3_quartet/fe3_quartet.inp
|  1> ! Opt Freq M062X def2-SVP defgrid2
|  2> # Number of processors
|  3> %pal nprocs 64 end
|  4> # Memory per core
|  5> %maxcore 2109
|  6> * xyz 3 4
|  7> Fe      -2.1311475900   -0.9394703500    0.0000000000
|  8> O       -2.1311475900    0.8805296500    0.0000000000
|  9> H       -1.6783051600    1.2005296500    0.7836668500
| 10> O       -3.9511475900   -0.9394703500    0.0000000000
| 11> H       -4.2711475900   -1.6929644800   -0.5014445000
| 12> O       -2.1311475900   -2.7594703500    0.0000000000
| 13> H       -1.3001591600   -3.2394703500   -0.0256561100
| 14> O       -0.3111475900   -0.9394703500    0.0000000000
| 15> H        0.1688524100   -0.8543234600   -0.8270127000
| 16> H       -2.9621360100   -3.2394703500    0.0256561100
| 17> H       -4.2711475900   -0.1284596100   -0.4018228100
| 18> H        0.1688524100   -1.0246172500    0.8270127000
| 19> H       -1.6788934000    1.2005296500   -0.7840064700
| 20> *
| 21> 
| 22>                          ****END OF INPUT****
================================================================================

                       *****************************
                       * Geometry Optimization Run *
                       *****************************

Geometry optimization settings:
Update method            Update   .... BFGS
Choice of coordinates    CoordSys .... (2022) Redundant Internals
Initial Hessian          InHess   .... Almloef's Model
Max. no of cycles        MaxIter  .... 50

Convergence Tolerances:
Energy Change            TolE     ....  5.0000e-06 Eh
Max. Gradient            TolMAXG  ....  3.0000e-04 Eh/bohr
RMS Gradient             TolRMSG  ....  1.0000e-04 Eh/bohr
Max. Displacement        TolMAXD  ....  4.0000e-03 bohr
RMS Displacement         TolRMSD  ....  2.0000e-03 bohr
Strict Convergence                .... False

------------------------------------------------------------------------------
                        ORCA OPTIMIZATION COORDINATE SETUP
------------------------------------------------------------------------------

The optimization will be done in redundant internal coordinates (2022)
Making redundant internal coordinates   ...  (2022 redundants) done
Evaluating the initial hessian          ...  (Almloef) done
Evaluating the coordinates              ...  done
Calculating the B-matrix                .... done
Calculating the G-matrix                .... done
The number of degrees of freedom        ....   52

    -----------------------------------------------------------------
                    Redundant Internal Coordinates


    -----------------------------------------------------------------
         Definition                    Initial Value    Approx d2E/dq
    -----------------------------------------------------------------
      1. B(O   1,Fe  0)                  1.8200         1.166709   
      2. B(H   2,O   1)                  0.9600         0.519956   
      3. B(O   3,Fe  0)                  1.8200         1.166709   
      4. B(H   4,O   3)                  0.9600         0.519956   
      5. B(O   5,Fe  0)                  1.8200         1.166709   
      6. B(H   6,O   5)                  0.9600         0.519956   
      7. B(O   7,Fe  0)                  1.8200         1.166709   
      8. B(H   8,O   7)                  0.9600         0.519956   
      9. B(H   9,O   5)                  0.9600         0.519956   
     10. B(H  10,O   3)                  0.9600         0.519956   
     11. B(H  11,O   7)                  0.9600         0.519956   
     12. B(H  12,O   1)                  0.9600         0.519956   
     13. A(O   1,Fe  0,O   3)           90.0000         0.694653   
     14. A(O   5,Fe  0,O   7)           90.0000         0.694653   
     15. A(O   1,Fe  0,O   7)           90.0000         0.694653   
     16. A(O   3,Fe  0,O   5)           90.0000         0.694653   
     17. A(Fe  0,O   1,H  12)          109.4712         0.464522   
     18. A(H   2,O   1,H  12)          109.4712         0.321834   
     19. A(Fe  0,O   1,H   2)          109.4712         0.464522   
     20. A(H   4,O   3,H  10)          109.4712         0.321834   
     21. A(Fe  0,O   3,H   4)          109.4712         0.464522   
     22. A(Fe  0,O   3,H  10)          109.4712         0.464522   
     23. A(H   6,O   5,H   9)          120.0000         0.321834   
     24. A(Fe  0,O   5,H   6)          120.0000         0.464522   
     25. A(Fe  0,O   5,H   9)          120.0000         0.464522   
     26. A(H   8,O   7,H  11)          120.0000         0.321834   
     27. A(Fe  0,O   7,H  11)          120.0000         0.464522   
     28. A(Fe  0,O   7,H   8)          120.0000         0.464522   
     29. D(H  12,O   1,Fe  0,O   3)   -119.9785         0.010000   
     30. D(H  12,O   1,Fe  0,O   7)     60.0215         0.010000   
     31. D(H   2,O   1,Fe  0,O   3)    120.0215         0.010000   
     32. D(H   2,O   1,Fe  0,O   7)    -59.9785         0.010000   
     33. D(H   4,O   3,Fe  0,O   5)    -33.6435         0.010000   
     34. D(H   4,O   3,Fe  0,O   1)    146.3565         0.010000   
     35. D(H  10,O   3,Fe  0,O   1)     26.3565         0.010000   
     36. D(H  10,O   3,Fe  0,O   5)   -153.6435         0.010000   
     37. D(H   6,O   5,O   1,H  12)     58.2531         0.010000   
     38. D(H   6,O   5,O   1,H   2)    -61.7469         0.010000   
     39. D(H   9,O   5,Fe  0,O   7)    178.2316         0.010000   
     40. D(H   9,O   5,Fe  0,O   3)     -1.7684         0.010000   
     41. D(H   6,O   5,Fe  0,O   7)     -1.7684         0.010000   
     42. D(H   9,O   5,O   1,H   2)    118.2531         0.010000   
     43. D(H   6,O   5,Fe  0,O   3)    178.2316         0.010000   
     44. D(H   9,O   5,O   1,H  12)   -121.7469         0.010000   
     45. D(H  11,O   7,O   3,H  10)    122.2348         0.010000   
     46. D(H   8,O   7,O   3,H  10)    -57.7652         0.010000   
     47. D(H   8,O   7,O   3,H   4)     62.2348         0.010000   
     48. D(H  11,O   7,Fe  0,O   5)    -84.1217         0.010000   
     49. D(H  11,O   7,Fe  0,O   1)     95.8783         0.010000   
     50. D(H  11,O   7,O   3,H   4)   -117.7652         0.010000   
     51. D(H   8,O   7,Fe  0,O   5)     95.8783         0.010000   
     52. D(H   8,O   7,Fe  0,O   1)    -84.1217         0.010000   
    -----------------------------------------------------------------

Number of atoms                         .... 13
Number of degrees of freedom            .... 52


         *************************************************************
         *                GEOMETRY OPTIMIZATION CYCLE   1            *
         *************************************************************
---------------------------------
CARTESIAN COORDINATES (ANGSTROEM)
---------------------------------
  Fe    -2.131148   -0.939470    0.000000
  O     -2.131148    0.880530    0.000000
  H     -1.678305    1.200530    0.783667
  O     -3.951148   -0.939470    0.000000
  H     -4.271148   -1.692964   -0.501444
  O     -2.131148   -2.759470    0.000000
  H     -1.300159   -3.239470   -0.025656
  O     -0.311148   -0.939470    0.000000
  H      0.168852   -0.854323   -0.827013
  H     -2.962136   -3.239470    0.025656
  H     -4.271148   -0.128460   -0.401823
  H      0.168852   -1.024617    0.827013
  H     -1.678893    1.200530   -0.784006

----------------------------
CARTESIAN COORDINATES (A.U.)
----------------------------
  NO LB      ZA    FRAG     MASS         X           Y           Z
   0 Fe   26.0000    0    55.850   -4.027285   -1.775342    0.000000
   1 O     8.0000    0    15.999   -4.027285    1.663960    0.000000
   2 H     1.0000    0     1.008   -3.171537    2.268672    1.480916
   3 O     8.0000    0    15.999   -7.466587   -1.775342    0.000000
   4 H     1.0000    0     1.008   -8.071299   -3.199239   -0.947593
   5 O     8.0000    0    15.999   -4.027285   -5.214643    0.000000
   6 H     1.0000    0     1.008   -2.456945   -6.121712   -0.048483
   7 O     8.0000    0    15.999   -0.587984   -1.775342    0.000000
   8 H     1.0000    0     1.008    0.319085   -1.614437   -1.562828
   9 H     1.0000    0     1.008   -5.597626   -6.121712    0.048483
  10 H     1.0000    0     1.008   -8.071299   -0.242753   -0.759335
  11 H     1.0000    0     1.008    0.319085   -1.936246    1.562828
  12 H     1.0000    0     1.008   -3.172649    2.268672   -1.481558

--------------------------------
INTERNAL COORDINATES (ANGSTROEM)
--------------------------------
 Fe     0   0   0     0.000000000000     0.00000000     0.00000000
 O      1   0   0     1.820000000000     0.00000000     0.00000000
 H      2   1   0     0.959999999061   109.47122065     0.00000000
 O      1   2   3     1.820000000000    90.00000000   120.02149934
 H      4   1   2     0.959999995065   109.47122074   146.35654271
 O      1   2   3     1.820000000000   180.00000000     0.00000000
 H      6   1   2     0.960000003528   119.99999988     0.00000000
 O      1   2   3     1.820000000000    90.00000000   300.02149934
 H      8   1   2     0.959999999395   120.00000002   275.87829955
 H      6   1   8     0.959999994872   120.00000018   178.23159989
 H      4   1   2     0.959999995329   109.47122073    26.35654283
 H      8   1   2     0.960000000282   119.99999999    95.87830024
 H      2   1   3     0.959999998633   109.47122066   119.99999963

---------------------------
INTERNAL COORDINATES (A.U.)
---------------------------
 Fe     0   0   0     0.000000000000     0.00000000     0.00000000
 O      1   0   0     3.439301563737     0.00000000     0.00000000
 H      2   1   0     1.814137086790   109.47122065     0.00000000
 O      1   2   3     3.439301563737    90.00000000   120.02149934
 H      4   1   2     1.814137079239   109.47122074   146.35654271
 O      1   2   3     3.439301563737   180.00000000     0.00000000
 H      6   1   2     1.814137095232   119.99999988     0.00000000
 O      1   2   3     3.439301563737    90.00000000   300.02149934
 H      8   1   2     1.814137087421   120.00000002   275.87829955
 H      6   1   8     1.814137078874   120.00000018   178.23159989
 H      4   1   2     1.814137079737   109.47122073    26.35654283
 H      8   1   2     1.814137089097   119.99999999    95.87830024
 H      2   1   3     1.814137085980   109.47122066   119.99999963

---------------------
BASIS SET INFORMATION
---------------------
There are 3 groups of distinct atoms

 Group   1 Type Fe  : 14s9p5d1f contracted to 5s3p2d1f pattern {63311/531/41/1}
 Group   2 Type O   : 7s4p1d contracted to 3s2p1d pattern {511/31/1}
 Group   3 Type H   : 4s1p contracted to 2s1p pattern {31/1}

Atom   0Fe   basis set group =>   1
Atom   1O    basis set group =>   2
Atom   2H    basis set group =>   3
Atom   3O    basis set group =>   2
Atom   4H    basis set group =>   3
Atom   5O    basis set group =>   2
Atom   6H    basis set group =>   3
Atom   7O    basis set group =>   2
Atom   8H    basis set group =>   3
Atom   9H    basis set group =>   3
Atom  10H    basis set group =>   3
Atom  11H    basis set group =>   3
Atom  12H    basis set group =>   3
---------------------------------
AUXILIARY/J BASIS SET INFORMATION
---------------------------------
There are 3 groups of distinct atoms

 Group   1 Type Fe  : 19s5p5d3f3g contracted to 8s5p5d2f3g pattern {121111111/11111/11111/21/111}
 Group   2 Type O   : 12s5p4d2f1g contracted to 6s4p3d1f1g pattern {711111/2111/211/2/1}
 Group   3 Type H   : 5s2p1d contracted to 3s1p1d pattern {311/2/1}

Atom   0Fe   basis set group =>   1
Atom   1O    basis set group =>   2
Atom   2H    basis set group =>   3
Atom   3O    basis set group =>   2
Atom   4H    basis set group =>   3
Atom   5O    basis set group =>   2
Atom   6H    basis set group =>   3
Atom   7O    basis set group =>   2
Atom   8H    basis set group =>   3
Atom   9H    basis set group =>   3
Atom  10H    basis set group =>   3
Atom  11H    basis set group =>   3
Atom  12H    basis set group =>   3


           ************************************************************
           *        Program running with 64 parallel MPI-processes    *
           *              working on a common directory               *
           ************************************************************
------------------------------------------------------------------------------
                             ORCA STARTUP CALCULATIONS
                           -- RI-GTO INTEGRALS CHOSEN --
------------------------------------------------------------------------------
------------------------------------------------------------------------------
                   ___                                                        
                  /   \      - P O W E R E D   B Y -                         
                 /     \                                                     
                 |  |  |   _    _      __       _____    __    __             
                 |  |  |  | |  | |    /  \     |  _  \  |  |  /  |          
                  \  \/   | |  | |   /    \    | | | |  |  | /  /          
                 / \  \   | |__| |  /  /\  \   | |_| |  |  |/  /          
                |  |  |   |  __  | /  /__\  \  |    /   |      \           
                |  |  |   | |  | | |   __   |  |    \   |  |\   \          
                \     /   | |  | | |  |  |  |  | |\  \  |  | \   \       
                 \___/    |_|  |_| |__|  |__|  |_| \__\ |__|  \__/        
                                                                              
                      - O R C A' S   B I G   F R I E N D -                    
                                      &                                       
                       - I N T E G R A L  F E E D E R -                       
                                                                              
 v1 FN, 2020, v2 2021, v3 2022-2024                                           
------------------------------------------------------------------------------


----------------------
SHARK INTEGRAL PACKAGE
----------------------

Number of atoms                             ...     13
Number of basis functions                   ...    127
Number of shells                            ...     59
Maximum angular momentum                    ...      3
Integral batch strategy                     ... SHARK/LIBINT Hybrid
RI-J (if used) integral strategy            ... SPLIT-RIJ (Revised 2003 algorithm where possible)
Printlevel                                  ...      1
Contraction scheme used                     ... SEGMENTED contraction
Prescreening option                         ... SCHWARTZ
   Thresh                                   ... 2.500e-11
   Tcut                                     ... 2.500e-12
   Tpresel                                  ... 2.500e-12 
Coulomb Range Separation                    ... NOT USED
Exchange Range Separation                   ... NOT USED
Multipole approximations                    ... NOT USED
Finite Nucleus Model                        ... NOT USED
CABS basis                                  ... NOT available
Auxiliary Coulomb fitting basis             ... AVAILABLE
   # of basis functions in Aux-J            ...    373
   # of shells in Aux-J                     ...    123
   Maximum angular momentum in Aux-J        ...      4
Auxiliary J/K fitting basis                 ... NOT available
Auxiliary Correlation fitting basis         ... NOT available
Auxiliary 'external' fitting basis          ... NOT available

Checking pre-screening integrals            ... done (  0.6 sec) Dimension = 59
   => SHARK Basis and OBASIS are compatible. Storing Pre-screening
Shell pair information
Shell pair cut-off parameter TPreSel        ...   2.5e-12
Total number of shell pairs                 ...      1770
Shell pairs after pre-screening             ...      1720
Total number of primitive shell pairs       ...      7019
Primitive shell pairs kept                  ...      5099
          la=0 lb=0:    539 shell pairs
          la=1 lb=0:    607 shell pairs
          la=1 lb=1:    186 shell pairs
          la=2 lb=0:    194 shell pairs
          la=2 lb=1:    114 shell pairs
          la=2 lb=2:     21 shell pairs
          la=3 lb=0:     33 shell pairs
          la=3 lb=1:     19 shell pairs
          la=3 lb=2:      6 shell pairs
          la=3 lb=3:      1 shell pairs

Checking whether 4 symmetric matrices of dimension 127 fit in memory
:Max Core in MB      =   2109.00
 MB in use           =      5.62
 MB left             =   2103.38
 MB needed           =      0.25
 Data fit in memory  = YES
Calculating RI/J V-Matrix + Cholesky decomp.... done (  1.3 sec)
Calculating Nuclear repulsion               ... done (  0.0 sec) ENN=    430.839247573102 Eh

Diagonalization of the overlap matrix:
Smallest eigenvalue                        ... 1.524e-02
Time for diagonalization                   ...    0.015 sec
Threshold for overlap eigenvalues          ... 1.000e-07
Number of eigenvalues below threshold      ... 0
Time for construction of square roots      ...    0.074 sec
Total time needed                          ...    0.328 sec

-------------------
DFT GRID GENERATION
-------------------

General Integration Accuracy     IntAcc      ... 4.388
Radial Grid Type                 RadialGrid  ... OptM3 with GC (2021)
Angular Grid (max. ang.)         AngularGrid ... 4 (Lebedev-302)
Angular grid pruning method      GridPruning ... 4 (adaptive)
Weight generation scheme         WeightScheme... mBecke (2022)
Basis function cutoff            BFCut       ... 1.0000e-11
Integration weight cutoff        WCut        ... 1.0000e-14
Partially contracted basis set               ... off
Rotationally invariant grid construction     ... off
Angular grids for H and He will be reduced by one unit
Core-polarized basis detected: some atoms will have their core
                               angular grid increased.

Total number of grid points                  ...    61293
Total number of batches                      ...      963
Average number of points per batch           ...       63
Average number of grid points per atom       ...     4715

--------------------
COSX GRID GENERATION
--------------------

GRIDX 1
-------
General Integration Accuracy     IntAcc      ... 3.816
Radial Grid Type                 RadialGrid  ... OptM3 with GC (2021)
Angular Grid (max. ang.)         AngularGrid ... 1 (Lebedev-50)
Angular grid pruning method      GridPruning ... 4 (adaptive)
Weight generation scheme         WeightScheme... mBecke (2022)
Basis function cutoff            BFCut       ... 1.0000e-11
Integration weight cutoff        WCut        ... 1.0000e-14
Partially contracted basis set               ... on
Rotationally invariant grid construction     ... off
Angular grids for H and He will be reduced by one unit
Core-polarized basis detected: some atoms will have their core
                               angular grid increased.

Total number of grid points                  ...    12269
Total number of batches                      ...      101
Average number of points per batch           ...      121
Average number of grid points per atom       ...      944
UseSFitting                                  ... on

GRIDX 2
-------
General Integration Accuracy     IntAcc      ... 4.020
Radial Grid Type                 RadialGrid  ... OptM3 with GC (2021)
Angular Grid (max. ang.)         AngularGrid ... 2 (Lebedev-110)
Angular grid pruning method      GridPruning ... 4 (adaptive)
Weight generation scheme         WeightScheme... mBecke (2022)
Basis function cutoff            BFCut       ... 1.0000e-11
Integration weight cutoff        WCut        ... 1.0000e-14
Partially contracted basis set               ... on
Rotationally invariant grid construction     ... off
Angular grids for H and He will be reduced by one unit
Core-polarized basis detected: some atoms will have their core
                               angular grid increased.

Total number of grid points                  ...    19358
Total number of batches                      ...      159
Average number of points per batch           ...      121
Average number of grid points per atom       ...     1489
UseSFitting                                  ... on

GRIDX 3
-------
General Integration Accuracy     IntAcc      ... 4.338
Radial Grid Type                 RadialGrid  ... OptM3 with GC (2021)
Angular Grid (max. ang.)         AngularGrid ... 3 (Lebedev-194)
Angular grid pruning method      GridPruning ... 4 (adaptive)
Weight generation scheme         WeightScheme... mBecke (2022)
Basis function cutoff            BFCut       ... 1.0000e-11
Integration weight cutoff        WCut        ... 1.0000e-14
Partially contracted basis set               ... on
Rotationally invariant grid construction     ... off
Angular grids for H and He will be reduced by one unit
Core-polarized basis detected: some atoms will have their core
                               angular grid increased.

Total number of grid points                  ...    35546
Total number of batches                      ...      285
Average number of points per batch           ...      124
Average number of grid points per atom       ...     2734
UseSFitting                                  ... on
Grids setup in   6.3 sec
Initializing property integral containers    ... done (  0.4 sec)

SHARK setup successfully completed in  11.2 seconds

Maximum memory used throughout the entire STARTUP-calculation: 17.9 MB


           ************************************************************
           *        Program running with 64 parallel MPI-processes    *
           *              working on a common directory               *
           ************************************************************
-------------------------------------------------------------------------------
                                 ORCA GUESS
                   Start orbitals & Density for SCF / CASSCF
-------------------------------------------------------------------------------

------------
SCF SETTINGS
------------
Hamiltonian:
 Density Functional     Method          .... DFT(GTOs)
 Exchange Functional    Exchange        .... M062X
 Correlation Functional Correlation     .... M062X
 Gradients option       PostSCFGGA      .... off
 Hybrid DFT is turned on
   Fraction HF Exchange ScalHFX         ....  0.540000
   Scaling of DF-GGA-X  ScalDFX         ....  0.460000
   Scaling of DF-GGA-C  ScalDFC         ....  1.000000
   Scaling of DF-LDA-C  ScalLDAC        ....  1.000000
   Perturbative correction              ....  0.000000
 RI-approximation to the Coulomb term is turned on
   Number of AuxJ basis functions       .... 373
   RIJ-COSX (HFX calculated with COS-X)).... on


General Settings:
 Integral files         IntName         .... /users/s1155246974/li/fe3_quartet/fe3_quartet
 Hartree-Fock type      HFTyp           .... UHF
 Total Charge           Charge          ....    3
 Multiplicity           Mult            ....    4
 Number of Electrons    NEL             ....   63
 Basis Dimension        Dim             ....  127
 Nuclear Repulsion      ENuc            ....    430.8392475731 Eh

Convergence Acceleration:
 AO-DIIS                CNVDIIS         .... on
   Start iteration      DIISMaxIt       ....    12
   Startup error        DIISStart       ....  0.200000
   # of expansion vecs  DIISMaxEq       ....     5
   Bias factor          DIISBfac        ....   1.050
   Max. coefficient     DIISMaxC        ....  10.000
 MO-DIIS                CNVKDIIS        .... off
 Trust-Rad. Augm. Hess. CNVTRAH         .... auto
   Auto Start mean grad. ratio tolernc. ....  1.125000
   Auto Start start iteration           ....    50
   Auto Start num. interpolation iter.  ....    10
   Max. Number of Micro iterations      ....    24
   Max. Number of Macro iterations      .... Maxiter - #DIIS iter
   Number of Davidson start vectors     ....     2
   Converg. threshold    (grad. norm)   ....   1.000e-05
   Grad. Scal. Fac. for Micro threshold ....   0.100
   Minimum threshold for Micro iter.    ....   1.000e-02
   NR start threshold (gradient norm)   ....   1.000e-04
   Initial trust radius                 ....   0.400
   Minimum AH scaling param. (alpha)    ....   1.000
   Maximum AH scaling param. (alpha)    .... 1000.000
   Quad. conv. algorithm                .... NR
   White noise on init. David. guess    .... on
   Maximum white noise                  ....   0.010
   Pseudo random numbers                .... off
   Inactive MOs                         .... canonical
   Orbital update algorithm             .... Taylor
   Preconditioner                       .... Diag
   Full preconditioner red. dimension   ....   250
 SOSCF                 CNVSOSCF           .... on
   Start iteration     SOSCFMaxIt         ....   150
   Startup grad/error  SOSCFStart         ....  0.003300
   Hessian update      SOSCFHessUp        .... L-BFGS
   Autom. constraints  SOSCFAutoConstrain .... off
 Level Shifting         CNVShift        .... on
   Level shift para.    LevelShift      ....    0.2500
   Turn off err/grad.   ShiftErr        ....    0.0010
 Zerner damping         CNVZerner       .... off
 Static damping         CNVDamp         .... on
   Fraction old density DampFac         ....    0.7000
   Max. Damping (<1)    DampMax         ....    0.9800
   Min. Damping (>=0)   DampMin         ....    0.0000
   Turn off err/grad.   DampErr         ....    0.1000

SCF Procedure:
 Maximum # iterations   MaxIter         ....   125
 SCF integral mode      SCFMode         .... Direct
   Integral package                     .... SHARK and LIBINT hybrid scheme
 Reset frequency        DirectResetFreq ....    20
 Integral Threshold     Thresh          ....  2.500e-11 Eh
 Primitive CutOff       TCut            ....  2.500e-12 Eh

Convergence Tolerance:
 Convergence Check Mode ConvCheckMode   .... Total+1el-Energy
 Convergence forced     ConvForced      .... 0
 Energy Change          TolE            ....  1.000e-08 Eh
 1-El. energy change                    ....  1.000e-05 Eh
 Orbital Gradient       TolG            ....  1.000e-05
 Orbital Rotation angle TolX            ....  1.000e-05
 DIIS Error             TolErr          ....  5.000e-07

------------------------------
INITIAL GUESS: MODEL POTENTIAL
------------------------------
Loading Hartree-Fock densities                     ... done
Calculating cut-offs                               ... done
Initializing the effective Hamiltonian             ... done
Setting up the integral package (SHARK)            ... done
Starting the Coulomb interaction                   ... done (   1.2 sec)
Making the grid                                    ... done (   1.0 sec)
Mapping shells                                     ... done
Starting the XC term evaluation                    ... done (   0.1 sec)
  promolecular density results
     # of electrons  =     65.998544033
     EX              =    -89.331163655
     EC              =     -2.503922825
     EX+EC           =    -91.835086480
Transforming the Hamiltonian                       ... done (   0.2 sec)
Diagonalizing the Hamiltonian                      ... done (   0.0 sec)
Back transforming the eigenvectors                 ... done (   0.4 sec)
Now organizing SCF variables                       ... done
                      ------------------
                      INITIAL GUESS DONE (   4.0 sec)
                      ------------------
             **** ENERGY FILE WAS UPDATED (/users/s1155246974/li/fe3_quartet/fe3_quartet.en.tmp) ****
Finished Guess after   8.4 sec
Maximum memory used throughout the entire GUESS-calculation: 9.2 MB


           ************************************************************
           *        Program running with 64 parallel MPI-processes    *
           *              working on a common directory               *
           ************************************************************

-------------------------------------------------------------------------------------------
                                      ORCA LEAN-SCF
                              memory conserving SCF solver
-------------------------------------------------------------------------------------------

----------------------------------------D-I-I-S--------------------------------------------
Iteration    Energy (Eh)           Delta-E    RMSDP     MaxDP     DIISErr   Damp  Time(sec)
-------------------------------------------------------------------------------------------
               ***  Starting incremental Fock matrix formation  ***
    1    -1567.1475583623582679     0.00e+00  2.81e-02  8.60e-02  2.47e-01  0.700   5.4
    2    -1567.3194741964730383    -1.72e-01  1.26e-02  3.08e-02  7.99e-02  0.700   5.3
                               ***Turning on AO-DIIS***
    3    -1567.3664102939108034    -4.69e-02  5.02e-03  1.78e-02  3.60e-02  0.700   4.1
    4    -1567.4102626489784598    -4.39e-02  1.39e-02  4.59e-02  3.10e-02  0.000   3.4
    5    -1567.5203626816974065    -1.10e-01  4.05e-03  1.35e-02  1.55e-02  0.000   3.1
    6    -1567.5228531140246560    -2.49e-03  2.71e-03  8.77e-03  6.71e-03  0.000   2.3
    7    -1567.5238178610891282    -9.65e-04  1.54e-03  5.26e-03  4.72e-03  0.000   2.2
                              *** Initializing SOSCF ***
---------------------------------------S-O-S-C-F--------------------------------------
Iteration    Energy (Eh)           Delta-E    RMSDP     MaxDP     MaxGrad    Time(sec)
--------------------------------------------------------------------------------------
    8    -1567.5241775111969673    -3.60e-04  1.38e-03  6.43e-03  2.30e-03     6.3
               *** Restarting incremental Fock matrix formation ***
    9    -1567.5245120311533356    -3.35e-04  8.10e-04  3.21e-03  2.05e-03     3.0
   10    -1567.5245796648348460    -6.76e-05  1.64e-03  8.26e-03  1.72e-03     2.9
   11    -1567.5246247273448716    -4.51e-05  3.47e-04  1.11e-03  9.15e-04     2.6
   12    -1567.5246389102010198    -1.42e-05  4.44e-04  2.17e-03  5.69e-04     2.1
   13    -1567.5246476441991490    -8.73e-06  8.15e-04  4.21e-03  5.97e-04     3.3
   14    -1567.5246634556779100    -1.58e-05  3.23e-03  1.70e-02  6.17e-04     6.6
   15    -1567.5247066716299287    -4.32e-05  2.92e-03  1.62e-02  1.08e-03     2.6
   16    -1567.5247396213010234    -3.29e-05  4.51e-03  2.61e-02  1.09e-03     3.1
   17    -1567.5247837884721775    -4.42e-05  2.27e-03  1.36e-02  1.10e-03     3.4
   18    -1567.5248146324966001    -3.08e-05  9.56e-04  5.18e-03  8.76e-04     4.4
   19    -1567.5248330831659587    -1.85e-05  6.32e-04  3.79e-03  4.80e-04     3.5
   20    -1567.5248428802531180    -9.80e-06  1.45e-03  9.37e-03  4.01e-04     5.0
   21    -1567.5248567206215284    -1.38e-05  1.30e-03  8.47e-03  4.70e-04     3.2
   22    -1567.5248659994829268    -9.28e-06  1.70e-03  1.12e-02  5.32e-04     4.3
   23    -1567.5248775470467990    -1.15e-05  1.82e-03  1.16e-02  5.44e-04     3.9
   24    -1567.5248918058928211    -1.43e-05  2.31e-03  1.42e-02  6.61e-04     2.9
   25    -1567.5249091955911354    -1.74e-05  1.93e-03  1.13e-02  6.78e-04     2.5
   26    -1567.5249260113271248    -1.68e-05  2.21e-03  1.28e-02  6.63e-04     2.8
   27    -1567.5249470616251983    -2.11e-05  2.39e-03  1.34e-02  7.53e-04     2.2
   28    -1567.5249697308656778    -2.27e-05  1.80e-03  1.00e-02  8.17e-04     3.4
               *** Restarting incremental Fock matrix formation ***
   29    -1567.5249855080860470    -1.58e-05  9.30e-04  4.99e-03  4.98e-04     4.2
   30    -1567.5249929918261387    -7.48e-06  3.96e-04  2.09e-03  2.34e-04     2.1
   31    -1567.5249956415398174    -2.65e-06  2.90e-04  1.58e-03  2.34e-04     4.7
   32    -1567.5249978029048634    -2.16e-06  6.30e-04  3.62e-03  2.29e-04     2.9
   33    -1567.5250015231647467    -3.72e-06  1.15e-03  8.12e-03  2.60e-04     4.1
   34    -1567.5250079080922205    -6.38e-06  1.93e-03  1.29e-02  3.98e-04     2.6
   35    -1567.5250167475910530    -8.84e-06  1.71e-03  1.32e-02  4.01e-04     3.9
   36    -1567.5250244099402153    -7.66e-06  9.14e-04  4.58e-03  3.46e-04     2.9
   37    -1567.5250282695531041    -3.86e-06  5.33e-04  2.93e-03  2.42e-04     2.0
   38    -1567.5250293016749765    -1.03e-06  2.50e-04  1.28e-03  1.08e-04     2.6
   39    -1567.5250295907960663    -2.89e-07  8.74e-05  3.75e-04  6.28e-05     3.4
   40    -1567.5250297166808195    -1.26e-07  4.95e-05  3.41e-04  2.12e-05     2.8
   41    -1567.5250297332124774    -1.65e-08  2.04e-05  1.36e-04  8.89e-06     5.8
   42    -1567.5250297307677556     2.44e-09  4.63e-06  2.51e-05  4.23e-06     3.3
                 **** Energy Check signals convergence ****

               *****************************************************
               *                     SUCCESS                       *
               *           SCF CONVERGED AFTER  42 CYCLES          *
               *****************************************************

Recomputing exchange energy using gridx3       ... done (    0.355 sec)
Old exchange energy                            :    -48.245247985 Eh
New exchange energy                            :    -48.245236990 Eh
Exchange energy change after final integration :      0.000010995 Eh
Total energy after final integration           :  -1567.525018736 Eh
             **** ENERGY FILE WAS UPDATED (/users/s1155246974/li/fe3_quartet/fe3_quartet.en.tmp) ****

----------------
TOTAL SCF ENERGY
----------------

Total Energy       :      -1567.52501873567348 Eh          -42654.52427 eV

Components:
Nuclear Repulsion  :        430.83924757310189 Eh           11723.73195 eV
Electronic Energy  :      -1998.36427730399510 Eh          -54378.25652 eV
One Electron Energy:      -2976.91759064534335 Eh          -81006.04591 eV
Two Electron Energy:        978.55331334134837 Eh           26627.78939 eV

Virial components:
Potential Energy   :      -3131.19043205959588 Eh          -85204.02335 eV
Kinetic Energy     :       1563.66541332392262 Eh           42549.49907 eV
Virial Ratio       :          2.00246830644130

DFT components:
N(Alpha)           :       33.000000425480 electrons
N(Beta)            :       29.999999599430 electrons
N(Total)           :       63.000000024909 electrons
E(XC)              :      -43.799227456815 Eh       

---------------
SCF CONVERGENCE
---------------

  Last Energy change         ...   -2.4447e-09  Tolerance :   1.0000e-08
  Last MAX-Density change    ...    2.5142e-05  Tolerance :   1.0000e-07
  Last RMS-Density change    ...    4.6280e-06  Tolerance :   5.0000e-09
  Last DIIS Error            ...    2.3044e-03  Tolerance :   5.0000e-07
  Last Orbital Gradient      ...    4.2330e-06  Tolerance :   1.0000e-05
  Last Orbital Rotation      ...    2.3221e-05  Tolerance :   1.0000e-05


----------------------
UHF SPIN CONTAMINATION
----------------------

Warning: in a DFT calculation there is little theoretical justification to 
         calculate <S**2> as in Hartree-Fock theory. We will do it anyways
         but you should keep in mind that the values have only limited relevance

Expectation value of <S**2>     :     3.784713
Ideal value S*(S+1) for S=1.5   :     3.750000
Deviation                       :     0.034713

----------------
ORBITAL ENERGIES
----------------
                 SPIN UP ORBITALS
  NO   OCC          E(Eh)            E(eV) 
   0   1.0000    -258.743832     -7040.7776 
   1   1.0000     -31.498230      -857.1104 
   2   1.0000     -27.382985      -745.1289 
   3   1.0000     -27.351993      -744.2856 
   4   1.0000     -27.351520      -744.2727 
   5   1.0000     -20.323284      -553.0247 
   6   1.0000     -20.318204      -552.8864 
   7   1.0000     -20.316981      -552.8531 
   8   1.0000     -20.311672      -552.7087 
   9   1.0000      -4.559662      -124.0747 
  10   1.0000      -3.350742       -91.1783 
  11   1.0000      -3.291897       -89.5771 
  12   1.0000      -3.288783       -89.4923 
  13   1.0000      -1.816203       -49.4214 
  14   1.0000      -1.798311       -48.9345 
  15   1.0000      -1.790413       -48.7196 
  16   1.0000      -1.787823       -48.6491 
  17   1.0000      -1.344298       -36.5802 
  18   1.0000      -1.319332       -35.9008 
  19   1.0000      -1.311381       -35.6845 
  20   1.0000      -1.296568       -35.2814 
  21   1.0000      -1.282446       -34.8971 
  22   1.0000      -1.262387       -34.3513 
  23   1.0000      -1.254486       -34.1363 
  24   1.0000      -1.241359       -33.7791 
  25   1.0000      -1.214024       -33.0353 
  26   1.0000      -1.173900       -31.9434 
  27   1.0000      -1.171643       -31.8820 
  28   1.0000      -1.158167       -31.5153 
  29   1.0000      -1.102044       -29.9881 
  30   1.0000      -1.083062       -29.4716 
  31   1.0000      -1.069588       -29.1050 
  32   1.0000      -1.060766       -28.8649 
  33   0.0000      -0.740255       -20.1434 
  34   0.0000      -0.537545       -14.6273 
  35   0.0000      -0.507362       -13.8060 
  36   0.0000      -0.467501       -12.7214 
  37   0.0000      -0.442671       -12.0457 
  38   0.0000      -0.396782       -10.7970 
  39   0.0000      -0.389841       -10.6081 
  40   0.0000      -0.384240       -10.4557 
  41   0.0000      -0.374674       -10.1954 
  42   0.0000      -0.355713        -9.6794 
  43   0.0000      -0.335247        -9.1225 

                 SPIN DOWN ORBITALS
  NO   OCC          E(Eh)            E(eV) 
   0   1.0000    -258.743299     -7040.7631 
   1   1.0000     -31.424036      -855.0915 
   2   1.0000     -27.305993      -743.0339 
   3   1.0000     -27.305128      -743.0103 
   4   1.0000     -27.283341      -742.4174 
   5   1.0000     -20.323550      -553.0319 
   6   1.0000     -20.316885      -552.8506 
   7   1.0000     -20.316632      -552.8437 
   8   1.0000     -20.313054      -552.7463 
   9   1.0000      -4.407277      -119.9281 
  10   1.0000      -3.140142       -85.4476 
  11   1.0000      -3.126599       -85.0791 
  12   1.0000      -3.093950       -84.1907 
  13   1.0000      -1.816108       -49.4188 
  14   1.0000      -1.798639       -48.9435 
  15   1.0000      -1.790744       -48.7286 
  16   1.0000      -1.785604       -48.5888 
  17   1.0000      -1.316827       -35.8327 
  18   1.0000      -1.308849       -35.6156 
  19   1.0000      -1.291621       -35.1468 
  20   1.0000      -1.277274       -34.7564 
  21   1.0000      -1.240295       -33.7501 
  22   1.0000      -1.228076       -33.4177 
  23   1.0000      -1.179854       -32.1055 
  24   1.0000      -1.172209       -31.8974 
  25   1.0000      -1.145993       -31.1841 
  26   1.0000      -1.108306       -30.1585 
  27   1.0000      -1.082652       -29.4604 
  28   1.0000      -1.063506       -28.9395 
  29   1.0000      -1.056862       -28.7587 
  30   0.0000      -0.734005       -19.9733 
  31   0.0000      -0.715001       -19.4562 
  32   0.0000      -0.708840       -19.2885 
  33   0.0000      -0.639419       -17.3995 
  34   0.0000      -0.530774       -14.4431 
  35   0.0000      -0.518691       -14.1143 
  36   0.0000      -0.467588       -12.7237 
  37   0.0000      -0.442564       -12.0428 
  38   0.0000      -0.396979       -10.8024 
  39   0.0000      -0.387840       -10.5537 
  40   0.0000      -0.382363       -10.4046 
*Only the first 10 virtual orbitals were printed.

                    ********************************
                    * MULLIKEN POPULATION ANALYSIS *
                    ********************************

--------------------------------------------
MULLIKEN ATOMIC CHARGES AND SPIN POPULATIONS
--------------------------------------------
   0 Fe:    1.314964    3.028798
   1 O :   -0.214178   -0.019083
   2 H :    0.329507    0.003178
   3 O :   -0.186695   -0.057153
   4 H :    0.304490    0.003785
   5 O :   -0.269305    0.034180
   6 H :    0.345433    0.000194
   7 O :   -0.303146    0.005646
   8 H :    0.345405   -0.003004
   9 H :    0.334621   -0.000027
  10 H :    0.327826    0.001540
  11 H :    0.347930   -0.002177
  12 H :    0.323147    0.004125
Sum of atomic charges         :    3.0000000
Sum of atomic spin populations:    3.0000000

-----------------------------------------------------
MULLIKEN REDUCED ORBITAL CHARGES AND SPIN POPULATIONS
-----------------------------------------------------
CHARGE
  0 Fes       :     6.311314  s :     6.311314
      pz      :     4.100732  p :    12.412807
      px      :     4.156835
      py      :     4.155239
      dz2     :     1.040270  d :     5.957607
      dxz     :     1.854664
      dyz     :     1.069411
      dx2y2   :     0.765010
      dxy     :     1.228252
      f0      :     0.000159  f :     0.003308
      f+1     :     0.000380
      f-1     :     0.000404
      f+2     :     0.000277
      f-2     :     0.000012
      f+3     :     0.001033
      f-3     :     0.001043

  1 O s       :     3.632857  s :     3.632857
      pz      :     1.291578  p :     4.572732
      px      :     1.720091
      py      :     1.561064
      dz2     :     0.000672  d :     0.008588
      dxz     :     0.004507
      dyz     :     0.000214
      dx2y2   :     0.001650
      dxy     :     0.001544

  2 H s       :     0.603220  s :     0.603220
      pz      :     0.033891  p :     0.067273
      px      :     0.018577
      py      :     0.014804

  3 O s       :     3.635302  s :     3.635302
      pz      :     1.718799  p :     4.542145
      px      :     1.536694
      py      :     1.286652
      dz2     :     0.000918  d :     0.009248
      dxz     :     0.001727
      dyz     :     0.004706
      dx2y2   :     0.001447
      dxy     :     0.000450

  4 H s       :     0.627054  s :     0.627054
      pz      :     0.021424  p :     0.068456
      px      :     0.015702
      py      :     0.031329

  5 O s       :     3.605091  s :     3.605091
      pz      :     1.877850  p :     4.659777
      px      :     1.280291
      py      :     1.501636
      dz2     :     0.001025  d :     0.004437
      dxz     :     0.000029
      dyz     :     0.000235
      dx2y2   :     0.000790
      dxy     :     0.002357

  6 H s       :     0.590651  s :     0.590651
      pz      :     0.012947  p :     0.063917
      px      :     0.034901
      py      :     0.016068

  7 O s       :     3.607682  s :     3.607682
      pz      :     1.293180  p :     4.690871
      px      :     1.498420
      py      :     1.899271
      dz2     :     0.001083  d :     0.004593
      dxz     :     0.002516
      dyz     :     0.000066
      dx2y2   :     0.000544
      dxy     :     0.000383

  8 H s       :     0.590585  s :     0.590585
      pz      :     0.034093  p :     0.064010
      px      :     0.016342
      py      :     0.013575

  9 H s       :     0.601196  s :     0.601196
      pz      :     0.013514  p :     0.064183
      px      :     0.033805
      py      :     0.016864

 10 H s       :     0.605020  s :     0.605020
      pz      :     0.017492  p :     0.067154
      px      :     0.014019
      py      :     0.035643

 11 H s       :     0.588151  s :     0.588151
      pz      :     0.034300  p :     0.063919
      px      :     0.016170
      py      :     0.013449

 12 H s       :     0.609492  s :     0.609492
      pz      :     0.033661  p :     0.067361
      px      :     0.018633
      py      :     0.015067


SPIN
  0 Fes       :     0.072254  s :     0.072254
      pz      :    -0.003856  p :     0.011778
      px      :     0.007349
      py      :     0.008286
      dz2     :     0.910269  d :     2.944758
      dxz     :     0.152479
      dyz     :     0.936399
      dx2y2   :     0.155871
      dxy     :     0.789740
      f0      :    -0.000031  f :     0.000008
      f+1     :    -0.000000
      f-1     :    -0.000024
      f+2     :     0.000001
      f-2     :     0.000007
      f+3     :     0.000062
      f-3     :    -0.000006

  1 O s       :     0.000064  s :     0.000064
      pz      :     0.003552  p :    -0.019540
      px      :     0.014337
      py      :    -0.037429
      dz2     :     0.000034  d :     0.000392
      dxz     :     0.000054
      dyz     :     0.000289
      dx2y2   :     0.000014
      dxy     :     0.000002

  2 H s       :     0.003192  s :     0.003192
      pz      :     0.000145  p :    -0.000014
      px      :     0.000093
      py      :    -0.000252

  3 O s       :    -0.001933  s :    -0.001933
      pz      :     0.002684  p :    -0.055424
      px      :    -0.057595
      py      :    -0.000512
      dz2     :    -0.000001  d :     0.000203
      dxz     :    -0.000083
      dyz     :     0.000033
      dx2y2   :     0.000080
      dxy     :     0.000173

  4 H s       :     0.004295  s :     0.004295
      pz      :    -0.000076  p :    -0.000510
      px      :    -0.000429
      py      :    -0.000005

  5 O s       :     0.000371  s :     0.000371
      pz      :     0.051042  p :     0.033444
      px      :     0.001189
      py      :    -0.018787
      dz2     :    -0.000016  d :     0.000364
      dxz     :    -0.000003
      dyz     :     0.000132
      dx2y2   :     0.000043
      dxy     :     0.000208

  6 H s       :    -0.000466  s :    -0.000466
      pz      :     0.000743  p :     0.000661
      px      :    -0.000092
      py      :     0.000010

  7 O s       :    -0.002142  s :    -0.002142
      pz      :     0.002423  p :     0.007718
      px      :    -0.026876
      py      :     0.032171
      dz2     :     0.000015  d :     0.000070
      dxz     :    -0.000042
      dyz     :    -0.000001
      dx2y2   :     0.000014
      dxy     :     0.000085

  8 H s       :    -0.003336  s :    -0.003336
      pz      :    -0.000137  p :     0.000331
      px      :    -0.000005
      py      :     0.000473

  9 H s       :    -0.000720  s :    -0.000720
      pz      :     0.000753  p :     0.000692
      px      :    -0.000046
      py      :    -0.000015

 10 H s       :     0.001874  s :     0.001874
      pz      :     0.000127  p :    -0.000334
      px      :    -0.000356
      py      :    -0.000106

 11 H s       :    -0.002497  s :    -0.002497
      pz      :    -0.000148  p :     0.000321
      px      :     0.000000
      py      :     0.000468

 12 H s       :     0.003959  s :     0.003959
      pz      :     0.000170  p :     0.000166
      px      :     0.000181
      py      :    -0.000185



                     *******************************
                     * LOEWDIN POPULATION ANALYSIS *
                     *******************************

-------------------------------------------
LOEWDIN ATOMIC CHARGES AND SPIN POPULATIONS
-------------------------------------------
   0 Fe:    0.979714    2.986189
   1 O :    0.138662   -0.006592
   2 H :    0.186193    0.003183
   3 O :    0.155641   -0.044421
   4 H :    0.171802    0.002475
   5 O :    0.134328    0.039851
   6 H :    0.190306    0.002080
   7 O :    0.115334    0.010863
   8 H :    0.188187   -0.000662
   9 H :    0.185002    0.002033
  10 H :    0.182524    0.001011
  11 H :    0.190178   -0.000215
  12 H :    0.182130    0.004205

----------------------------------------------------
LOEWDIN REDUCED ORBITAL CHARGES AND SPIN POPULATIONS
----------------------------------------------------
CHARGE
  0 Fes       :     6.289649  s :     6.289649
      pz      :     4.104383  p :    12.619691
      px      :     4.256268
      py      :     4.259039
      dz2     :     1.068247  d :     6.105888
      dxz     :     1.857224
      dyz     :     1.077683
      dx2y2   :     0.863993
      dxy     :     1.238741
      f0      :     0.000186  f :     0.005059
      f+1     :     0.000617
      f-1     :     0.000634
      f+2     :     0.000353
      f-2     :     0.000012
      f+3     :     0.001614
      f-3     :     0.001643

  1 O s       :     3.311961  s :     3.311961
      pz      :     1.304972  p :     4.533023
      px      :     1.695095
      py      :     1.532956
      dz2     :     0.002603  d :     0.016354
      dxz     :     0.007983
      dyz     :     0.001971
      dx2y2   :     0.002092
      dxy     :     0.001705

  2 H s       :     0.634400  s :     0.634400
      pz      :     0.075708  p :     0.179407
      px      :     0.056265
      py      :     0.047434

  3 O s       :     3.315012  s :     3.315012
      pz      :     1.694628  p :     4.511782
      px      :     1.509153
      py      :     1.308000
      dz2     :     0.000505  d :     0.017564
      dxz     :     0.002097
      dyz     :     0.008301
      dx2y2   :     0.004301
      dxy     :     0.002360

  4 H s       :     0.649405  s :     0.649405
      pz      :     0.061564  p :     0.178793
      px      :     0.047337
      py      :     0.069891

  5 O s       :     3.271457  s :     3.271457
      pz      :     1.799782  p :     4.581875
      px      :     1.303461
      py      :     1.478632
      dz2     :     0.001630  d :     0.012339
      dxz     :     0.000045
      dyz     :     0.000567
      dx2y2   :     0.003157
      dxy     :     0.006941

  6 H s       :     0.630270  s :     0.630270
      pz      :     0.044845  p :     0.179424
      px      :     0.084052
      py      :     0.050527

  7 O s       :     3.269958  s :     3.269958
      pz      :     1.306860  p :     4.602153
      px      :     1.475219
      py      :     1.820075
      dz2     :     0.003443  d :     0.012555
      dxz     :     0.007423
      dyz     :     0.000141
      dx2y2   :     0.000786
      dxy     :     0.000761

  8 H s       :     0.630628  s :     0.630628
      pz      :     0.082604  p :     0.181186
      px      :     0.051271
      py      :     0.047311

  9 H s       :     0.636038  s :     0.636038
      pz      :     0.045457  p :     0.178959
      px      :     0.082035
      py      :     0.051467

 10 H s       :     0.638935  s :     0.638935
      pz      :     0.052766  p :     0.178541
      px      :     0.045698
      py      :     0.080078

 11 H s       :     0.628565  s :     0.628565
      pz      :     0.083019  p :     0.181257
      px      :     0.051033
      py      :     0.047205

 12 H s       :     0.638508  s :     0.638508
      pz      :     0.075206  p :     0.179362
      px      :     0.056489
      py      :     0.047667


SPIN
  0 Fes       :     0.051852  s :     0.051852
      pz      :    -0.002655  p :     0.005779
      px      :     0.004209
      py      :     0.004225
      dz2     :     0.912906  d :     2.928565
      dxz     :     0.152291
      dyz     :     0.933255
      dx2y2   :     0.143275
      dxy     :     0.786839
      f0      :    -0.000028  f :    -0.000007
      f+1     :    -0.000010
      f-1     :    -0.000029
      f+2     :     0.000002
      f-2     :     0.000007
      f+3     :     0.000065
      f-3     :    -0.000014

  1 O s       :     0.000998  s :     0.000998
      pz      :     0.004068  p :    -0.008724
      px      :     0.015408
      py      :    -0.028200
      dz2     :     0.000048  d :     0.001134
      dxz     :     0.000134
      dyz     :     0.000658
      dx2y2   :     0.000124
      dxy     :     0.000171

  2 H s       :     0.003329  s :     0.003329
      pz      :     0.000107  p :    -0.000146
      px      :     0.000384
      py      :    -0.000637

  3 O s       :    -0.000917  s :    -0.000917
      pz      :     0.002723  p :    -0.044160
      px      :    -0.047636
      py      :     0.000753
      dz2     :     0.000050  d :     0.000656
      dxz     :    -0.000093
      dyz     :     0.000112
      dx2y2   :     0.000167
      dxy     :     0.000421

  4 H s       :     0.004000  s :     0.004000
      pz      :    -0.000114  p :    -0.001525
      px      :    -0.001264
      py      :    -0.000146

  5 O s       :     0.000133  s :     0.000133
      pz      :     0.050330  p :     0.038952
      px      :     0.001511
      py      :    -0.012889
      dz2     :     0.000077  d :     0.000765
      dxz     :    -0.000005
      dyz     :     0.000177
      dx2y2   :     0.000064
      dxy     :     0.000453

  6 H s       :     0.000125  s :     0.000125
      pz      :     0.001923  p :     0.001956
      px      :     0.000068
      py      :    -0.000036

  7 O s       :    -0.001653  s :    -0.001653
      pz      :     0.001628  p :     0.012475
      px      :    -0.020685
      py      :     0.031532
      dz2     :    -0.000001  d :     0.000041
      dxz     :    -0.000157
      dyz     :     0.000001
      dx2y2   :     0.000087
      dxy     :     0.000110

  8 H s       :    -0.001858  s :    -0.001858
      pz      :     0.000040  p :     0.001196
      px      :    -0.000141
      py      :     0.001297

  9 H s       :     0.000046  s :     0.000046
      pz      :     0.001927  p :     0.001987
      px      :     0.000115
      py      :    -0.000055

 10 H s       :     0.002105  s :     0.002105
      pz      :     0.000199  p :    -0.001094
      px      :    -0.001075
      py      :    -0.000218

 11 H s       :    -0.001344  s :    -0.001344
      pz      :     0.000000  p :     0.001128
      px      :    -0.000156
      py      :     0.001284

 12 H s       :     0.004018  s :     0.004018
      pz      :     0.000119  p :     0.000187
      px      :     0.000592
      py      :    -0.000523



                      *****************************
                      * MAYER POPULATION ANALYSIS *
                      *****************************

  NA   - Mulliken gross atomic population
  ZA   - Total nuclear charge
  QA   - Mulliken gross atomic charge
  VA   - Mayer's total valence
  BVA  - Mayer's bonded valence
  FA   - Mayer's free valence

  ATOM       NA         ZA         QA         VA         BVA        FA
  0 Fe    24.6850    26.0000     1.3150     5.3821     2.6207     2.7614
  1 O      8.2142     8.0000    -0.2142     2.4794     2.4775     0.0020
  2 H      0.6705     1.0000     0.3295     0.9170     0.9170     0.0000
  3 O      8.1867     8.0000    -0.1867     2.4992     2.4954     0.0038
  4 H      0.6955     1.0000     0.3045     0.9391     0.9390     0.0000
  5 O      8.2693     8.0000    -0.2693     2.4501     2.4464     0.0036
  6 H      0.6546     1.0000     0.3454     0.9090     0.9090     0.0000
  7 O      8.3031     8.0000    -0.3031     2.4022     2.3999     0.0023
  8 H      0.6546     1.0000     0.3454     0.9032     0.9032     0.0000
  9 H      0.6654     1.0000     0.3346     0.9160     0.9160     0.0000
 10 H      0.6722     1.0000     0.3278     0.9200     0.9200     0.0000
 11 H      0.6521     1.0000     0.3479     0.9007     0.9007     0.0000
 12 H      0.6769     1.0000     0.3231     0.9213     0.9213     0.0000

  Mayer bond orders larger than 0.100000
B(  0-Fe,  1-O ) :   0.6413 B(  0-Fe,  3-O ) :   0.6376 B(  0-Fe,  5-O ) :   0.6380 
B(  0-Fe,  7-O ) :   0.5821 B(  1-O ,  2-H ) :   0.8837 B(  1-O , 12-H ) :   0.8891 
B(  3-O ,  4-H ) :   0.8997 B(  3-O , 10-H ) :   0.8840 B(  5-O ,  6-H ) :   0.8696 
B(  5-O ,  9-H ) :   0.8810 B(  7-O ,  8-H ) :   0.8760 B(  7-O , 11-H ) :   0.8747 


-------
TIMINGS
-------

Total SCF time: 0 days 0 hours 2 min 42 sec 

Total time                  ....     162.039 sec
Sum of individual times     ....     153.985 sec  ( 95.0%)

SCF preparation             ....       3.870 sec  (  2.4%)
Fock matrix formation       ....     118.995 sec  ( 73.4%)
  Startup                   ....       2.082 sec  (  1.7% of F)
  Split-RI-J                ....      16.196 sec  ( 13.6% of F)
  Chain of spheres X        ....      16.492 sec  ( 13.9% of F)
  XC integration            ....      21.080 sec  ( 17.7% of F)
    XC Preparation          ....       0.000 sec  (  0.0% of XC)
    Basis function eval.    ....       0.097 sec  (  0.5% of XC)
    Density eval.           ....       0.219 sec  (  1.0% of XC)
    XC-Functional eval.     ....       0.059 sec  (  0.3% of XC)
    XC-Potential eval.      ....       0.236 sec  (  1.1% of XC)
Diagonalization             ....       0.000 sec  (  0.0%)
Density matrix formation    ....       4.616 sec  (  2.8%)
Total Energy calculation    ....       3.741 sec  (  2.3%)
Population analysis         ....       1.367 sec  (  0.8%)
Orbital Transformation      ....       2.230 sec  (  1.4%)
Orbital Orthonormalization  ....       0.000 sec  (  0.0%)
DIIS solution               ....       4.154 sec  (  2.6%)
SOSCF solution              ....      15.012 sec  (  9.3%)
Finished LeanSCF after 163.0 sec

Maximum memory used throughout the entire LEANSCF-calculation: 11.6 MB


           ************************************************************
           *        Program running with 64 parallel MPI-processes    *
           *              working on a common directory               *
           ************************************************************

------------------------------------------------------------------------------
                         ORCA PROPERTY INTEGRAL CALCULATIONS
------------------------------------------------------------------------------

GBWName                                   ... /users/s1155246974/li/fe3_quartet/fe3_quartet.gbw
Number of atoms                           ...     13
Number of basis functions                 ...    127
Max core memory                           ...   2109 MB

Dipole integrals                          ... YES
Quadrupole integrals                      ...  NO
Linear momentum integrals                 ...  NO
Angular momentum integrals                ...  NO
Higher moments length integrals           ...  NO
Higher moments velocity integrals         ...  NO
Kinetic energy integrals                  ...  NO
GIAO right hand sides                     ...  NO
GIAO dipole derivative integrals          ...  NO
SOC integrals                             ...  NO
EPR diamagnetic integrals (GIAO)          ...  NO
EPR gauge integrals                       ...  NO
Field gradient integrals                  ...  NO (   0 nuclei)
Spin-dipole/Fermi contact integrals       ...  NO (   0 nuclei)
Contact density integrals                 ...  NO (   0 nuclei)
Nucleus-orbit integrals                   ...  NO (   0 nuclei)
Geometric perturbations                   ...  NO (  13 nuclei)

Choice of electric origin   ... Center of mass
Position of electric origin ... ( -4.0090, -1.7793, -0.0135) 
Choice of magnetic origin   ... GIAO
Position of magnetic origin ... (  0.0000,  0.0000,  0.0000) 

Calculating integrals                     ... Electric Dipole (Length)     done (  0.3 sec)

Property integrals calculated in   0.4 sec

Maximum memory used throughout the entire PROPINT-calculation: 9.6 MB

-------------------------   --------------------
FINAL SINGLE POINT ENERGY     -1567.525018735673
-------------------------   --------------------



           ************************************************************
           *        Program running with 64 parallel MPI-processes    *
           *              working on a common directory               *
           ************************************************************
------------------------------------------------------------------------------
                         ORCA SCF GRADIENT CALCULATION
------------------------------------------------------------------------------

Nuc. rep. gradient        (SHARK) ... done (  0.0 sec)
HCore & Overlap gradient  (SHARK) ... done (  0.2 sec)
Split-RIJ-J gradient      (SHARK) ... done (  1.0 sec)
done (  1.7 sec)
XC gradient                       ... done (  1.2 sec)

------------------
CARTESIAN GRADIENT
------------------

   1   Fe  :   -0.008091108    0.015445409   -0.006641693
   2   O   :    0.019596182    0.007046085    0.003354247
   3   H   :   -0.009772761   -0.029975654   -0.023524570
   4   O   :   -0.007097973    0.005327608   -0.008484304
   5   H   :    0.031676458    0.013367466    0.010846846
   6   O   :    0.006883853   -0.029900949    0.001762610
   7   H   :   -0.015480768    0.031485286    0.000525729
   8   O   :    0.019999109    0.003828311   -0.000946235
   9   H   :   -0.032923684   -0.002142033    0.014903829
  10   H   :    0.010001234    0.035230211   -0.004778225
  11   H   :    0.028318718   -0.023137146    0.007842120
  12   H   :   -0.032866406    0.003825059   -0.015749386
  13   H   :   -0.010242855   -0.030399654    0.020889033

Difference to translation invariance:
           :   -0.0000000004    0.0000000001    0.0000000002

Difference to rotation invariance:
           :   -0.0002513804   -0.0022146595   -0.0007276980

Norm of the Cartesian gradient     ...    0.1151697978
RMS gradient                       ...    0.0184419271
MAX gradient                       ...    0.0352302108

-------
TIMINGS
-------

Total SCF gradient time     ....        4.120 sec

Densities                   ....       0.017 sec  (  0.4%)
One electron gradient       ....       0.247 sec  (  6.0%)
RI-J Coulomb gradient       ....       0.979 sec  ( 23.8%)
COSX gradient               ....       1.663 sec  ( 40.4%)
XC gradient                 ....       1.196 sec  ( 29.0%)

Maximum memory used throughout the entire SCFGRAD-calculation: 16.2 MB
------------------------------------------------------------------------------
                         ORCA GEOMETRY RELAXATION STEP
------------------------------------------------------------------------------

Reading the OPT-File                    .... done
Getting information on internals        .... done
Copying old internal coords+grads       .... done
Making the new internal coordinates     .... (2022 redundants) done
Validating the new internal coordinates .... (2022 redundants) done
Calculating the B-matrix                .... done
Calculating the G,G- and P matrices     .... done
Transforming gradient to internals      .... done
Projecting the internal gradient        .... done
Number of atoms                         ....  13
Number of internal coordinates          ....  52
Current Energy                          .... -1567.525018736 Eh
Current gradient norm                   ....     0.115169798 Eh/bohr
Maximum allowed component of the step   ....  0.300
Current trust radius                    ....  0.300
Evaluating the initial hessian          ....  (Almloef) done
Projecting the Hessian                  .... done
Forming the augmented Hessian           .... done
Diagonalizing the augmented Hessian     .... done
Last element of RFO vector              ....  0.949838106
Lowest eigenvalues of augmented Hessian:
 -0.038929689  0.010000000  0.010000000  0.010000000  0.010000000
Length of the computed step             ....  0.329258239
Warning: the length of the step is outside the trust region - taking restricted step instead
The input lambda is                     ....     0.009000
   iter:   5  x=    0.002339  g=  947.360681 f(x)=     2.441738
   iter:  10  x=   -0.043697  g=    2.707378 f(x)=     0.038021
   iter:  15  x=   -0.053701  g=    0.946484 f(x)=     0.000000
The output lambda is                    ....    -0.053701 (16 iterations)
The final length of the internal step   ....  0.300000000
Converting the step to Cartesian space:
 Initial RMS(Int)=    0.0416025147
Transforming coordinates:
 Iter   0:  RMS(Cart)=    0.0786370484 RMS(Int)=    0.0419662399
 Iter   5:  RMS(Cart)=    0.0000001320 RMS(Int)=    0.0000001233
done
Storing new coordinates                 .... done

                                .--------------------.
          ----------------------|Geometry convergence|-------------------------
          Item                value                   Tolerance       Converged
          ---------------------------------------------------------------------
          RMS gradient        0.0212481159            0.0001000000      NO
          MAX gradient        0.0533262856            0.0003000000      NO
          RMS step            0.0416025147            0.0020000000      NO
          MAX step            0.0766948770            0.0040000000      NO
          -------------------------------------------------------------------------
          ........................................................
          Max(Bonds)      0.0312      Max(Angles)    4.39
          Max(Dihed)        4.14      Max(Improp)    0.00
          ---------------------------------------------------------------------

The optimization has not yet converged - more geometry cycles are needed


    ---------------------------------------------------------------------------
                         Redundant Internal Coordinates
                            (Angstroem and degrees)

        Definition                    Value    dE/dq     Step     New-Value
    ----------------------------------------------------------------------------
     1. B(O   1,Fe  0)                1.8200 -0.053326  0.0231    1.8431   
     2. B(H   2,O   1)                0.9600 -0.033797  0.0312    0.9912   
     3. B(O   3,Fe  0)                1.8200 -0.052870  0.0229    1.8429   
     4. B(H   4,O   3)                0.9600 -0.026745  0.0247    0.9847   
     5. B(O   5,Fe  0)                1.8200 -0.036811  0.0160    1.8360   
[...]
      7      -0.234492   0.324861  -0.263064  -0.020983   0.308804  -0.151337
      8       0.164163   0.353542  -0.289044  -0.024048   0.333295  -0.158617
      9      -0.038288  -0.000032   0.019189   0.034044   0.025037   0.015263
     10       0.001507   0.002860  -0.000609  -0.001131   0.003294  -0.008051
     11      -0.005718  -0.000228   0.003119   0.005440   0.003544   0.002930
     12       0.289888  -0.012601  -0.168690  -0.300904  -0.237532  -0.088769
     13      -0.247544  -0.017986  -0.226984  -0.398381  -0.314147  -0.119917
     14       0.067946  -0.001568  -0.009538  -0.015945  -0.012814  -0.002768
     15      -0.001457  -0.000659  -0.000437  -0.002063  -0.013548   0.022635
     16      -0.029683  -0.034248  -0.029377   0.000414   0.017974   0.009685
     17       0.001285  -0.000334  -0.000483   0.003407   0.022664  -0.036296
     18       0.126542  -0.204800  -0.175794   0.013573   0.196432  -0.092343
     19       0.234367   0.317434   0.270568  -0.024702  -0.305043   0.149889
     20      -0.164535   0.345784   0.297540  -0.028158  -0.329610   0.157223
     21       0.038602   0.000421  -0.018823   0.034068  -0.025159  -0.015431
     22      -0.001574   0.002841   0.000594  -0.000945  -0.003593   0.007754
     23       0.005824  -0.000149  -0.003104   0.005509  -0.003607  -0.002956
     24      -0.291868  -0.016559   0.165964  -0.302921   0.240788   0.092250
     25       0.250018  -0.023245   0.222837  -0.400193   0.317719   0.124242
     26      -0.068640  -0.001882   0.010139  -0.017453   0.014133   0.003359
     27      -0.102596   0.216606   0.183455   0.013656   0.016166  -0.262498
     28       0.257083   0.246211   0.206606   0.018452   0.023380  -0.301722
     29       0.143523  -0.342137  -0.290587  -0.026500  -0.026601   0.412468
     30       0.313185   0.013325  -0.144100  -0.258213  -0.160877  -0.153891
     31       0.224569  -0.023121   0.237108   0.417410   0.262266   0.246638
     32       0.035443   0.005074  -0.041064  -0.071262  -0.043059  -0.043161
     33      -0.315860   0.009885   0.140807  -0.256617   0.159650   0.153130
     34      -0.225942  -0.017545  -0.232644   0.416351  -0.261193  -0.246321
     35      -0.036590   0.004095   0.040216  -0.070885   0.042772   0.042976
     36       0.102944   0.222565  -0.178827   0.016595  -0.019958   0.266221
     37      -0.257574   0.250932  -0.199713   0.021581  -0.027554   0.303549
     38      -0.143478  -0.347951   0.280318  -0.030836   0.032223  -0.413936
                 36         37         38    
      0      -0.000284   0.000000  -0.000026
      1       0.000054  -0.000040  -0.000531
      2       0.000338   0.000003   0.000035
      3       0.027291  -0.004933   0.000824
      4      -0.001601   0.000277   0.001944
      5      -0.043776   0.007115  -0.001204
      6      -0.188764   0.035031   0.006698
      7       0.295237  -0.048955  -0.007077
      8       0.316042  -0.050944  -0.008489
      9       0.002576   0.002757   0.002344
     10      -0.001038   0.054483   0.047806
     11       0.000250  -0.003711  -0.003258
     12      -0.016690  -0.322218  -0.280235
     13      -0.023516  -0.417542  -0.364244
     14       0.001699  -0.018044  -0.015706
     15       0.027485   0.005002   0.000144
     16      -0.001821   0.000016   0.002081
     17      -0.044416  -0.007269  -0.000236
     18      -0.191899  -0.033772   0.012053
     19       0.300808   0.047628  -0.014626
     20       0.322351   0.049448  -0.016385
     21       0.002813  -0.002306   0.002484
     22      -0.000884  -0.046869   0.055334
     23       0.000277   0.003125  -0.003715
     24      -0.019674   0.276677  -0.322444
     25      -0.027388   0.357565  -0.417942
     26       0.001433   0.016782  -0.019590
     27      -0.237117  -0.045274  -0.014164
     28      -0.273150  -0.047533  -0.013533
     29       0.371794   0.063757   0.019892
     30      -0.023533   0.278836   0.243517
     31       0.039699  -0.439635  -0.385170
     32      -0.004230   0.076265   0.066875
     33      -0.024323  -0.240467   0.283607
     34       0.041162   0.380231  -0.449932
     35      -0.004427  -0.065805   0.077934
     36      -0.237217   0.042915  -0.019578
     37      -0.271020   0.044942  -0.018978
     38       0.368063  -0.059878   0.027049


-----------
IR SPECTRUM
-----------

 Mode   freq       eps      Int      T**2         TX        TY        TZ
       cm**-1   L/(mol*cm) km/mol    a.u.
----------------------------------------------------------------------------
  6:     74.50   0.000049    0.25  0.000207  (-0.009691  0.000898  0.010597)
  7:    193.44   0.001865    9.42  0.003008  ( 0.020149 -0.000971 -0.051002)
  8:    209.03   0.000000    0.00  0.000000  ( 0.000188 -0.000277 -0.000308)
  9:    223.78   0.000495    2.50  0.000691  ( 0.010224  0.022116  0.009846)
 10:    235.57   0.001182    5.98  0.001566  (-0.015022  0.010857 -0.034970)
 11:    252.83   0.000874    4.42  0.001079  ( 0.001231 -0.031701 -0.008508)
 12:    267.97   0.000000    0.00  0.000000  (-0.000156 -0.000015  0.000137)
 13:    311.61   0.000000    0.00  0.000000  ( 0.000059  0.000378  0.000196)
 14:    404.32   0.000446    2.26  0.000345  ( 0.008952  0.011320 -0.011675)
 15:    449.94   0.000000    0.00  0.000000  ( 0.000088 -0.000031 -0.000040)
 16:    513.99   0.000001    0.01  0.000001  ( 0.000394  0.000058  0.000846)
 17:    531.98   0.000002    0.01  0.000001  (-0.000768  0.000384 -0.000612)
 18:    556.75   0.061879  312.71  0.034683  (-0.182568  0.009819 -0.035441)
 19:    570.46   0.004195   21.20  0.002295  ( 0.001154  0.039128 -0.027616)
 20:    575.54   0.000066    0.34  0.000036  ( 0.001492 -0.000232 -0.005803)
 21:    579.40   0.093921  474.64  0.050586  ( 0.040333 -0.021676 -0.220202)
 22:    627.59   0.141000  712.55  0.070111  ( 0.168969  0.004559  0.203812)
 23:    708.14   0.000001    0.00  0.000000  ( 0.000399  0.000097  0.000481)
 24:    769.92   0.000004    0.02  0.000001  (-0.000561 -0.000111  0.001068)
 25:    781.97   0.049560  250.46  0.019778  ( 0.072620 -0.019662 -0.118818)
 26:    793.17   0.027400  138.47  0.010780  ( 0.011741  0.101388 -0.019047)
 27:   1611.45   0.000002    0.01  0.000000  ( 0.000537  0.000066  0.000028)
 28:   1615.51   0.042718  215.88  0.008252  (-0.004633 -0.090657  0.003387)
 29:   1621.99   0.048169  243.43  0.009267  (-0.095301  0.003757 -0.013081)
 30:   1643.48   0.000001    0.00  0.000000  (-0.000328  0.000020 -0.000149)
 31:   3499.26   0.274332  1386.36  0.024465  ( 0.004459  0.156336 -0.001975)
 32:   3504.97   0.000057    0.29  0.000005  (-0.000824  0.002069 -0.000268)
 33:   3522.57   0.283766  1434.04  0.025139  (-0.155556  0.005132 -0.030242)
 34:   3562.91   0.000011    0.06  0.000001  (-0.000286  0.000266  0.000910)
 35:   3566.63   0.000009    0.05  0.000001  ( 0.000762  0.000423 -0.000212)
 36:   3570.15   0.231489  1169.85  0.020234  (-0.079500  0.004305  0.117879)
 37:   3590.80   0.001143    5.78  0.000099  (-0.000784 -0.009892  0.000947)
 38:   3592.90   0.208083  1051.57  0.018073  (-0.007041 -0.133819  0.010774)

* The epsilon (eps) is given for a Dirac delta lineshape.
** The dipole moment derivative (T) already includes vibrational overlap.

The first frequency considered to be a vibration is 6
The total number of vibrations considered is 33


--------------------------
THERMOCHEMISTRY AT 298.15K
--------------------------

Temperature         ...   298.15 K
Pressure            ...     1.00 atm
Total Mass          ...   127.91 AMU
Quasi RRHO          ...     True
Cut-Off Frequency   ...     1.00 cm^-1

Throughout the following assumptions are being made:
  (1) The electronic state is orbitally nondegenerate
      but the spin degeneracy is treated
  (2) There are no thermally accessible electronically excited states
  (3) Hindered rotations indicated by low frequency modes are not
      treated as such but are treated as vibrations and this may
      cause some error
  (4) All equations used are the standard statistical mechanics
      equations for an ideal gas
  (5) All vibrations are strictly harmonic

freq.      74.50  E(vib)   ...       0.49 
freq.     193.44  E(vib)   ...       0.36 
freq.     209.03  E(vib)   ...       0.34 
freq.     223.78  E(vib)   ...       0.33 
freq.     235.57  E(vib)   ...       0.32 
freq.     252.83  E(vib)   ...       0.30 
freq.     267.97  E(vib)   ...       0.29 
freq.     311.61  E(vib)   ...       0.25 
freq.     404.32  E(vib)   ...       0.19 
freq.     449.94  E(vib)   ...       0.17 
freq.     513.99  E(vib)   ...       0.13 
freq.     531.98  E(vib)   ...       0.13 
freq.     556.75  E(vib)   ...       0.12 
freq.     570.46  E(vib)   ...       0.11 
freq.     575.54  E(vib)   ...       0.11 
freq.     579.40  E(vib)   ...       0.11 
freq.     627.59  E(vib)   ...       0.09 
freq.     708.14  E(vib)   ...       0.07 
freq.     769.92  E(vib)   ...       0.05 
freq.     781.97  E(vib)   ...       0.05 
freq.     793.17  E(vib)   ...       0.05 
freq.    1611.45  E(vib)   ...       0.00 
freq.    1615.51  E(vib)   ...       0.00 
freq.    1621.99  E(vib)   ...       0.00 
freq.    1643.48  E(vib)   ...       0.00 
freq.    3499.26  E(vib)   ...       0.00 
freq.    3504.97  E(vib)   ...       0.00 
freq.    3522.57  E(vib)   ...       0.00 
freq.    3562.91  E(vib)   ...       0.00 
freq.    3566.63  E(vib)   ...       0.00 
freq.    3570.15  E(vib)   ...       0.00 
freq.    3590.80  E(vib)   ...       0.00 
freq.    3592.90  E(vib)   ...       0.00 

------------
INNER ENERGY
------------

The inner energy is: U= E(el) + E(ZPE) + E(vib) + E(rot) + E(trans)
    E(el)   - is the total energy from the electronic structure calculation
              = E(kin-el) + E(nuc-el) + E(el-el) + E(nuc-nuc)
    E(ZPE)  - the the zero temperature vibrational energy from the frequency calculation
    E(vib)  - the the finite temperature correction to E(ZPE) due to population
              of excited vibrational states
    E(rot)  - is the rotational thermal energy
    E(trans)- is the translational thermal energy

Summary of contributions to the inner energy U:
Electronic energy                ...  -1567.59612457 Eh
Zero point energy                ...      0.10145708 Eh      63.67 kcal/mol
Thermal vibrational correction   ...      0.00649507 Eh       4.08 kcal/mol
Thermal rotational correction    ...      0.00141627 Eh       0.89 kcal/mol
Thermal translational correction ...      0.00141627 Eh       0.89 kcal/mol
-----------------------------------------------------------------------
Total thermal energy                  -1567.48533988 Eh


Summary of corrections to the electronic energy:
(perhaps to be used in another calculation)
Total thermal correction                  0.00932761 Eh       5.85 kcal/mol
Non-thermal (ZPE) correction              0.10145708 Eh      63.67 kcal/mol
-----------------------------------------------------------------------
Total correction                          0.11078469 Eh      69.52 kcal/mol


--------
ENTHALPY
--------

The enthalpy is H = U + kB*T
                kB is Boltzmann's constant
Total thermal energy              ...  -1567.48533988 Eh 
Thermal Enthalpy correction       ...      0.00094421 Eh       0.59 kcal/mol
-----------------------------------------------------------------------
Total Enthalpy                    ...  -1567.48439567 Eh


Note: Only C1 symmetry has been detected, increase convergence thresholds 
      if your molecule has a higher symmetry. Symmetry factor of 1.0 is   
      used for the rotational entropy correction. 
 

Note: Rotational entropy computed according to Herzberg 
Infrared and Raman Spectra, Chapter V,1, Van Nostrand Reinhold, 1945 
Point Group:  C1, Symmetry Number:   1  
Rotational constants in cm-1:     0.119900     0.116020     0.059821 

Vibrational entropy computed according to the QRRHO of S. Grimme
Chem.Eur.J. 2012 18 9955 using a reference frequency of 100.0 cm-1


-------
ENTROPY
-------

The entropy contributions are T*S = T*(S(el)+S(vib)+S(rot)+S(trans))
     S(el)   - electronic entropy
     S(vib)  - vibrational entropy
     S(rot)  - rotational entropy
     S(trans)- translational entropy
The entropies will be listed as multiplied by the temperature to get
units of energy

Electronic entropy                ...      0.00130891 Eh      0.82 kcal/mol
Vibrational entropy               ...      0.01066110 Eh      6.69 kcal/mol
Rotational entropy                ...      0.01285863 Eh      8.07 kcal/mol
Translational entropy             ...      0.01921987 Eh     12.06 kcal/mol
-----------------------------------------------------------------------
Final entropy term                ...      0.04404851 Eh     27.64 kcal/mol

In case the symmetry of your molecule has not been determined correctly
or in case you have a reason to use a different symmetry number we print 
out the resulting rotational entropy values for sn=1,12:

 non-linear molecules -----------------------------------
|  sn= 1 | S(rot)=       0.01285863 Eh      8.07 kcal/mol|
|  sn= 2 | S(rot)=       0.01220418 Eh      7.66 kcal/mol|
|  sn= 3 | S(rot)=       0.01182134 Eh      7.42 kcal/mol|
|  sn= 4 | S(rot)=       0.01154972 Eh      7.25 kcal/mol|
|  sn= 5 | S(rot)=       0.01133903 Eh      7.12 kcal/mol|
|  sn= 6 | S(rot)=       0.01116689 Eh      7.01 kcal/mol|
|  sn= 7 | S(rot)=       0.01102134 Eh      6.92 kcal/mol|
|  sn= 8 | S(rot)=       0.01089526 Eh      6.84 kcal/mol|
|  sn= 9 | S(rot)=       0.01078406 Eh      6.77 kcal/mol|
|  sn=10 | S(rot)=       0.01068458 Eh      6.70 kcal/mol|
|  sn=11 | S(rot)=       0.01059459 Eh      6.65 kcal/mol|
|  sn=12 | S(rot)=       0.01051243 Eh      6.60 kcal/mol|
 linear molecules ---------------------------------------
|  Dinfh | S(rot)=       0.00798499 Eh      5.01 kcal/mol|
|  Cinfv | S(rot)=       0.00863945 Eh      5.42 kcal/mol|
 --------------------------------------------------------


-------------------
GIBBS FREE ENERGY
-------------------

The Gibbs free energy is G = H - T*S

Total enthalpy                    ...  -1567.48439567 Eh 
Total entropy correction          ...     -0.04404851 Eh    -27.64 kcal/mol
-----------------------------------------------------------------------
Final Gibbs free energy         ...  -1567.52844418 Eh

For completeness - the Gibbs free energy minus the electronic energy
G-E(el)                           ...      0.06768038 Eh     42.47 kcal/mol


Maximum memory used throughout the entire PROP-calculation: 51.9 MB

--------------------------------
SUGGESTED CITATIONS FOR THIS RUN
--------------------------------

Below you find a list of papers that are relevant to this ORCA run
We neither can nor want to force you to cite these papers, but we appreciate if you do
You receive ORCA, which is the product of decades of hard work by many enthusiastic individuals, for free
The only thing we kindly ask in return is that you cite our papers,
We deeply appreciate it, if you show your appreciation for ORCA by not just citing the generic ORCA reference.

Please note that relegating all ORCA citations to the supporting information does *not* help us.
SI sections are not indexed - citations you put there will not count into any citation statistics
But we need these citations in order to attract the funding resources that allow us to do what we are doing

Therefore, if you are a happy ORCA user, please consider citing a few of the papers listed below in the main body of your paper

In addition to the list printed below, the program has created the file /users/s1155246974/li/fe3_quartet/fe3_quartet.bibtex that contains the list in bibtex format
You can import this file easily into all common literature databanks and citation aid programs


List of essential papers. We consider these as the minimum necessary citations

  1. Neese, F.
     Software update: the ORCA program system, version 6.0
     WIRES Comput. Molec. Sci. 2025 15(1), e70019
     doi.org/10.1002/wcms.7019

List of papers to cite with high priority. The work reported in these papers was absolutely
necessary for this run to complete.
Our perspective: the developers of density functionals and basis sets usually get cited in chemistry papers
Good! But without the algorithms to do something with them, the functionals or basis sets would not do anything.
Hence, in our opinion, the algorithm design and method developments papers are equally worthy of getting cited

  1. Neese, F.
     An improvement of the resolution of the identity approximation for the formation of the Coulomb matrix
     J. Comp. Chem. 2003 24(14), 1740-1747
     doi.org/10.1002/jcc.10318
  2. Neese, F.; Wennmohs, F.; Hansen, A.; Becker, U.
     Efficient, approximate and parallel Hartree-Fock and hybrid DFT calculations. A 'chain-of-spheres' algorithm for the Hartree-Fock exchange
     Chem. Phys. 2009 356(1-3), 98-109
     doi.org/10.1016/j.chemphys.2008.10.036
  3. Bykov, D.; Petrenko, T.; Izsak, R.; Kossmann, S.; Becker, U.; Valeev, E.; Neese, F.
     Efficient implementation of the analytic second derivatives of Hartree-Fock and hybrid DFT energies: a detailed analysis of different approximations
     Molec. Phys. 2015 113 , 1961-1977
     doi.org/10.1080/00268976.2015.1025114
  4. Helmich-Paris, B.; de Souza, B.; Neese, F.; Izsák, R.
     An improved chain of spheres for exchange algorithm
     J. Chem. Phys. 2021 155(10), 104109
     doi.org/10.1063/5.0058766
  5. Neese, F.
     The SHARK Integral Generation and Digestion System
     J. Comp. Chem. 2022 44(3), 381
     doi.org/10.1002/jcc.26942

List of suggested additional citations. These are papers that are important in the 'surrounding' of 
of this run, or papers that preceded the highly important papers. If you like your results we are grateful for a citation.

  1. Izsak, R.; Neese, F.
     An overlap fitted chain of spheres exchange method
     J. Chem. Phys. 2011 135 , 144105
     doi.org/10.1063/1.3646921
  2. Izsak, R.; Hansen, A.; Neese, F.
     The resolution of identity and chain of spheres approximations for the LPNO-CCSD singles Fock term
     Molec. Phys. 2012 110 , 2413-2417
     doi.org/10.1080/00268976.2012.687466
  3. Neese, F.
     The ORCA program system
     WIRES Comput. Molec. Sci. 2012 2(1), 73-78
     doi.org/10.1002/wcms.81
  4. Izsak, R.; Neese, F.; Klopper, W.
     Robust fitting techniques in the chain of spheres approximation to the Fock exchange: The role of the complementary space
     J. Chem. Phys. 2013 139 , 
     doi.org/10.1063/1.4819264
  5. Neese, F.
     Software update: the ORCA program system, version 4.0
     WIRES Comput. Molec. Sci. 2018 8(1), 1-6
     doi.org/10.1002/wcms.1327
  6. Neese, F.; Wennmohs, F.; Becker, U.; Riplinger, C.
     The ORCA quantum chemistry program package
     J. Chem. Phys. 2020 152(22), 224108
     doi.org/10.1063/5.0004608
  7. Neese, F.
     Software update: The ORCA program system—Version 5.0
     WIRES Comput. Molec. Sci. 2022 12(1), e1606
     doi.org/10.1002/wcms.1606

List of optional additional citations

  1. Neese, F.
     Approximate second-order SCF convergence for spin unrestricted wavefunctions
     Chem. Phys. Lett. 2000 325(1-3), 93-98
     doi.org/10.1016/s0009-2614(00)00662-x

Timings for individual modules:

Sum of individual times          ...     3212.784 sec (=  53.546 min)
Startup calculation              ...      291.522 sec (=   4.859 min)   9.1 %
SCF iterations                   ...     2618.391 sec (=  43.640 min)  81.5 %
Property integrals               ...       77.873 sec (=   1.298 min)   2.4 %
SCF Response                     ...       79.899 sec (=   1.332 min)   2.5 %
Property calculations            ...       20.693 sec (=   0.345 min)   0.6 %
SCF Gradient evaluation          ...      124.095 sec (=   2.068 min)   3.9 %
Geometry relaxation              ...        0.311 sec (=   0.005 min)   0.0 %
                             ****ORCA TERMINATED NORMALLY****
TOTAL RUN TIME: 0 days 0 hours 58 minutes 26 seconds 692 msec
