
                                 *****************
                                 * O   R   C   A *
                                 *****************

                                            #,                                       
                                            ###                                      
                                            ####                                     
                                            #####                                    
                                            ######                                   
                                           ########,                                 
                                     ,,################,,,,,                         
                               ,,#################################,,                 
                          ,,##########################################,,             
                       ,#########################################, ''#####,          
                    ,#############################################,,   '####,        
                  ,##################################################,,,,####,       
                ,###########''''           ''''###############################       
              ,#####''   ,,,,##########,,,,          '''####'''          '####       
            ,##' ,,,,###########################,,,                        '##       
           ' ,,###''''                  '''############,,,                           
         ,,##''                                '''############,,,,        ,,,,,,###''
      ,#''                                            '''#######################'''  
     '                                                          ''''####''''         
             ,#######,   #######,   ,#######,      ##                                
            ,#'     '#,  ##    ##  ,#'     '#,    #''#        ,####,    ,#,          
            ##       ##  ##   ,#'  ##            #'  '#       #'       ,# #          
            ##       ##  #######   ##           ,######,      #####,      #          
            '#,     ,#'  ##    ##  '#,     ,#' ,#      #,     #,   #      #          
             '#######'   ##     ##  '#######'  #'      '#     '####' #    #          



                #########################################################
                #                        -***-                          #
                #          Department of theory and spectroscopy        #
                #                                                       #
                #                      Frank Neese                      #
                #                                                       #
                #     Directorship, Architecture, Infrastructure        #
                #                    SHARK, DRIVERS                     #
                #        Core code/Algorithms in most modules           #
                #                                                       #
                #        Max Planck Institute fuer Kohlenforschung      #
                #                Kaiser Wilhelm Platz 1                 #
                #                 D-45470 Muelheim/Ruhr                 #
                #                      Germany                          #
                #                                                       #
                #                  All rights reserved                  #
                #                        -***-                          #
                #########################################################


                         Program Version 6.1.0  -  RELEASE   -
                                (GIT: $679e74b$)
                          ($2025-06-10 18:02:51 +0200$)


 With contributions from (in alphabetic order):
[Max-Planck-Institut fuer Kohlenforschung]                               
  Daniel Aravena         : Magnetic Suceptibility                        
  Michael Atanasov       : Ab Initio Ligand Field Theory (pilot matlab implementation)
  Alexander A. Auer      : GIAO ZORA, VPT2 properties, NMR spectrum      
  Ute Becker             : All parallelization in ORCA, NUMFREQ, NUMCALC 
  Giovanni Bistoni       : ED, misc. LED, open-shell LED, HFLD           
  Dmytro Bykov           : pre 5.0 version of the SCF Hessian            
  Marcos Casanova-Páez   : Triplet and SCS-CIS(D). UHF-(DLPNO)-IP/EA/STEOM-CCSD. UHF-CVS-IP/STEOM-CCSD   
  Vijay G. Chilkuri      : MRCI spin determinant printing, contributions to CSF-ICE 
  Pauline Colinet        : FMM embedding                                 
  Dipayan Datta          : RHF DLPNO-CCSD density                        
  Achintya Kumar Dutta   : EOM-CC, STEOM-CC                              
  Nicolas Foglia         : Exact transition moments, OPA infrastructure, MCD improvements    
  Dmitry Ganyushin       : Spin-Orbit,Spin-Spin,Magnetic field MRCI      
  Miquel Garcia-Rates    : C-PCM and meta-GGA Hessian, CCSD/C-PCM, Gaussian charge scheme 
  Tiago L. C. Gouveia    : GS-ROHF, GS-ROCIS                             
  Yang Guo               : DLPNO-NEVPT2, F12-NEVPT2, CIM, IAO-localization        
  Andreas Hansen         : Spin unrestricted coupled pair/coupled cluster methods 
  Ingolf Harden          : AUTO-CI MPn and infrastructure                
  Benjamin Helmich-Paris : MC-RPA, TRAH-(SCF,CASSCF), AVAS, COSX integrals, SCF dyn. polar., MC-PDFT, srDFT 
  Lee Huntington         : MR-EOM, pCC                                   
  Robert Izsak           : Overlap fitted RIJCOSX, COSX-SCS-MP3, EOM     
  Riya Kayal             : Wick's Theorem for AUTO-CI, AUTO-CI UHF-CCSDT 
  Emily Kempfer          : AUTO-CI RHF CISDT and CCSDT, approximate NEVPT4
  Christian Kollmar      : KDIIS, OOCD, Brueckner-CCSD(T), CCSD density, CASPT2, CASPT2-K, improved NEVPT2 
  Axel Koslowski         : Symmetry handling                             
  Simone Kossmann        : meta-GGA functionals, TD-DFT gradient, OOMP2, (MP2 Hessian; deprecated post 5.0) 
  Lucas Lang             : DCDCAS, Hyperfine gauge corrections, ICE-SOC+SSC
  Marvin Lechner         : AUTO-CI (C++ implementation), FIC-MRCC        
  Spencer Leger          : CASSCF response                               
  Dagmar Lenk            : GEPOL surface, SMD, ORCA-2-JSON               
  Dimitrios Liakos       : Extrapolation schemes; Compound Job, Property file
  Dimitrios Manganas     : Further ROCIS development; embedding schemes. LFT, Crystal Embedding 
  Dimitrios Pantazis     : SARC Basis sets                               
  Anastasios Papadopoulos: AUTO-CI, single reference methods and gradients 
  Taras Petrenko         : pre 6.0 DFT Hessian and TD-DFT gradient,  ECA, NRVS 
  Petra Pikulova         : Analytic Raman intensities                    
  Peter Pinski           : DLPNO-MP2, DLPNO-MP2 Gradient                 
  Shashank Vittal Rao    : ES-AILFT, MagRelax                            
  Christoph Reimann      : Effective Core Potentials                     
  Marius Retegan         : Local ZFS, SOC                                
  Christoph Riplinger    : Optimizer, TS searches, QM/MM, DLPNO-CCSD(T), (RO)-DLPNO pert. Triples 
  Michael Roemelt        : Original ROCIS implementation, recursive CI coupling coefficients
  Masaaki Saitow         : Open-shell DLPNO-CCSD energy and density      
  Barbara Sandhoefer     : DKH picture change effects                    
  Yorick L. A. Schmerwitz: GMF and freeze-and-release deltaSCF, NEB S-IDPP initial path                    
  Kantharuban Sivalingam : CASSCF convergence/infrastructure, NEVPT2, NEVPT3, NEVPT4(SD), FIC-MRCI and CEPA variants
  Bernardo de Souza      : ESD, SOC TD-DFT                               
  Georgi L. Stoychev     : AutoAux, RI-MP2 NMR, DLPNO-MP2 response, X2C  
  Van Anh Tran           : RI-MP2 g-tensors                              
  Willem Van den Heuvel  : Paramagnetic NMR                              
  Zikuan Wang            : NOTCH, Electric field optimization            
  Frank Wennmohs         : Technical directorship and infrastructure     
  Hang Xu                : AUTO-CI-Response properties                   
                                                                         
[FACCTs GmbH]                                                            
  Markus Bursch, Nicolas Foglia, Miquel Garcia-Rates, Ingolf Harden, Hagen Neugebauer, Anastasios Papadopoulos, 
  Christoph Riplinger, Bernardo de Souza, Georgi L. Stoychev                                                    
                                                                 
  APM, various basis sets, CI-OPT, improved COSX, DLPNO-Multilevel,           
  DOCKER, DRACO, updates on ESD, Fragmentator, GOAT, IRC, LR-CPCM, L-BFGS, MBIS, meta-GGA TD-DFT gradient, ML-optimized integration grids, 
  MM, NACMEs, nearIR, NEB, NEB-TS, NL-DFT gradient (VV10), 2- and 3-layer-ONIOM, interface openCOSMO-RS, QMMM,   
  Crystal-QMMM, RESP, rigid body optimization, SF, symmetry and pop. for TD-DFT, various functionals, SOLVATOR                                   
                                                                         
[Other institutions]                                                     
  V. Asgeirsson          : NEB                                           
  Christoph Bannwarth    : sTDA-DFT, sTD-DFT, PBEh-3c, B97-3c, D3        
  Giovanni Bistoni       : ETS/NOCV, ADLD/ADEX, COVALED                  
  Martin Brehm           : Molecular dynamics                            
  Ronald Cardenas        : ETS/NOCV                                      
  Martina Colucci        : COVALED                                       
  Sebastian Ehlert       : rSCAN, r2SCAN, r2SCAN-3c, D4, dhf basis sets  
  Marvin Friede          : D4 for Fr, Ra, Ac-Lr                          
  Lars Goerigk           : TD-DFT with DH, B97 family of functionals     
  Stefan Grimme          : VdW corrections, initial TS optimization, DFT functionals, gCP, sTDA/sTD-DF 
  Waldemar Hujo          : DFT-NL                                        
  H. Jonsson             : NEB                                           
  Holger Kruse           : gCP                                           
  Marcel Mueller         : wB97X-3c, vDZP basis set                      
  Hagen Neugebauer       : wr2SCAN, Native XTB                           
  Gianluca Regni         : ADLD/ADEX                                     
  Tobias Risthaus        : pre 6.0 range-separated hybrid DFT and stability analysis
  Lukas Wittmann         : regularized MP2, r2SCAN double-hybrids, wr2SCAN        
                                                                         
We gratefully acknowledge several colleagues who have allowed us to      
interface, adapt or use parts of their codes:                            
  Ed Valeev, F. Pavosevic, A. Kumar             : LibInt (2-el integral package), F12 methods 
  Garnet Chan, S. Sharma, J. Yang, R. Olivares  : DMRG                   
  Ulf Ekstrom                                   : XCFun DFT Library      
  Mihaly Kallay                                 : mrcc  (arbitrary order and MRCC methods)
  Frank Weinhold                                : gennbo (NPA and NBO analysis)           
  Simon Mueller                                 : openCOSMO-RS                            
  Christopher J. Cramer and Donald G. Truhlar   : smd solvation model                     
  S Lehtola, MJT Oliveira, MAL Marques          : LibXC Library                           
  Liviu Ungur et al                             : ANISO software                          


 Your calculation uses the libint2 library for the computation of 2-el integrals
 For citations please refer to: http://libint.valeyev.net

 Your ORCA version has been built with support for libXC version: 7.0.0
 For citations please refer to: https://libxc.gitlab.io

 This ORCA versions uses:
   CBLAS   interface :  Fast vector & matrix operations
   LAPACKE interface :  Fast linear algebra routines
   SCALAPACK package :  Parallel linear algebra routines
   Shared memory     :  Shared parallel matrices
   BLAS/LAPACK       :  OpenBLAS 0.3.29  USE64BITINT DYNAMIC_ARCH NO_AFFINITY Cooperlake SINGLE_THREADED
        Core in use  :  Cooperlake
   Copyright (c) 2011-2014, The OpenBLAS Project


  ***********************************
  * Starting time: Fri Nov 28 16:46:32 2025
  * Host name:     chpc-cn077.rc.cuhk.edu.hk
  * Process ID:    2226001
  * Working dir.:  /lustre/scratch/xlzhang/zihan/fe3_sextet
  ***********************************

NOTE: MaxCore=2109 MB was set to SCF,MP2,MDCI,CIPSI,MRCI,RASCI and CIS
      => If you want to overwrite this, your respective input block should be placed after the MaxCore statement
XCFun DFT library Copyright 2009-2010 Ulf Ekstrom and contributors.
See http://admol.org/xcfun for more information.
This is free software; see the source code for copying conditions.
There is ABSOLUTELY NO WARRANTY; not even for MERCHANTABILITY or FITNESS FOR A PARTICULAR PURPOSE.
For details see the documentation.
Scientific users of this library should cite U. Ekstrom, L. Visscher, R. Bast, A. J. Thorvaldsen and K. Ruud;
J.Chem.Theor.Comp. 2010, DOI: 10.1021/ct100117s
XCFun Version 0.99 

Warning: RI is on but no J-basis has been assigned. Assigning Def2/J (nothing to worry about!)
================================================================================

----- Orbital basis set information -----
Your calculation utilizes the basis: def2-SVP
   F. Weigend and R. Ahlrichs, Phys. Chem. Chem. Phys. 7, 3297 (2005).

----- AuxJ basis set information -----
Your calculation utilizes the auxiliary basis: def2/J
   H-Rn: F. Weigend, Phys. Chem. Chem. Phys. 8, 1057 (2006).
   Fr-Lr: K. Eichkorn, F. Weigend, O. Treutler, R. Ahlrichs; Theor. Chem. Acc. 97, 119 (1997).

================================================================================
                                        WARNINGS
                       Please study these warnings very carefully!
================================================================================


WARNING: your system is open-shell and RHF/RKS was chosen
  ===> : WILL SWITCH to UHF/UKS

WARNING: Functional chosen is sensitive to the integration grid.
         DEFGRID3 seems to be a minimum grid for robust results!

WARNING: Geometry Optimization
  ===> : Switching off AutoStart
         For restart on a previous wavefunction, please use MOREAD

================================================================================
                                       INPUT FILE
================================================================================
NAME = /users/s1155246974/li/fe3_sextet/fe3_sextet.inp
|  1> ! Opt Freq M062X def2-SVP defgrid2
|  2> # Number of processors
|  3> %pal nprocs 64 end
|  4> # Memory per core
|  5> %maxcore 2109
|  6> * xyz 3 6
|  7> Fe      -2.1311475900   -0.9394703500    0.0000000000
|  8> O       -2.1311475900    0.8805296500    0.0000000000
|  9> H       -1.6783051600    1.2005296500    0.7836668500
| 10> O       -3.9511475900   -0.9394703500    0.0000000000
| 11> H       -4.2711475900   -1.6929644800   -0.5014445000
| 12> O       -2.1311475900   -2.7594703500    0.0000000000
| 13> H       -1.3001591600   -3.2394703500   -0.0256561100
| 14> O       -0.3111475900   -0.9394703500    0.0000000000
| 15> H        0.1688524100   -0.8543234600   -0.8270127000
| 16> H       -2.9621360100   -3.2394703500    0.0256561100
| 17> H       -4.2711475900   -0.1284596100   -0.4018228100
| 18> H        0.1688524100   -1.0246172500    0.8270127000
| 19> H       -1.6788934000    1.2005296500   -0.7840064700
| 20> *
| 21> 
| 22>                          ****END OF INPUT****
================================================================================

                       *****************************
                       * Geometry Optimization Run *
                       *****************************

Geometry optimization settings:
Update method            Update   .... BFGS
Choice of coordinates    CoordSys .... (2022) Redundant Internals
Initial Hessian          InHess   .... Almloef's Model
Max. no of cycles        MaxIter  .... 50

Convergence Tolerances:
Energy Change            TolE     ....  5.0000e-06 Eh
Max. Gradient            TolMAXG  ....  3.0000e-04 Eh/bohr
RMS Gradient             TolRMSG  ....  1.0000e-04 Eh/bohr
Max. Displacement        TolMAXD  ....  4.0000e-03 bohr
RMS Displacement         TolRMSD  ....  2.0000e-03 bohr
Strict Convergence                .... False

------------------------------------------------------------------------------
                        ORCA OPTIMIZATION COORDINATE SETUP
------------------------------------------------------------------------------

The optimization will be done in redundant internal coordinates (2022)
Making redundant internal coordinates   ...  (2022 redundants) done
Evaluating the initial hessian          ...  (Almloef) done
Evaluating the coordinates              ...  done
Calculating the B-matrix                .... done
Calculating the G-matrix                .... done
The number of degrees of freedom        ....   52

    -----------------------------------------------------------------
                    Redundant Internal Coordinates


    -----------------------------------------------------------------
         Definition                    Initial Value    Approx d2E/dq
    -----------------------------------------------------------------
      1. B(O   1,Fe  0)                  1.8200         1.166709   
      2. B(H   2,O   1)                  0.9600         0.519956   
      3. B(O   3,Fe  0)                  1.8200         1.166709   
      4. B(H   4,O   3)                  0.9600         0.519956   
      5. B(O   5,Fe  0)                  1.8200         1.166709   
      6. B(H   6,O   5)                  0.9600         0.519956   
      7. B(O   7,Fe  0)                  1.8200         1.166709   
      8. B(H   8,O   7)                  0.9600         0.519956   
      9. B(H   9,O   5)                  0.9600         0.519956   
     10. B(H  10,O   3)                  0.9600         0.519956   
     11. B(H  11,O   7)                  0.9600         0.519956   
     12. B(H  12,O   1)                  0.9600         0.519956   
     13. A(O   1,Fe  0,O   3)           90.0000         0.694653   
     14. A(O   5,Fe  0,O   7)           90.0000         0.694653   
     15. A(O   1,Fe  0,O   7)           90.0000         0.694653   
     16. A(O   3,Fe  0,O   5)           90.0000         0.694653   
     17. A(Fe  0,O   1,H  12)          109.4712         0.464522   
     18. A(H   2,O   1,H  12)          109.4712         0.321834   
     19. A(Fe  0,O   1,H   2)          109.4712         0.464522   
     20. A(H   4,O   3,H  10)          109.4712         0.321834   
     21. A(Fe  0,O   3,H   4)          109.4712         0.464522   
     22. A(Fe  0,O   3,H  10)          109.4712         0.464522   
     23. A(H   6,O   5,H   9)          120.0000         0.321834   
     24. A(Fe  0,O   5,H   6)          120.0000         0.464522   
     25. A(Fe  0,O   5,H   9)          120.0000         0.464522   
     26. A(H   8,O   7,H  11)          120.0000         0.321834   
     27. A(Fe  0,O   7,H  11)          120.0000         0.464522   
     28. A(Fe  0,O   7,H   8)          120.0000         0.464522   
     29. D(H  12,O   1,Fe  0,O   3)   -119.9785         0.010000   
     30. D(H  12,O   1,Fe  0,O   7)     60.0215         0.010000   
     31. D(H   2,O   1,Fe  0,O   3)    120.0215         0.010000   
     32. D(H   2,O   1,Fe  0,O   7)    -59.9785         0.010000   
     33. D(H   4,O   3,Fe  0,O   5)    -33.6435         0.010000   
     34. D(H   4,O   3,Fe  0,O   1)    146.3565         0.010000   
     35. D(H  10,O   3,Fe  0,O   1)     26.3565         0.010000   
     36. D(H  10,O   3,Fe  0,O   5)   -153.6435         0.010000   
     37. D(H   6,O   5,O   1,H  12)     58.2531         0.010000   
     38. D(H   6,O   5,O   1,H   2)    -61.7469         0.010000   
     39. D(H   9,O   5,Fe  0,O   7)    178.2316         0.010000   
     40. D(H   9,O   5,Fe  0,O   3)     -1.7684         0.010000   
     41. D(H   6,O   5,Fe  0,O   7)     -1.7684         0.010000   
     42. D(H   9,O   5,O   1,H   2)    118.2531         0.010000   
     43. D(H   6,O   5,Fe  0,O   3)    178.2316         0.010000   
     44. D(H   9,O   5,O   1,H  12)   -121.7469         0.010000   
     45. D(H  11,O   7,O   3,H  10)    122.2348         0.010000   
     46. D(H   8,O   7,O   3,H  10)    -57.7652         0.010000   
     47. D(H   8,O   7,O   3,H   4)     62.2348         0.010000   
     48. D(H  11,O   7,Fe  0,O   5)    -84.1217         0.010000   
     49. D(H  11,O   7,Fe  0,O   1)     95.8783         0.010000   
     50. D(H  11,O   7,O   3,H   4)   -117.7652         0.010000   
     51. D(H   8,O   7,Fe  0,O   5)     95.8783         0.010000   
     52. D(H   8,O   7,Fe  0,O   1)    -84.1217         0.010000   
    -----------------------------------------------------------------

Number of atoms                         .... 13
Number of degrees of freedom            .... 52


         *************************************************************
         *                GEOMETRY OPTIMIZATION CYCLE   1            *
         *************************************************************
---------------------------------
CARTESIAN COORDINATES (ANGSTROEM)
---------------------------------
  Fe    -2.131148   -0.939470    0.000000
  O     -2.131148    0.880530    0.000000
  H     -1.678305    1.200530    0.783667
  O     -3.951148   -0.939470    0.000000
  H     -4.271148   -1.692964   -0.501444
  O     -2.131148   -2.759470    0.000000
  H     -1.300159   -3.239470   -0.025656
  O     -0.311148   -0.939470    0.000000
  H      0.168852   -0.854323   -0.827013
  H     -2.962136   -3.239470    0.025656
  H     -4.271148   -0.128460   -0.401823
  H      0.168852   -1.024617    0.827013
  H     -1.678893    1.200530   -0.784006

----------------------------
CARTESIAN COORDINATES (A.U.)
----------------------------
  NO LB      ZA    FRAG     MASS         X           Y           Z
   0 Fe   26.0000    0    55.850   -4.027285   -1.775342    0.000000
   1 O     8.0000    0    15.999   -4.027285    1.663960    0.000000
   2 H     1.0000    0     1.008   -3.171537    2.268672    1.480916
   3 O     8.0000    0    15.999   -7.466587   -1.775342    0.000000
   4 H     1.0000    0     1.008   -8.071299   -3.199239   -0.947593
   5 O     8.0000    0    15.999   -4.027285   -5.214643    0.000000
   6 H     1.0000    0     1.008   -2.456945   -6.121712   -0.048483
   7 O     8.0000    0    15.999   -0.587984   -1.775342    0.000000
   8 H     1.0000    0     1.008    0.319085   -1.614437   -1.562828
   9 H     1.0000    0     1.008   -5.597626   -6.121712    0.048483
  10 H     1.0000    0     1.008   -8.071299   -0.242753   -0.759335
  11 H     1.0000    0     1.008    0.319085   -1.936246    1.562828
  12 H     1.0000    0     1.008   -3.172649    2.268672   -1.481558

--------------------------------
INTERNAL COORDINATES (ANGSTROEM)
--------------------------------
 Fe     0   0   0     0.000000000000     0.00000000     0.00000000
 O      1   0   0     1.820000000000     0.00000000     0.00000000
 H      2   1   0     0.959999999061   109.47122065     0.00000000
 O      1   2   3     1.820000000000    90.00000000   120.02149934
 H      4   1   2     0.959999995065   109.47122074   146.35654271
 O      1   2   3     1.820000000000   180.00000000     0.00000000
 H      6   1   2     0.960000003528   119.99999988     0.00000000
 O      1   2   3     1.820000000000    90.00000000   300.02149934
 H      8   1   2     0.959999999395   120.00000002   275.87829955
 H      6   1   8     0.959999994872   120.00000018   178.23159989
 H      4   1   2     0.959999995329   109.47122073    26.35654283
 H      8   1   2     0.960000000282   119.99999999    95.87830024
 H      2   1   3     0.959999998633   109.47122066   119.99999963

---------------------------
INTERNAL COORDINATES (A.U.)
---------------------------
 Fe     0   0   0     0.000000000000     0.00000000     0.00000000
 O      1   0   0     3.439301563737     0.00000000     0.00000000
 H      2   1   0     1.814137086790   109.47122065     0.00000000
 O      1   2   3     3.439301563737    90.00000000   120.02149934
 H      4   1   2     1.814137079239   109.47122074   146.35654271
 O      1   2   3     3.439301563737   180.00000000     0.00000000
 H      6   1   2     1.814137095232   119.99999988     0.00000000
 O      1   2   3     3.439301563737    90.00000000   300.02149934
 H      8   1   2     1.814137087421   120.00000002   275.87829955
 H      6   1   8     1.814137078874   120.00000018   178.23159989
 H      4   1   2     1.814137079737   109.47122073    26.35654283
 H      8   1   2     1.814137089097   119.99999999    95.87830024
 H      2   1   3     1.814137085980   109.47122066   119.99999963

---------------------
BASIS SET INFORMATION
---------------------
There are 3 groups of distinct atoms

 Group   1 Type Fe  : 14s9p5d1f contracted to 5s3p2d1f pattern {63311/531/41/1}
 Group   2 Type O   : 7s4p1d contracted to 3s2p1d pattern {511/31/1}
 Group   3 Type H   : 4s1p contracted to 2s1p pattern {31/1}

Atom   0Fe   basis set group =>   1
Atom   1O    basis set group =>   2
Atom   2H    basis set group =>   3
Atom   3O    basis set group =>   2
Atom   4H    basis set group =>   3
Atom   5O    basis set group =>   2
Atom   6H    basis set group =>   3
Atom   7O    basis set group =>   2
Atom   8H    basis set group =>   3
Atom   9H    basis set group =>   3
Atom  10H    basis set group =>   3
Atom  11H    basis set group =>   3
Atom  12H    basis set group =>   3
---------------------------------
AUXILIARY/J BASIS SET INFORMATION
---------------------------------
There are 3 groups of distinct atoms

 Group   1 Type Fe  : 19s5p5d3f3g contracted to 8s5p5d2f3g pattern {121111111/11111/11111/21/111}
 Group   2 Type O   : 12s5p4d2f1g contracted to 6s4p3d1f1g pattern {711111/2111/211/2/1}
 Group   3 Type H   : 5s2p1d contracted to 3s1p1d pattern {311/2/1}

Atom   0Fe   basis set group =>   1
Atom   1O    basis set group =>   2
Atom   2H    basis set group =>   3
Atom   3O    basis set group =>   2
Atom   4H    basis set group =>   3
Atom   5O    basis set group =>   2
Atom   6H    basis set group =>   3
Atom   7O    basis set group =>   2
Atom   8H    basis set group =>   3
Atom   9H    basis set group =>   3
Atom  10H    basis set group =>   3
Atom  11H    basis set group =>   3
Atom  12H    basis set group =>   3


           ************************************************************
           *        Program running with 64 parallel MPI-processes    *
           *              working on a common directory               *
           ************************************************************
------------------------------------------------------------------------------
                             ORCA STARTUP CALCULATIONS
                           -- RI-GTO INTEGRALS CHOSEN --
------------------------------------------------------------------------------
------------------------------------------------------------------------------
                   ___                                                        
                  /   \      - P O W E R E D   B Y -                         
                 /     \                                                     
                 |  |  |   _    _      __       _____    __    __             
                 |  |  |  | |  | |    /  \     |  _  \  |  |  /  |          
                  \  \/   | |  | |   /    \    | | | |  |  | /  /          
                 / \  \   | |__| |  /  /\  \   | |_| |  |  |/  /          
                |  |  |   |  __  | /  /__\  \  |    /   |      \           
                |  |  |   | |  | | |   __   |  |    \   |  |\   \          
                \     /   | |  | | |  |  |  |  | |\  \  |  | \   \       
                 \___/    |_|  |_| |__|  |__|  |_| \__\ |__|  \__/        
                                                                              
                      - O R C A' S   B I G   F R I E N D -                    
                                      &                                       
                       - I N T E G R A L  F E E D E R -                       
                                                                              
 v1 FN, 2020, v2 2021, v3 2022-2024                                           
------------------------------------------------------------------------------


----------------------
SHARK INTEGRAL PACKAGE
----------------------

Number of atoms                             ...     13
Number of basis functions                   ...    127
Number of shells                            ...     59
Maximum angular momentum                    ...      3
Integral batch strategy                     ... SHARK/LIBINT Hybrid
RI-J (if used) integral strategy            ... SPLIT-RIJ (Revised 2003 algorithm where possible)
Printlevel                                  ...      1
Contraction scheme used                     ... SEGMENTED contraction
Prescreening option                         ... SCHWARTZ
   Thresh                                   ... 2.500e-11
   Tcut                                     ... 2.500e-12
   Tpresel                                  ... 2.500e-12 
Coulomb Range Separation                    ... NOT USED
Exchange Range Separation                   ... NOT USED
Multipole approximations                    ... NOT USED
Finite Nucleus Model                        ... NOT USED
CABS basis                                  ... NOT available
Auxiliary Coulomb fitting basis             ... AVAILABLE
   # of basis functions in Aux-J            ...    373
   # of shells in Aux-J                     ...    123
   Maximum angular momentum in Aux-J        ...      4
Auxiliary J/K fitting basis                 ... NOT available
Auxiliary Correlation fitting basis         ... NOT available
Auxiliary 'external' fitting basis          ... NOT available

Checking pre-screening integrals            ... done (  0.3 sec) Dimension = 59
   => SHARK Basis and OBASIS are compatible. Storing Pre-screening
Shell pair information
Shell pair cut-off parameter TPreSel        ...   2.5e-12
Total number of shell pairs                 ...      1770
Shell pairs after pre-screening             ...      1720
Total number of primitive shell pairs       ...      7019
Primitive shell pairs kept                  ...      5099
          la=0 lb=0:    539 shell pairs
          la=1 lb=0:    607 shell pairs
          la=1 lb=1:    186 shell pairs
          la=2 lb=0:    194 shell pairs
          la=2 lb=1:    114 shell pairs
          la=2 lb=2:     21 shell pairs
          la=3 lb=0:     33 shell pairs
          la=3 lb=1:     19 shell pairs
          la=3 lb=2:      6 shell pairs
          la=3 lb=3:      1 shell pairs

Checking whether 4 symmetric matrices of dimension 127 fit in memory
:Max Core in MB      =   2109.00
 MB in use           =      5.62
 MB left             =   2103.38
 MB needed           =      0.25
 Data fit in memory  = YES
Calculating RI/J V-Matrix + Cholesky decomp.... done (  0.9 sec)
Calculating Nuclear repulsion               ... done (  0.0 sec) ENN=    430.839247573102 Eh

Diagonalization of the overlap matrix:
Smallest eigenvalue                        ... 1.524e-02
Time for diagonalization                   ...    0.052 sec
Threshold for overlap eigenvalues          ... 1.000e-07
Number of eigenvalues below threshold      ... 0
Time for construction of square roots      ...    0.076 sec
Total time needed                          ...    0.387 sec

-------------------
DFT GRID GENERATION
-------------------

General Integration Accuracy     IntAcc      ... 4.388
Radial Grid Type                 RadialGrid  ... OptM3 with GC (2021)
Angular Grid (max. ang.)         AngularGrid ... 4 (Lebedev-302)
Angular grid pruning method      GridPruning ... 4 (adaptive)
Weight generation scheme         WeightScheme... mBecke (2022)
Basis function cutoff            BFCut       ... 1.0000e-11
Integration weight cutoff        WCut        ... 1.0000e-14
Partially contracted basis set               ... off
Rotationally invariant grid construction     ... off
Angular grids for H and He will be reduced by one unit
Core-polarized basis detected: some atoms will have their core
                               angular grid increased.

Total number of grid points                  ...    61293
Total number of batches                      ...      963
Average number of points per batch           ...       63
Average number of grid points per atom       ...     4715

--------------------
COSX GRID GENERATION
--------------------

GRIDX 1
-------
General Integration Accuracy     IntAcc      ... 3.816
Radial Grid Type                 RadialGrid  ... OptM3 with GC (2021)
Angular Grid (max. ang.)         AngularGrid ... 1 (Lebedev-50)
Angular grid pruning method      GridPruning ... 4 (adaptive)
Weight generation scheme         WeightScheme... mBecke (2022)
Basis function cutoff            BFCut       ... 1.0000e-11
Integration weight cutoff        WCut        ... 1.0000e-14
Partially contracted basis set               ... on
Rotationally invariant grid construction     ... off
Angular grids for H and He will be reduced by one unit
Core-polarized basis detected: some atoms will have their core
                               angular grid increased.

Total number of grid points                  ...    12269
Total number of batches                      ...      101
Average number of points per batch           ...      121
Average number of grid points per atom       ...      944
UseSFitting                                  ... on

GRIDX 2
-------
General Integration Accuracy     IntAcc      ... 4.020
Radial Grid Type                 RadialGrid  ... OptM3 with GC (2021)
Angular Grid (max. ang.)         AngularGrid ... 2 (Lebedev-110)
Angular grid pruning method      GridPruning ... 4 (adaptive)
Weight generation scheme         WeightScheme... mBecke (2022)
Basis function cutoff            BFCut       ... 1.0000e-11
Integration weight cutoff        WCut        ... 1.0000e-14
Partially contracted basis set               ... on
Rotationally invariant grid construction     ... off
Angular grids for H and He will be reduced by one unit
Core-polarized basis detected: some atoms will have their core
                               angular grid increased.

Total number of grid points                  ...    19358
Total number of batches                      ...      159
Average number of points per batch           ...      121
Average number of grid points per atom       ...     1489
UseSFitting                                  ... on

GRIDX 3
-------
General Integration Accuracy     IntAcc      ... 4.338
Radial Grid Type                 RadialGrid  ... OptM3 with GC (2021)
Angular Grid (max. ang.)         AngularGrid ... 3 (Lebedev-194)
Angular grid pruning method      GridPruning ... 4 (adaptive)
Weight generation scheme         WeightScheme... mBecke (2022)
Basis function cutoff            BFCut       ... 1.0000e-11
Integration weight cutoff        WCut        ... 1.0000e-14
Partially contracted basis set               ... on
Rotationally invariant grid construction     ... off
Angular grids for H and He will be reduced by one unit
Core-polarized basis detected: some atoms will have their core
                               angular grid increased.

Total number of grid points                  ...    35546
Total number of batches                      ...      285
Average number of points per batch           ...      124
Average number of grid points per atom       ...     2734
UseSFitting                                  ... on
Grids setup in   4.9 sec
Initializing property integral containers    ... done (  0.2 sec)

SHARK setup successfully completed in   8.4 seconds

Maximum memory used throughout the entire STARTUP-calculation: 17.9 MB


           ************************************************************
           *        Program running with 64 parallel MPI-processes    *
           *              working on a common directory               *
           ************************************************************
-------------------------------------------------------------------------------
                                 ORCA GUESS
                   Start orbitals & Density for SCF / CASSCF
-------------------------------------------------------------------------------

------------
SCF SETTINGS
------------
Hamiltonian:
 Density Functional     Method          .... DFT(GTOs)
 Exchange Functional    Exchange        .... M062X
 Correlation Functional Correlation     .... M062X
 Gradients option       PostSCFGGA      .... off
 Hybrid DFT is turned on
   Fraction HF Exchange ScalHFX         ....  0.540000
   Scaling of DF-GGA-X  ScalDFX         ....  0.460000
   Scaling of DF-GGA-C  ScalDFC         ....  1.000000
   Scaling of DF-LDA-C  ScalLDAC        ....  1.000000
   Perturbative correction              ....  0.000000
 RI-approximation to the Coulomb term is turned on
   Number of AuxJ basis functions       .... 373
   RIJ-COSX (HFX calculated with COS-X)).... on


General Settings:
 Integral files         IntName         .... /users/s1155246974/li/fe3_sextet/fe3_sextet
 Hartree-Fock type      HFTyp           .... UHF
 Total Charge           Charge          ....    3
 Multiplicity           Mult            ....    6
 Number of Electrons    NEL             ....   63
 Basis Dimension        Dim             ....  127
 Nuclear Repulsion      ENuc            ....    430.8392475731 Eh

Convergence Acceleration:
 AO-DIIS                CNVDIIS         .... on
   Start iteration      DIISMaxIt       ....    12
   Startup error        DIISStart       ....  0.200000
   # of expansion vecs  DIISMaxEq       ....     5
   Bias factor          DIISBfac        ....   1.050
   Max. coefficient     DIISMaxC        ....  10.000
 MO-DIIS                CNVKDIIS        .... off
 Trust-Rad. Augm. Hess. CNVTRAH         .... auto
   Auto Start mean grad. ratio tolernc. ....  1.125000
   Auto Start start iteration           ....    50
   Auto Start num. interpolation iter.  ....    10
   Max. Number of Micro iterations      ....    24
   Max. Number of Macro iterations      .... Maxiter - #DIIS iter
   Number of Davidson start vectors     ....     2
   Converg. threshold    (grad. norm)   ....   1.000e-05
   Grad. Scal. Fac. for Micro threshold ....   0.100
   Minimum threshold for Micro iter.    ....   1.000e-02
   NR start threshold (gradient norm)   ....   1.000e-04
   Initial trust radius                 ....   0.400
   Minimum AH scaling param. (alpha)    ....   1.000
   Maximum AH scaling param. (alpha)    .... 1000.000
   Quad. conv. algorithm                .... NR
   White noise on init. David. guess    .... on
   Maximum white noise                  ....   0.010
   Pseudo random numbers                .... off
   Inactive MOs                         .... canonical
   Orbital update algorithm             .... Taylor
   Preconditioner                       .... Diag
   Full preconditioner red. dimension   ....   250
 SOSCF                 CNVSOSCF           .... on
   Start iteration     SOSCFMaxIt         ....   150
   Startup grad/error  SOSCFStart         ....  0.003300
   Hessian update      SOSCFHessUp        .... L-BFGS
   Autom. constraints  SOSCFAutoConstrain .... off
 Level Shifting         CNVShift        .... on
   Level shift para.    LevelShift      ....    0.2500
   Turn off err/grad.   ShiftErr        ....    0.0010
 Zerner damping         CNVZerner       .... off
 Static damping         CNVDamp         .... on
   Fraction old density DampFac         ....    0.7000
   Max. Damping (<1)    DampMax         ....    0.9800
   Min. Damping (>=0)   DampMin         ....    0.0000
   Turn off err/grad.   DampErr         ....    0.1000

SCF Procedure:
 Maximum # iterations   MaxIter         ....   125
 SCF integral mode      SCFMode         .... Direct
   Integral package                     .... SHARK and LIBINT hybrid scheme
 Reset frequency        DirectResetFreq ....    20
 Integral Threshold     Thresh          ....  2.500e-11 Eh
 Primitive CutOff       TCut            ....  2.500e-12 Eh

Convergence Tolerance:
 Convergence Check Mode ConvCheckMode   .... Total+1el-Energy
 Convergence forced     ConvForced      .... 0
 Energy Change          TolE            ....  1.000e-08 Eh
 1-El. energy change                    ....  1.000e-05 Eh
 Orbital Gradient       TolG            ....  1.000e-05
 Orbital Rotation angle TolX            ....  1.000e-05
 DIIS Error             TolErr          ....  5.000e-07

------------------------------
INITIAL GUESS: MODEL POTENTIAL
------------------------------
Loading Hartree-Fock densities                     ... done
Calculating cut-offs                               ... done
Initializing the effective Hamiltonian             ... done
Setting up the integral package (SHARK)            ... done
Starting the Coulomb interaction                   ... done (   0.7 sec)
Making the grid                                    ... done (   0.6 sec)
Mapping shells                                     ... done
Starting the XC term evaluation                    ... done (   0.2 sec)
  promolecular density results
     # of electrons  =     65.998544033
     EX              =    -89.331163655
     EC              =     -2.503922825
     EX+EC           =    -91.835086480
Transforming the Hamiltonian                       ... done (   0.1 sec)
Diagonalizing the Hamiltonian                      ... done (   0.3 sec)
Back transforming the eigenvectors                 ... done (   0.1 sec)
Now organizing SCF variables                       ... done
                      ------------------
                      INITIAL GUESS DONE (   2.6 sec)
                      ------------------
             **** ENERGY FILE WAS UPDATED (/users/s1155246974/li/fe3_sextet/fe3_sextet.en.tmp) ****
Finished Guess after   4.5 sec
Maximum memory used throughout the entire GUESS-calculation: 9.2 MB


           ************************************************************
           *        Program running with 64 parallel MPI-processes    *
           *              working on a common directory               *
           ************************************************************

-------------------------------------------------------------------------------------------
                                      ORCA LEAN-SCF
                              memory conserving SCF solver
-------------------------------------------------------------------------------------------

----------------------------------------D-I-I-S--------------------------------------------
Iteration    Energy (Eh)           Delta-E    RMSDP     MaxDP     DIISErr   Damp  Time(sec)
-------------------------------------------------------------------------------------------
               ***  Starting incremental Fock matrix formation  ***
    1    -1567.1128865458258588     0.00e+00  2.89e-02  6.04e-02  2.57e-01  0.700   5.1
    2    -1567.2968793156976517    -1.84e-01  1.40e-02  3.16e-02  9.63e-02  0.700   2.3
                               ***Turning on AO-DIIS***
    3    -1567.3513415831268958    -5.45e-02  5.64e-03  1.85e-02  3.65e-02  0.700   1.2
    4    -1567.3991964655099309    -4.79e-02  1.60e-02  4.73e-02  3.04e-02  0.000   1.7
    5    -1567.5208113068272269    -1.22e-01  4.76e-03  1.58e-02  1.87e-02  0.000   2.0
    6    -1567.5236401371230386    -2.83e-03  2.60e-03  8.96e-03  5.64e-03  0.000   1.1
    7    -1567.5243818239698612    -7.42e-04  1.24e-03  3.30e-03  3.63e-03  0.000   1.1
                              *** Initializing SOSCF ***
---------------------------------------S-O-S-C-F--------------------------------------
Iteration    Energy (Eh)           Delta-E    RMSDP     MaxDP     MaxGrad    Time(sec)
--------------------------------------------------------------------------------------
    8    -1567.5245837800912341    -2.02e-04  9.14e-04  2.26e-03  1.77e-03     1.2
               *** Restarting incremental Fock matrix formation ***
    9    -1567.5247692412542619    -1.85e-04  5.84e-04  1.85e-03  1.41e-03     7.5
   10    -1567.5247983918634418    -2.92e-05  7.91e-04  1.85e-03  1.17e-03     1.0
   11    -1567.5248098362740166    -1.14e-05  2.07e-04  4.26e-04  4.87e-04     1.2
   12    -1567.5248125179725776    -2.68e-06  3.79e-05  8.81e-05  5.56e-05     1.6
   13    -1567.5248125600883213    -4.21e-08  1.69e-05  4.39e-05  4.33e-05     3.5
   14    -1567.5248125968578279    -3.68e-08  6.24e-06  1.88e-05  1.13e-05     1.5
   15    -1567.5248125859802713     1.09e-08  3.05e-06  6.38e-06  6.32e-06     1.1
   16    -1567.5248125823316059     3.65e-09  7.15e-07  1.71e-06  1.12e-06     1.9
                 **** Energy Check signals convergence ****

               *****************************************************
               *                     SUCCESS                       *
               *           SCF CONVERGED AFTER  16 CYCLES          *
               *****************************************************

Recomputing exchange energy using gridx3       ... done (    0.132 sec)
Old exchange energy                            :    -48.354998810 Eh
New exchange energy                            :    -48.354983937 Eh
Exchange energy change after final integration :      0.000014872 Eh
Total energy after final integration           :  -1567.524797724 Eh
             **** ENERGY FILE WAS UPDATED (/users/s1155246974/li/fe3_sextet/fe3_sextet.en.tmp) ****

----------------
TOTAL SCF ENERGY
----------------

Total Energy       :      -1567.52479772440097 Eh          -42654.51826 eV

Components:
Nuclear Repulsion  :        430.83924757310189 Eh           11723.73195 eV
Electronic Energy  :      -1998.36406016996489 Eh          -54378.25061 eV
One Electron Energy:      -2975.77938247925795 Eh          -80975.07369 eV
Two Electron Energy:        977.41532230929295 Eh           26596.82308 eV

Virial components:
Potential Energy   :      -3131.68162536471618 Eh          -85217.38939 eV
Kinetic Energy     :       1564.15682764031521 Eh           42562.87113 eV
Virial Ratio       :          2.00215321764709

DFT components:
N(Alpha)           :       33.999997357036 electrons
N(Beta)            :       29.000000723449 electrons
N(Total)           :       62.999998080485 electrons
E(XC)              :      -43.836324927579 Eh       

---------------
SCF CONVERGENCE
---------------

  Last Energy change         ...   -3.6487e-09  Tolerance :   1.0000e-08
  Last MAX-Density change    ...    1.7076e-06  Tolerance :   1.0000e-07
  Last RMS-Density change    ...    7.1505e-07  Tolerance :   5.0000e-09
  Last DIIS Error            ...    1.7681e-03  Tolerance :   5.0000e-07
  Last Orbital Gradient      ...    1.1173e-06  Tolerance :   1.0000e-05
  Last Orbital Rotation      ...    5.6303e-06  Tolerance :   1.0000e-05


----------------------
UHF SPIN CONTAMINATION
----------------------

Warning: in a DFT calculation there is little theoretical justification to 
         calculate <S**2> as in Hartree-Fock theory. We will do it anyways
         but you should keep in mind that the values have only limited relevance

Expectation value of <S**2>     :     8.756859
Ideal value S*(S+1) for S=2.5   :     8.750000
Deviation                       :     0.006859

----------------
ORBITAL ENERGIES
----------------
                 SPIN UP ORBITALS
  NO   OCC          E(Eh)            E(eV) 
   0   1.0000    -258.787718     -7041.9718 
   1   1.0000     -31.567846      -859.0048 
   2   1.0000     -27.431715      -746.4549 
   3   1.0000     -27.425838      -746.2950 
   4   1.0000     -27.425366      -746.2822 
   5   1.0000     -20.311283      -552.6981 
   6   1.0000     -20.307518      -552.5957 
   7   1.0000     -20.306972      -552.5808 
   8   1.0000     -20.301280      -552.4259 
   9   1.0000      -4.651073      -126.5621 
  10   1.0000      -3.417745       -93.0016 
  11   1.0000      -3.409496       -92.7771 
  12   1.0000      -3.408030       -92.7372 
  13   1.0000      -1.816709       -49.4352 
  14   1.0000      -1.798854       -48.9493 
  15   1.0000      -1.794764       -48.8380 
  16   1.0000      -1.793330       -48.7990 
  17   1.0000      -1.390314       -37.8324 
  18   1.0000      -1.371608       -37.3234 
  19   1.0000      -1.365056       -37.1451 
  20   1.0000      -1.362723       -37.0816 
  21   1.0000      -1.359167       -36.9848 
  22   1.0000      -1.291288       -35.1377 
  23   1.0000      -1.288616       -35.0650 
  24   1.0000      -1.271118       -34.5889 
  25   1.0000      -1.267983       -34.5036 
  26   1.0000      -1.212621       -32.9971 
  27   1.0000      -1.187755       -32.3205 
  28   1.0000      -1.179164       -32.0867 
  29   1.0000      -1.114592       -30.3296 
  30   1.0000      -1.093714       -29.7615 
  31   1.0000      -1.080409       -29.3994 
  32   1.0000      -1.066772       -29.0284 
  33   1.0000      -1.030076       -28.0298 
  34   0.0000      -0.553561       -15.0632 
  35   0.0000      -0.534030       -14.5317 
  36   0.0000      -0.468818       -12.7572 
  37   0.0000      -0.443332       -12.0637 
  38   0.0000      -0.403266       -10.9734 
  39   0.0000      -0.393313       -10.7026 
  40   0.0000      -0.387024       -10.5315 
  41   0.0000      -0.382607       -10.4113 
  42   0.0000      -0.354055        -9.6343 
  43   0.0000      -0.336731        -9.1629 
  44   0.0000      -0.313508        -8.5310 

                 SPIN DOWN ORBITALS
  NO   OCC          E(Eh)            E(eV) 
   0   1.0000    -258.787096     -7041.9549 
   1   1.0000     -31.448309      -855.7520 
   2   1.0000     -27.329623      -743.6768 
   3   1.0000     -27.323131      -743.5002 
   4   1.0000     -27.322779      -743.4906 
   5   1.0000     -20.306223      -552.5604 
   6   1.0000     -20.303189      -552.4779 
   7   1.0000     -20.302679      -552.4640 
   8   1.0000     -20.297449      -552.3217 
   9   1.0000      -4.415844      -120.1612 
  10   1.0000      -3.124542       -85.0231 
  11   1.0000      -3.115371       -84.7735 
  12   1.0000      -3.114553       -84.7513 
  13   1.0000      -1.804652       -49.1071 
  14   1.0000      -1.786012       -48.5999 
  15   1.0000      -1.783151       -48.5220 
  16   1.0000      -1.778559       -48.3971 
  17   1.0000      -1.311436       -35.6860 
  18   1.0000      -1.302217       -35.4351 
  19   1.0000      -1.277388       -34.7595 
  20   1.0000      -1.272343       -34.6222 
  21   1.0000      -1.235692       -33.6249 
  22   1.0000      -1.219423       -33.1822 
  23   1.0000      -1.170695       -31.8562 
  24   1.0000      -1.159037       -31.5390 
  25   1.0000      -1.111274       -30.2393 
  26   1.0000      -1.085417       -29.5357 
  27   1.0000      -1.068491       -29.0751 
  28   1.0000      -1.045382       -28.4463 
  29   0.0000      -0.775129       -21.0923 
  30   0.0000      -0.741866       -20.1872 
  31   0.0000      -0.740138       -20.1402 
  32   0.0000      -0.717392       -19.5212 
  33   0.0000      -0.624752       -17.0004 
  34   0.0000      -0.546430       -14.8691 
  35   0.0000      -0.525884       -14.3100 
  36   0.0000      -0.466946       -12.7062 
  37   0.0000      -0.441449       -12.0124 
  38   0.0000      -0.394616       -10.7380 
  39   0.0000      -0.385784       -10.4977 
*Only the first 10 virtual orbitals were printed.

                    ********************************
                    * MULLIKEN POPULATION ANALYSIS *
                    ********************************

--------------------------------------------
MULLIKEN ATOMIC CHARGES AND SPIN POPULATIONS
--------------------------------------------
   0 Fe:    1.494429    4.461590
   1 O :   -0.261665    0.113666
   2 H :    0.323693    0.003404
   3 O :   -0.232577    0.146200
   4 H :    0.304487    0.002207
   5 O :   -0.295762    0.148579
   6 H :    0.342932    0.002495
   7 O :   -0.350007    0.106508
   8 H :    0.346348    0.003711
   9 H :    0.331646    0.001378
  10 H :    0.330945    0.002656
  11 H :    0.348718    0.004033
  12 H :    0.316810    0.003574
Sum of atomic charges         :    3.0000000
Sum of atomic spin populations:    5.0000000

-----------------------------------------------------
MULLIKEN REDUCED ORBITAL CHARGES AND SPIN POPULATIONS
-----------------------------------------------------
CHARGE
  0 Fes       :     6.322856  s :     6.322856
      pz      :     4.118057  p :    12.468465
      px      :     4.175977
      py      :     4.174430
      dz2     :     1.054452  d :     5.711116
      dxz     :     1.084468
      dyz     :     1.104057
      dx2y2   :     1.364509
      dxy     :     1.103629
      f0      :     0.000146  f :     0.003134
      f+1     :     0.000390
      f-1     :     0.000389
      f+2     :     0.000277
      f-2     :     0.000001
      f+3     :     0.000941
      f-3     :     0.000990

  1 O s       :     3.630597  s :     3.630597
      pz      :     1.282272  p :     4.622588
      px      :     1.707392
      py      :     1.632923
      dz2     :     0.000679  d :     0.008480
      dxz     :     0.004438
      dyz     :     0.000175
      dx2y2   :     0.001636
      dxy     :     0.001552

  2 H s       :     0.609077  s :     0.609077
      pz      :     0.033339  p :     0.067229
      px      :     0.018351
      py      :     0.015539

  3 O s       :     3.634069  s :     3.634069
      pz      :     1.673202  p :     4.589625
      px      :     1.630164
      py      :     1.286259
      dz2     :     0.000871  d :     0.008883
      dxz     :     0.001617
      dyz     :     0.004507
      dx2y2   :     0.001480
      dxy     :     0.000409

  4 H s       :     0.627657  s :     0.627657
      pz      :     0.020806  p :     0.067856
      px      :     0.016177
      py      :     0.030874

  5 O s       :     3.610791  s :     3.610791
      pz      :     1.844054  p :     4.680444
      px      :     1.278748
      py      :     1.557642
      dz2     :     0.001087  d :     0.004527
      dxz     :     0.000019
      dyz     :     0.000210
      dx2y2   :     0.000848
      dxy     :     0.002363

  6 H s       :     0.593705  s :     0.593705
      pz      :     0.012350  p :     0.063363
      px      :     0.034860
      py      :     0.016152

  7 O s       :     3.610325  s :     3.610325
      pz      :     1.291291  p :     4.735490
      px      :     1.555088
      py      :     1.889111
      dz2     :     0.001136  d :     0.004191
      dxz     :     0.001906
      dyz     :     0.000068
      dx2y2   :     0.000759
      dxy     :     0.000322

  8 H s       :     0.589765  s :     0.589765
      pz      :     0.033969  p :     0.063887
      px      :     0.016495
      py      :     0.013423

  9 H s       :     0.604716  s :     0.604716
      pz      :     0.012904  p :     0.063638
      px      :     0.033762
      py      :     0.016973

 10 H s       :     0.602080  s :     0.602080
      pz      :     0.016967  p :     0.066974
      px      :     0.014631
      py      :     0.035376

 11 H s       :     0.587360  s :     0.587360
      pz      :     0.034113  p :     0.063922
      px      :     0.016433
      py      :     0.013376

 12 H s       :     0.615702  s :     0.615702
      pz      :     0.033079  p :     0.067487
      px      :     0.018497
      py      :     0.015912


SPIN
  0 Fes       :     0.060436  s :     0.060436
      pz      :    -0.007527  p :    -0.009810
      px      :    -0.000779
      py      :    -0.001505
      dz2     :     0.921151  d :     4.411175
      dxz     :     0.929005
      dyz     :     0.910688
      dx2y2   :     0.731584
      dxy     :     0.918747
      f0      :    -0.000017  f :    -0.000212
      f+1     :    -0.000030
      f-1     :    -0.000029
      f+2     :    -0.000015
      f-2     :     0.000000
      f+3     :    -0.000057
      f-3     :    -0.000063

  1 O s       :     0.008501  s :     0.008501
      pz      :     0.008429  p :     0.104812
      px      :     0.023808
      py      :     0.072574
      dz2     :    -0.000006  d :     0.000353
      dxz     :     0.000053
      dyz     :     0.000212
      dx2y2   :     0.000081
      dxy     :     0.000013

  2 H s       :     0.002369  s :     0.002369
      pz      :     0.000288  p :     0.001035
      px      :     0.000248
      py      :     0.000499

  3 O s       :     0.010972  s :     0.010972
      pz      :     0.050337  p :     0.135053
      px      :     0.079202
      py      :     0.005514
      dz2     :     0.000054  d :     0.000176
      dxz     :    -0.000061
      dyz     :     0.000014
      dx2y2   :     0.000014
      dxy     :     0.000156

  4 H s       :     0.001036  s :     0.001036
      pz      :     0.000308  p :     0.001171
      px      :     0.000490
      py      :     0.000373

  5 O s       :     0.013520  s :     0.013520
      pz      :     0.079422  p :     0.134593
      px      :     0.003805
      py      :     0.051365
      dz2     :     0.000068  d :     0.000467
      dxz     :     0.000001
      dyz     :     0.000077
      dx2y2   :     0.000138
      dxy     :     0.000184

  6 H s       :     0.001199  s :     0.001199
      pz      :     0.000949  p :     0.001295
      px      :     0.000157
      py      :     0.000188

  7 O s       :     0.010550  s :     0.010550
      pz      :     0.005701  p :     0.095334
      px      :     0.050427
      py      :     0.039207
      dz2     :     0.000021  d :     0.000624
      dxz     :     0.000321
      dyz     :    -0.000002
      dx2y2   :     0.000214
      dxy     :     0.000070

  8 H s       :     0.002746  s :     0.002746
      pz      :     0.000252  p :     0.000965
      px      :     0.000226
      py      :     0.000487

  9 H s       :    -0.000002  s :    -0.000002
      pz      :     0.000987  p :     0.001380
      px      :     0.000190
      py      :     0.000203

 10 H s       :     0.001572  s :     0.001572
      pz      :     0.000359  p :     0.001084
      px      :     0.000446
      py      :     0.000279

 11 H s       :     0.003082  s :     0.003082
      pz      :     0.000264  p :     0.000951
      px      :     0.000216
      py      :     0.000471

 12 H s       :     0.002549  s :     0.002549
      pz      :     0.000292  p :     0.001025
      px      :     0.000230
      py      :     0.000503



                     *******************************
                     * LOEWDIN POPULATION ANALYSIS *
                     *******************************

-------------------------------------------
LOEWDIN ATOMIC CHARGES AND SPIN POPULATIONS
-------------------------------------------
   0 Fe:    1.174978    4.450019
   1 O :    0.087045    0.111426
   2 H :    0.179608    0.006238
   3 O :    0.115664    0.141620
   4 H :    0.169122    0.005418
   5 O :    0.105300    0.143931
   6 H :    0.186958    0.005829
   7 O :    0.067003    0.105879
   8 H :    0.186820    0.006208
   9 H :    0.181560    0.004966
  10 H :    0.182281    0.005715
  11 H :    0.188929    0.006366
  12 H :    0.174732    0.006386

----------------------------------------------------
LOEWDIN REDUCED ORBITAL CHARGES AND SPIN POPULATIONS
----------------------------------------------------
CHARGE
  0 Fes       :     6.293850  s :     6.293850
      pz      :     4.117785  p :    12.649645
      px      :     4.265089
      py      :     4.266770
      dz2     :     1.078793  d :     5.876662
      dxz     :     1.088767
      dyz     :     1.111809
      dx2y2   :     1.483282
      dxy     :     1.114012
      f0      :     0.000169  f :     0.004865
      f+1     :     0.000619
      f-1     :     0.000618
      f+2     :     0.000352
      f-2     :     0.000001
      f+3     :     0.001514
      f-3     :     0.001593

  1 O s       :     3.313300  s :     3.313300
      pz      :     1.297553  p :     4.583250
      px      :     1.683749
      py      :     1.601949
      dz2     :     0.002625  d :     0.016405
      dxz     :     0.007916
      dyz     :     0.001845
      dx2y2   :     0.002360
      dxy     :     0.001658

  2 H s       :     0.639530  s :     0.639530
      pz      :     0.074640  p :     0.180862
      px      :     0.055842
      py      :     0.050379

  3 O s       :     3.316040  s :     3.316040
      pz      :     1.647391  p :     4.551240
      px      :     1.596980
      py      :     1.306869
      dz2     :     0.000700  d :     0.017057
      dxz     :     0.001660
      dyz     :     0.008091
      dx2y2   :     0.004401
      dxy     :     0.002204

  4 H s       :     0.650789  s :     0.650789
      pz      :     0.060298  p :     0.180089
      px      :     0.050430
      py      :     0.069361

  5 O s       :     3.280318  s :     3.280318
      pz      :     1.768167  p :     4.601623
      px      :     1.301833
      py      :     1.531622
      dz2     :     0.002172  d :     0.012760
      dxz     :     0.000031
      dyz     :     0.000576
      dx2y2   :     0.003233
      dxy     :     0.006748

  6 H s       :     0.633336  s :     0.633336
      pz      :     0.043759  p :     0.179705
      px      :     0.083873
      py      :     0.052073

  7 O s       :     3.277067  s :     3.277067
      pz      :     1.302445  p :     4.644175
      px      :     1.530695
      py      :     1.811034
      dz2     :     0.003455  d :     0.011756
      dxz     :     0.005923
      dyz     :     0.000147
      dx2y2   :     0.001532
      dxy     :     0.000699

  8 H s       :     0.630627  s :     0.630627
      pz      :     0.082206  p :     0.182553
      px      :     0.053238
      py      :     0.047109

  9 H s       :     0.639175  s :     0.639175
      pz      :     0.044354  p :     0.179264
      px      :     0.081822
      py      :     0.053089

 10 H s       :     0.637472  s :     0.637472
      pz      :     0.051645  p :     0.180246
      px      :     0.048770
      py      :     0.079831

 11 H s       :     0.628412  s :     0.628412
      pz      :     0.082504  p :     0.182660
      px      :     0.053068
      py      :     0.047087

 12 H s       :     0.644103  s :     0.644103
      pz      :     0.074045  p :     0.181165
      px      :     0.056305
      py      :     0.050815


SPIN
  0 Fes       :     0.044279  s :     0.044279
      pz      :    -0.005530  p :    -0.010271
      px      :    -0.002252
      py      :    -0.002490
      dz2     :     0.922974  d :     4.416238
      dxz     :     0.926783
      dyz     :     0.908013
      dx2y2   :     0.742800
      dxy     :     0.915668
      f0      :    -0.000013  f :    -0.000227
      f+1     :    -0.000034
      f-1     :    -0.000032
      f+2     :    -0.000013
      f-2     :     0.000000
      f+3     :    -0.000064
      f-3     :    -0.000071

  1 O s       :     0.010631  s :     0.010631
      pz      :     0.007697  p :     0.099698
      px      :     0.024175
      py      :     0.067826
      dz2     :    -0.000046  d :     0.001097
      dxz     :     0.000085
      dyz     :     0.000529
      dx2y2   :     0.000353
      dxy     :     0.000176

  2 H s       :     0.002432  s :     0.002432
      pz      :     0.000500  p :     0.003805
      px      :     0.000778
      py      :     0.002527

  3 O s       :     0.011975  s :     0.011975
      pz      :     0.050376  p :     0.128756
      px      :     0.073324
      py      :     0.005056
      dz2     :     0.000270  d :     0.000888
      dxz     :     0.000137
      dyz     :     0.000021
      dx2y2   :     0.000058
      dxy     :     0.000402

  4 H s       :     0.001188  s :     0.001188
      pz      :     0.001065  p :     0.004230
      px      :     0.002484
      py      :     0.000680

  5 O s       :     0.014054  s :     0.014054
      pz      :     0.077344  p :     0.128667
      px      :     0.003435
      py      :     0.047888
      dz2     :     0.000602  d :     0.001210
      dxz     :     0.000004
      dyz     :     0.000077
      dx2y2   :     0.000105
      dxy     :     0.000423

  6 H s       :     0.001203  s :     0.001203
      pz      :     0.002556  p :     0.004627
      px      :     0.000490
      py      :     0.001581

  7 O s       :     0.012660  s :     0.012660
      pz      :     0.005448  p :     0.091686
      px      :     0.047899
      py      :     0.038339
      dz2     :    -0.000106  d :     0.001533
      dxz     :     0.000733
      dyz     :     0.000004
      dx2y2   :     0.000792
      dxy     :     0.000109

  8 H s       :     0.002624  s :     0.002624
      pz      :     0.000503  p :     0.003584
      px      :     0.001736
      py      :     0.001345

  9 H s       :     0.000215  s :     0.000215
      pz      :     0.002593  p :     0.004751
      px      :     0.000556
      py      :     0.001602

 10 H s       :     0.001627  s :     0.001627
      pz      :     0.001114  p :     0.004088
      px      :     0.002403
      py      :     0.000571

 11 H s       :     0.002828  s :     0.002828
      pz      :     0.000504  p :     0.003538
      px      :     0.001721
      py      :     0.001313

 12 H s       :     0.002617  s :     0.002617
      pz      :     0.000507  p :     0.003769
      px      :     0.000749
      py      :     0.002512



                      *****************************
                      * MAYER POPULATION ANALYSIS *
                      *****************************

  NA   - Mulliken gross atomic population
  ZA   - Total nuclear charge
  QA   - Mulliken gross atomic charge
  VA   - Mayer's total valence
  BVA  - Mayer's bonded valence
  FA   - Mayer's free valence

  ATOM       NA         ZA         QA         VA         BVA        FA
  0 Fe    24.5056    26.0000     1.4944     6.6582     2.5192     4.1390
  1 O      8.2617     8.0000    -0.2617     2.3985     2.3906     0.0079
  2 H      0.6763     1.0000     0.3237     0.9218     0.9218     0.0000
  3 O      8.2326     8.0000    -0.2326     2.4529     2.4406     0.0123
  4 H      0.6955     1.0000     0.3045     0.9392     0.9392     0.0000
  5 O      8.2958     8.0000    -0.2958     2.4121     2.4001     0.0120
  6 H      0.6571     1.0000     0.3429     0.9110     0.9110     0.0000
  7 O      8.3500     8.0000    -0.3500     2.3257     2.3194     0.0063
  8 H      0.6537     1.0000     0.3463     0.9031     0.9031     0.0000
  9 H      0.6684     1.0000     0.3316     0.9181     0.9181     0.0000
 10 H      0.6691     1.0000     0.3309     0.9193     0.9193     0.0000
 11 H      0.6513     1.0000     0.3487     0.9009     0.9009     0.0000
 12 H      0.6832     1.0000     0.3168     0.9265     0.9265     0.0000

  Mayer bond orders larger than 0.100000
B(  0-Fe,  1-O ) :   0.5900 B(  0-Fe,  3-O ) :   0.6403 B(  0-Fe,  5-O ) :   0.6241 
B(  0-Fe,  7-O ) :   0.5433 B(  1-O ,  2-H ) :   0.8886 B(  1-O , 12-H ) :   0.8933 
B(  3-O ,  4-H ) :   0.9001 B(  3-O , 10-H ) :   0.8807 B(  5-O ,  6-H ) :   0.8731 
B(  5-O ,  9-H ) :   0.8847 B(  7-O ,  8-H ) :   0.8767 B(  7-O , 11-H ) :   0.8748 


-------
TIMINGS
-------

Total SCF time: 0 days 0 hours 0 min 46 sec 

Total time                  ....      46.399 sec
Sum of individual times     ....      41.040 sec  ( 88.4%)

SCF preparation             ....       4.199 sec  (  9.0%)
Fock matrix formation       ....      24.767 sec  ( 53.4%)
  Startup                   ....       0.572 sec  (  2.3% of F)
  Split-RI-J                ....       1.916 sec  (  7.7% of F)
  Chain of spheres X        ....       4.048 sec  ( 16.3% of F)
  XC integration            ....      10.015 sec  ( 40.4% of F)
    XC Preparation          ....       0.000 sec  (  0.0% of XC)
    Basis function eval.    ....       0.039 sec  (  0.4% of XC)
    Density eval.           ....       0.103 sec  (  1.0% of XC)
    XC-Functional eval.     ....       0.025 sec  (  0.2% of XC)
    XC-Potential eval.      ....       0.087 sec  (  0.9% of XC)
Diagonalization             ....       0.000 sec  (  0.0%)
Density matrix formation    ....       1.604 sec  (  3.5%)
Total Energy calculation    ....       1.180 sec  (  2.5%)
Population analysis         ....       0.700 sec  (  1.5%)
Orbital Transformation      ....       1.176 sec  (  2.5%)
Orbital Orthonormalization  ....       0.000 sec  (  0.0%)
DIIS solution               ....       1.437 sec  (  3.1%)
SOSCF solution              ....       5.977 sec  ( 12.9%)
Finished LeanSCF after  46.9 sec

Maximum memory used throughout the entire LEANSCF-calculation: 11.6 MB


           ************************************************************
           *        Program running with 64 parallel MPI-processes    *
           *              working on a common directory               *
           ************************************************************

------------------------------------------------------------------------------
                         ORCA PROPERTY INTEGRAL CALCULATIONS
------------------------------------------------------------------------------

GBWName                                   ... /users/s1155246974/li/fe3_sextet/fe3_sextet.gbw
Number of atoms                           ...     13
Number of basis functions                 ...    127
Max core memory                           ...   2109 MB

Dipole integrals                          ... YES
Quadrupole integrals                      ...  NO
Linear momentum integrals                 ...  NO
Angular momentum integrals                ...  NO
Higher moments length integrals           ...  NO
Higher moments velocity integrals         ...  NO
Kinetic energy integrals                  ...  NO
GIAO right hand sides                     ...  NO
GIAO dipole derivative integrals          ...  NO
SOC integrals                             ...  NO
EPR diamagnetic integrals (GIAO)          ...  NO
EPR gauge integrals                       ...  NO
Field gradient integrals                  ...  NO (   0 nuclei)
Spin-dipole/Fermi contact integrals       ...  NO (   0 nuclei)
Contact density integrals                 ...  NO (   0 nuclei)
Nucleus-orbit integrals                   ...  NO (   0 nuclei)
Geometric perturbations                   ...  NO (  13 nuclei)

Choice of electric origin   ... Center of mass
Position of electric origin ... ( -4.0090, -1.7793, -0.0135) 
Choice of magnetic origin   ... GIAO
Position of magnetic origin ... (  0.0000,  0.0000,  0.0000) 

Calculating integrals                     ... Electric Dipole (Length)     done (  0.2 sec)

Property integrals calculated in   0.2 sec

Maximum memory used throughout the entire PROPINT-calculation: 9.6 MB

-------------------------   --------------------
FINAL SINGLE POINT ENERGY     -1567.524797724401
-------------------------   --------------------



           ************************************************************
           *        Program running with 64 parallel MPI-processes    *
           *              working on a common directory               *
           ************************************************************
------------------------------------------------------------------------------
                         ORCA SCF GRADIENT CALCULATION
------------------------------------------------------------------------------

Nuc. rep. gradient        (SHARK) ... done (  0.0 sec)
HCore & Overlap gradient  (SHARK) ... done (  0.5 sec)
Split-RIJ-J gradient      (SHARK) ... done (  3.2 sec)
done (  0.9 sec)
XC gradient                       ... done (  0.4 sec)

------------------
CARTESIAN GRADIENT
------------------

   1   Fe  :    0.007903459    0.016767577   -0.015140513
   2   O   :    0.013928687   -0.025206360    0.003228435
   3   H   :   -0.008378092   -0.033253856   -0.020290871
   4   O   :    0.012458039    0.007602376    0.004596991
   5   H   :    0.036262576    0.013315933    0.007936989
   6   O   :    0.006083511   -0.001259625    0.001510173
   7   H   :   -0.013225227    0.035072892    0.000647005
   8   O   :   -0.010941410    0.004776156    0.001867883
   9   H   :   -0.037987395   -0.000817001    0.012815549
  10   H   :    0.007755888    0.038833150   -0.004506165
  11   H   :    0.032713977   -0.024318771    0.003579336
  12   H   :   -0.037509861    0.002312434   -0.014107055
  13   H   :   -0.009064153   -0.033824905    0.017862241

Difference to translation invariance:
           :   -0.0000000004    0.0000000001    0.0000000002

Difference to rotation invariance:
           :   -0.0004107799   -0.0008399915   -0.0006377440

Norm of the Cartesian gradient     ...    0.1200401686
RMS gradient                       ...    0.0192218106
MAX gradient                       ...    0.0388331504

-------
TIMINGS
-------

Total SCF gradient time     ....        5.150 sec

Densities                   ....       0.016 sec  (  0.3%)
One electron gradient       ....       0.525 sec  ( 10.2%)
RI-J Coulomb gradient       ....       3.178 sec  ( 61.7%)
COSX gradient               ....       0.943 sec  ( 18.3%)
XC gradient                 ....       0.409 sec  (  7.9%)

Maximum memory used throughout the entire SCFGRAD-calculation: 16.2 MB
------------------------------------------------------------------------------
                         ORCA GEOMETRY RELAXATION STEP
------------------------------------------------------------------------------

Reading the OPT-File                    .... done
Getting information on internals        .... done
Copying old internal coords+grads       .... done
Making the new internal coordinates     .... (2022 redundants) done
Validating the new internal coordinates .... (2022 redundants) done
Calculating the B-matrix                .... done
Calculating the G,G- and P matrices     .... done
Transforming gradient to internals      .... done
Projecting the internal gradient        .... done
Number of atoms                         ....  13
Number of internal coordinates          ....  52
Current Energy                          .... -1567.524797724 Eh
Current gradient norm                   ....     0.120040169 Eh/bohr
Maximum allowed component of the step   ....  0.300
Current trust radius                    ....  0.300
Evaluating the initial hessian          ....  (Almloef) done
Projecting the Hessian                  .... done
Forming the augmented Hessian           .... done
Diagonalizing the augmented Hessian     .... done
Last element of RFO vector              ....  0.945307951
Lowest eigenvalues of augmented Hessian:
 -0.059630519  0.010000000  0.010000000  0.010000000  0.010000000
Length of the computed step             ....  0.345050743
Warning: the length of the step is outside the trust region - taking restricted step instead
The input lambda is                     ....     0.009000
   iter:   5  x=    0.002115  g=  665.927790 f(x)=     1.821236
   iter:  10  x=   -0.082319  g=    1.219852 f(x)=     0.039432
   iter:  15  x=   -0.104621  g=    0.452708 f(x)=     0.000000
The output lambda is                    ....    -0.104621 (15 iterations)
The final length of the internal step   ....  0.300000000
Converting the step to Cartesian space:
 Initial RMS(Int)=    0.0416025147
Transforming coordinates:
 Iter   0:  RMS(Cart)=    0.0873754384 RMS(Int)=    0.0419305382
 Iter   5:  RMS(Cart)=    0.0000000857 RMS(Int)=    0.0000000754
done
Storing new coordinates                 .... done

                                .--------------------.
          ----------------------|Geometry convergence|-------------------------
          Item                value                   Tolerance       Converged
          ---------------------------------------------------------------------
          RMS gradient        0.0294744475            0.0001000000      NO
          MAX gradient        0.0922829303            0.0003000000      NO
          RMS step            0.0416025147            0.0020000000      NO
          MAX step            0.0845374538            0.0040000000      NO
          -------------------------------------------------------------------------
          ........................................................
          Max(Bonds)      0.0384      Max(Angles)    4.84
          Max(Dihed)        3.37      Max(Improp)    0.00
          ---------------------------------------------------------------------

The optimization has not yet converged - more geometry cycles are needed


    ---------------------------------------------------------------------------
                         Redundant Internal Coordinates
                            (Angstroem and degrees)

        Definition                    Value    dE/dq     Step     New-Value
    ----------------------------------------------------------------------------
     1. B(O   1,Fe  0)                1.8200 -0.092283  0.0384    1.8584   
     2. B(H   2,O   1)                0.9600 -0.031592  0.0268    0.9868   
     3. B(O   3,Fe  0)                1.8200 -0.081424  0.0339    1.8539   
     4. B(H   4,O   3)                0.9600 -0.026690  0.0226    0.9826   
     5. B(O   5,Fe  0)                1.8200 -0.072643  0.0302    1.8502   
     6. B(H   6,O   5)                0.9600 -0.028990  0.0246    0.9846   
     7. B(O   7,Fe  0)                1.8200 -0.086436  0.0360    1.8560   
     8. B(H   8,O   7)                0.9600 -0.030083  0.0255    0.9855   
     9. B(H   9,O   5)                0.9600 -0.026261  0.0222    0.9822   
    10. B(H  10,O   3)                0.9600 -0.032970  0.0279    0.9879   
    11. B(H  11,O   7)                0.9600 -0.031135  0.0264    0.9864   
    12. B(H  12,O   1)                0.9600 -0.030152  0.0255    0.9855   
    13. A(O   1,Fe  0,O   3)           90.00  0.014773   -1.12     88.88   
    14. A(O   5,Fe  0,O   7)           90.00  0.006802   -0.43     89.57   
    15. A(O   1,Fe  0,O   7)           90.00 -0.015880    1.22     91.22   
    16. A(O   3,Fe  0,O   5)           90.00 -0.005696    0.33     90.33   
    17. A(Fe  0,O   1,H  12)          109.47 -0.033597    4.04    113.51   
    18. A(H   2,O   1,H  12)          109.47  0.024266   -1.50    107.97   
    19. A(Fe  0,O   1,H   2)          109.47 -0.031600    3.84    113.31   
    20. A(H   4,O   3,H  10)          109.47  0.023991   -1.22    108.25   
    21. A(Fe  0,O   3,H   4)          109.47 -0.040658    4.84    114.31   
    22. A(Fe  0,O   3,H  10)          109.47 -0.029785    3.75    113.22   
    23. A(H   6,O   5,H   9)          120.00  0.032314   -3.91    116.09   
    24. A(Fe  0,O   5,H   6)          120.00 -0.010801    1.41    121.41   
    25. A(Fe  0,O   5,H   9)          120.00 -0.021513    2.49    122.49   
    26. A(H   8,O   7,H  11)          120.00  0.031342   -3.79    116.21   
    27. A(Fe  0,O   7,H  11)          120.00 -0.014593    1.79    121.79   
    28. A(Fe  0,O   7,H   8)          120.00 -0.016749    2.00    122.00   
    29. D(H  12,O   1,Fe  0,O   3)   -119.98 -0.006606    2.02   -117.95   
    30. D(H  12,O   1,Fe  0,O   7)     60.02 -0.003845    1.09     61.12   
    31. D(H   2,O   1,Fe  0,O   3)    120.02  0.003599   -0.97    119.05   
    32. D(H   2,O   1,Fe  0,O   7)    -59.98  0.006361   -1.90    -61.88   
    33. D(H   4,O   3,Fe  0,O   5)    -33.64 -0.003858    0.39    -33.25   
    34. D(H   4,O   3,Fe  0,O   1)    146.36 -0.005845    1.38    147.73   
    35. D(H  10,O   3,Fe  0,O   1)     26.36  0.007909   -2.39     23.97   
[...]

DFT components:
N(Alpha)           :       33.999996258028 electrons
N(Beta)            :       28.999996457482 electrons
N(Total)           :       62.999992715510 electrons
E(XC)              :      -43.701422829845 Eh       

---------------
SCF CONVERGENCE
---------------

  Last Energy change         ...    2.4293e-09  Tolerance :   1.0000e-08
  Last MAX-Density change    ...    4.0129e-06  Tolerance :   1.0000e-07
  Last RMS-Density change    ...    1.7549e-06  Tolerance :   5.0000e-09
  Last DIIS Error            ...    5.5098e-04  Tolerance :   5.0000e-07
  Last Orbital Gradient      ...    2.1303e-06  Tolerance :   1.0000e-05
  Last Orbital Rotation      ...    1.0834e-05  Tolerance :   1.0000e-05


----------------------
UHF SPIN CONTAMINATION
----------------------

Warning: in a DFT calculation there is little theoretical justification to 
         calculate <S**2> as in Hartree-Fock theory. We will do it anyways
         but you should keep in mind that the values have only limited relevance

Expectation value of <S**2>     :     8.759007
Ideal value S*(S+1) for S=2.5   :     8.750000
Deviation                       :     0.009007

Total SCF time: 0 days 0 hours 0 min 47 sec 
Finished LeanSCF after  48.2 sec

Maximum memory used throughout the entire LEANSCF-calculation: 13.4 MB


           ************************************************************
           *        Program running with 64 parallel MPI-processes    *
           *              working on a common directory               *
           ************************************************************

------------------------------------------------------------------------------
                         ORCA PROPERTY INTEGRAL CALCULATIONS
------------------------------------------------------------------------------

GBWName                                   ... /users/s1155246974/li/fe3_sextet/fe3_sextet.gbw
Number of atoms                           ...     13
Number of basis functions                 ...    127
Max core memory                           ...   2109 MB

Dipole integrals                          ... YES
Quadrupole integrals                      ...  NO
Linear momentum integrals                 ...  NO
Angular momentum integrals                ...  NO
Higher moments length integrals           ...  NO
Higher moments velocity integrals         ...  NO
Kinetic energy integrals                  ...  NO
GIAO right hand sides                     ...  NO
GIAO dipole derivative integrals          ...  NO
SOC integrals                             ...  NO
EPR diamagnetic integrals (GIAO)          ...  NO
EPR gauge integrals                       ...  NO
Field gradient integrals                  ...  NO (   0 nuclei)
Spin-dipole/Fermi contact integrals       ...  NO (   0 nuclei)
Contact density integrals                 ...  NO (   0 nuclei)
Nucleus-orbit integrals                   ...  NO (   0 nuclei)
Geometric perturbations                   ...  NO (  13 nuclei)

Choice of electric origin   ... Center of mass
Position of electric origin ... ( -3.8492, -1.8098, -0.1196) 
Choice of magnetic origin   ... GIAO
Position of magnetic origin ... (  0.0000,  0.0000,  0.0000) 

Calculating integrals                     ... Electric Dipole (Length)     done (  0.2 sec)

Property integrals calculated in   0.2 sec

Maximum memory used throughout the entire PROPINT-calculation: 9.5 MB

-------------------------   --------------------
FINAL SINGLE POINT ENERGY     -1567.662178230474
-------------------------   --------------------



           ************************************************************
           *        Program running with 64 parallel MPI-processes    *
           *              working on a common directory               *
           ************************************************************
------------------------------------------------------------------------------
                         ORCA SCF GRADIENT CALCULATION
------------------------------------------------------------------------------

Nuc. rep. gradient        (SHARK) ... done (  0.0 sec)
HCore & Overlap gradient  (SHARK) ... done (  0.0 sec)
Split-RIJ-J gradient      (SHARK) ... done (  0.6 sec)
done (  2.1 sec)
XC gradient                       ... done (  0.6 sec)

------------------
CARTESIAN GRADIENT
------------------

   1   Fe  :    0.000010951    0.000025186    0.000054875
   2   O   :    0.000221593   -0.000026919    0.000202427
   3   H   :    0.000120050    0.000181662   -0.000218608
   4   O   :   -0.000480950   -0.000101177   -0.000233475
   5   H   :    0.000008657    0.000158326    0.000168135
   6   O   :    0.000054607   -0.000075252    0.000100765
   7   H   :   -0.000193549    0.000014966   -0.000024694
   8   O   :    0.000401332   -0.000063406   -0.000030034
   9   H   :   -0.000185885    0.000088295    0.000114479
  10   H   :    0.000270774   -0.000006003   -0.000006351
  11   H   :    0.000202163   -0.000100496    0.000273453
  12   H   :   -0.000179876    0.000054138   -0.000438115
  13   H   :   -0.000249869   -0.000149320    0.000037142

Difference to translation invariance:
           :    0.0000000001    0.0000000000   -0.0000000000

Difference to rotation invariance:
           :   -0.0001585471    0.0043920856    0.0005426866

Norm of the Cartesian gradient     ...    0.0011533710
RMS gradient                       ...    0.0001846872
MAX gradient                       ...    0.0004809495

-------
TIMINGS
-------

Total SCF gradient time     ....        3.397 sec

Densities                   ....       0.002 sec  (  0.1%)
One electron gradient       ....       0.043 sec  (  1.3%)
RI-J Coulomb gradient       ....       0.599 sec  ( 17.6%)
COSX gradient               ....       2.122 sec  ( 62.5%)
XC gradient                 ....       0.629 sec  ( 18.5%)

Maximum memory used throughout the entire SCFGRAD-calculation: 16.2 MB
------------------------------------------------------------------------------
                         ORCA GEOMETRY RELAXATION STEP
------------------------------------------------------------------------------

Reading the OPT-File                    .... done
Getting information on internals        .... done
Copying old internal coords+grads       .... done
Making the new internal coordinates     .... (2022 redundants) done
Validating the new internal coordinates .... (2022 redundants) done
Calculating the B-matrix                .... done
Calculating the G,G- and P matrices     .... done
Transforming gradient to internals      .... done
Projecting the internal gradient        .... done
Number of atoms                         ....  13
Number of internal coordinates          ....  52
Current Energy                          .... -1567.662178230 Eh
Current gradient norm                   ....     0.001153371 Eh/bohr
Maximum allowed component of the step   ....  0.300
Current trust radius                    ....  0.100
Updating the Hessian (BFGS)             .... done
Forming the augmented Hessian           .... done
Diagonalizing the augmented Hessian     .... done
Last element of RFO vector              ....  0.999612421
Lowest eigenvalues of augmented Hessian:
 -0.000002413  0.000592911  0.001002696  0.002876172  0.004073171
Length of the computed step             ....  0.027849762
The final length of the internal step   ....  0.027849762
Converting the step to Cartesian space:
 Initial RMS(Int)=    0.0038620672
Transforming coordinates:
 Iter   0:  RMS(Cart)=    0.0028824165 RMS(Int)=    0.0038586557
done
Storing new coordinates                 .... done
The predicted energy change is          ....    -0.000001207
Previously predicted energy change      ....    -0.000001431
Actually observed energy change         ....    -0.000001250
Ratio of predicted to observed change   ....     0.873847823
New trust radius                        ....     0.150000000

                                .--------------------.
          ----------------------|Geometry convergence|-------------------------
          Item                value                   Tolerance       Converged
          ---------------------------------------------------------------------
          Energy change      -0.0000012504            0.0000050000      YES
          RMS gradient        0.0001246394            0.0001000000      NO
          MAX gradient        0.0002724514            0.0003000000      YES
          RMS step            0.0038620672            0.0020000000      NO
          MAX step            0.0117912693            0.0040000000      NO
          -------------------------------------------------------------------------
          ........................................................
          Max(Bonds)      0.0005      Max(Angles)    0.08
          Max(Dihed)        0.68      Max(Improp)    0.00
          ---------------------------------------------------------------------

The optimization has not yet converged - more geometry cycles are needed


    ---------------------------------------------------------------------------
                         Redundant Internal Coordinates
                            (Angstroem and degrees)

        Definition                    Value    dE/dq     Step     New-Value
    ----------------------------------------------------------------------------
     1. B(O   1,Fe  0)                1.9392 -0.000014  0.0002    1.9393   
     2. B(H   2,O   1)                0.9923 -0.000216  0.0000    0.9923   
     3. B(O   3,Fe  0)                1.9417  0.000025 -0.0002    1.9415   
     4. B(H   4,O   3)                0.9919 -0.000206  0.0000    0.9919   
     5. B(O   5,Fe  0)                1.9405  0.000110 -0.0001    1.9405   
     6. B(H   6,O   5)                0.9924 -0.000203  0.0000    0.9925   
     7. B(O   7,Fe  0)                1.9414  0.000250 -0.0005    1.9409   
     8. B(H   8,O   7)                0.9920 -0.000225  0.0001    0.9921   
     9. B(H   9,O   5)                0.9922 -0.000178  0.0000    0.9922   
    10. B(H  10,O   3)                0.9921 -0.000272  0.0001    0.9921   
    11. B(H  11,O   7)                0.9919 -0.000228  0.0001    0.9920   
    12. B(H  12,O   1)                0.9921 -0.000220  0.0000    0.9921   
    13. A(O   1,Fe  0,O   3)          111.44 -0.000153    0.05    111.50   
    14. A(O   5,Fe  0,O   7)          110.67  0.000143    0.04    110.71   
    15. A(O   1,Fe  0,O   7)          108.02  0.000057   -0.02    108.00   
    16. A(O   3,Fe  0,O   5)          107.77 -0.000058   -0.01    107.76   
    17. A(Fe  0,O   1,H  12)          127.55  0.000068   -0.03    127.53   
    18. A(H   2,O   1,H  12)          105.44 -0.000213    0.03    105.47   
    19. A(Fe  0,O   1,H   2)          127.01  0.000145   -0.02    126.98   
    20. A(H   4,O   3,H  10)          105.60  0.000106    0.02    105.61   
    21. A(Fe  0,O   3,H   4)          127.39  0.000050   -0.05    127.34   
    22. A(Fe  0,O   3,H  10)          126.98 -0.000154    0.03    127.02   
    23. A(H   6,O   5,H   9)          105.48 -0.000135   -0.00    105.48   
    24. A(Fe  0,O   5,H   6)          126.81  0.000095    0.03    126.84   
    25. A(Fe  0,O   5,H   9)          127.70  0.000039   -0.02    127.68   
    26. A(H   8,O   7,H  11)          105.57  0.000008   -0.08    105.50   
    27. A(Fe  0,O   7,H  11)          128.05  0.000096    0.03    128.08   
    28. A(Fe  0,O   7,H   8)          126.35 -0.000103    0.04    126.39   
    29. D(H  12,O   1,Fe  0,O   3)    -71.18 -0.000021   -0.27    -71.44   
    30. D(H  12,O   1,Fe  0,O   7)     48.07 -0.000087   -0.36     47.71   
    31. D(H   2,O   1,Fe  0,O   3)    109.10 -0.000003   -0.02    109.08   
    32. D(H   2,O   1,Fe  0,O   7)   -131.66 -0.000069   -0.11   -131.77   
    33. D(H   4,O   3,Fe  0,O   5)    -36.95 -0.000025    0.35    -36.60   
    34. D(H   4,O   3,Fe  0,O   1)   -158.12  0.000079    0.35   -157.77   
    35. D(H  10,O   3,Fe  0,O   1)     19.47  0.000137    0.22     19.69   
    36. D(H  10,O   3,Fe  0,O   5)    140.64  0.000033    0.23    140.86   
    37. D(H   6,O   5,O   1,H  12)     75.24  0.000109   -0.63     74.61   
    38. D(H   6,O   5,O   1,H   2)    -86.01  0.000004   -0.00    -86.02   
    39. D(H   9,O   5,Fe  0,O   7)   -164.85 -0.000032   -0.04   -164.89   
    40. D(H   9,O   5,Fe  0,O   3)    -46.22  0.000003   -0.11    -46.33   
    41. D(H   6,O   5,Fe  0,O   7)     14.32 -0.000101   -0.00     14.31   
    42. D(H   9,O   5,O   1,H   2)     47.92 -0.000022   -0.05     47.87   
    43. D(H   6,O   5,Fe  0,O   3)    132.95 -0.000066   -0.08    132.88   
    44. D(H   9,O   5,O   1,H  12)   -150.83  0.000083   -0.68   -151.50   
    45. D(H  11,O   7,O   3,H  10)     60.70 -0.000115    0.51     61.21   
    46. D(H   8,O   7,O   3,H  10)    -86.24 -0.000043    0.36    -85.87   
    47. D(H   8,O   7,O   3,H   4)     47.75 -0.000019    0.43     48.18   
    48. D(H  11,O   7,Fe  0,O   5)    -81.02  0.000005    0.23    -80.79   
    49. D(H  11,O   7,Fe  0,O   1)     39.84  0.000155    0.24     40.08   
    50. D(H  11,O   7,O   3,H   4)   -165.32 -0.000091    0.58   -164.74   
    51. D(H   8,O   7,Fe  0,O   5)    101.30 -0.000026    0.17    101.46   
    52. D(H   8,O   7,Fe  0,O   1)   -137.84  0.000123    0.18   -137.66   
    ----------------------------------------------------------------------------

Geometry step timings:
Preparation and reading OPT file:      0.000 s ( 0.053 %)
Internal coordinates            :      0.000 s ( 0.025 %)
B/P matrices and projection     :      0.036 s (25.016 %)
Hessian update/contruction      :      0.003 s ( 2.175 %)
Making the step                 :      0.002 s ( 1.127 %)
Converting the step to Cartesian:      0.001 s ( 0.540 %)
Storing new data                :      0.001 s ( 0.771 %)
Checking convergence            :      0.001 s ( 0.572 %)
Final printing                  :      0.099 s (69.720 %)
Total time                      :      0.142 s

Time for energy+gradient        :     67.634 s
Time for complete geometry iter :     81.527 s




    ----------------------------------------------------------------------------
                                   ERROR !!!
       The optimization did not converge but reached the maximum 
       number of optimization cycles.
       As a subsequent Frequencies calculation has been requested
       ORCA will abort at this point of the run.
       Please restart the calculation with the lowest energy geometry and/or
       a larger maxiter for the geometry optimization.
    ----------------------------------------------------------------------------



--------------------------------
SUGGESTED CITATIONS FOR THIS RUN
--------------------------------

Below you find a list of papers that are relevant to this ORCA run
We neither can nor want to force you to cite these papers, but we appreciate if you do
You receive ORCA, which is the product of decades of hard work by many enthusiastic individuals, for free
The only thing we kindly ask in return is that you cite our papers,
We deeply appreciate it, if you show your appreciation for ORCA by not just citing the generic ORCA reference.

Please note that relegating all ORCA citations to the supporting information does *not* help us.
SI sections are not indexed - citations you put there will not count into any citation statistics
But we need these citations in order to attract the funding resources that allow us to do what we are doing

Therefore, if you are a happy ORCA user, please consider citing a few of the papers listed below in the main body of your paper

In addition to the list printed below, the program has created the file /users/s1155246974/li/fe3_sextet/fe3_sextet.bibtex that contains the list in bibtex format
You can import this file easily into all common literature databanks and citation aid programs


List of essential papers. We consider these as the minimum necessary citations

  1. Neese, F.
     Software update: the ORCA program system, version 6.0
     WIRES Comput. Molec. Sci. 2025 15(1), e70019
     doi.org/10.1002/wcms.7019

List of papers to cite with high priority. The work reported in these papers was absolutely
necessary for this run to complete.
Our perspective: the developers of density functionals and basis sets usually get cited in chemistry papers
Good! But without the algorithms to do something with them, the functionals or basis sets would not do anything.
Hence, in our opinion, the algorithm design and method developments papers are equally worthy of getting cited

  1. Neese, F.
     An improvement of the resolution of the identity approximation for the formation of the Coulomb matrix
     J. Comp. Chem. 2003 24(14), 1740-1747
     doi.org/10.1002/jcc.10318
  2. Neese, F.; Wennmohs, F.; Hansen, A.; Becker, U.
     Efficient, approximate and parallel Hartree-Fock and hybrid DFT calculations. A 'chain-of-spheres' algorithm for the Hartree-Fock exchange
     Chem. Phys. 2009 356(1-3), 98-109
     doi.org/10.1016/j.chemphys.2008.10.036
  3. Bykov, D.; Petrenko, T.; Izsak, R.; Kossmann, S.; Becker, U.; Valeev, E.; Neese, F.
     Efficient implementation of the analytic second derivatives of Hartree-Fock and hybrid DFT energies: a detailed analysis of different approximations
     Molec. Phys. 2015 113 , 1961-1977
     doi.org/10.1080/00268976.2015.1025114
  4. Helmich-Paris, B.; de Souza, B.; Neese, F.; Izsák, R.
     An improved chain of spheres for exchange algorithm
     J. Chem. Phys. 2021 155(10), 104109
     doi.org/10.1063/5.0058766
  5. Neese, F.
     The SHARK Integral Generation and Digestion System
     J. Comp. Chem. 2022 44(3), 381
     doi.org/10.1002/jcc.26942

List of suggested additional citations. These are papers that are important in the 'surrounding' of 
of this run, or papers that preceded the highly important papers. If you like your results we are grateful for a citation.

  1. Izsak, R.; Neese, F.
     An overlap fitted chain of spheres exchange method
     J. Chem. Phys. 2011 135 , 144105
     doi.org/10.1063/1.3646921
  2. Izsak, R.; Hansen, A.; Neese, F.
     The resolution of identity and chain of spheres approximations for the LPNO-CCSD singles Fock term
     Molec. Phys. 2012 110 , 2413-2417
     doi.org/10.1080/00268976.2012.687466
  3. Neese, F.
     The ORCA program system
     WIRES Comput. Molec. Sci. 2012 2(1), 73-78
     doi.org/10.1002/wcms.81
  4. Izsak, R.; Neese, F.; Klopper, W.
     Robust fitting techniques in the chain of spheres approximation to the Fock exchange: The role of the complementary space
     J. Chem. Phys. 2013 139 , 
     doi.org/10.1063/1.4819264
  5. Neese, F.
     Software update: the ORCA program system, version 4.0
     WIRES Comput. Molec. Sci. 2018 8(1), 1-6
     doi.org/10.1002/wcms.1327
  6. Neese, F.; Wennmohs, F.; Becker, U.; Riplinger, C.
     The ORCA quantum chemistry program package
     J. Chem. Phys. 2020 152(22), 224108
     doi.org/10.1063/5.0004608
  7. Neese, F.
     Software update: The ORCA program system—Version 5.0
     WIRES Comput. Molec. Sci. 2022 12(1), e1606
     doi.org/10.1002/wcms.1606

List of optional additional citations

  1. Neese, F.
     Approximate second-order SCF convergence for spin unrestricted wavefunctions
     Chem. Phys. Lett. 2000 325(1-3), 93-98
     doi.org/10.1016/s0009-2614(00)00662-x

Timings for individual modules:

Sum of individual times          ...     3651.617 sec (=  60.860 min)
Startup calculation              ...      484.418 sec (=   8.074 min)  13.3 %
SCF iterations                   ...     2817.172 sec (=  46.953 min)  77.1 %
Property integrals               ...      120.657 sec (=   2.011 min)   3.3 %
SCF Gradient evaluation          ...      227.384 sec (=   3.790 min)   6.2 %
Geometry relaxation              ...        1.985 sec (=   0.033 min)   0.1 %
                             ****ORCA TERMINATED NORMALLY****
TOTAL RUN TIME: 0 days 1 hours 12 minutes 38 seconds 412 msec
