
                                 *****************
                                 * O   R   C   A *
                                 *****************

                                            #,                                       
                                            ###                                      
                                            ####                                     
                                            #####                                    
                                            ######                                   
                                           ########,                                 
                                     ,,################,,,,,                         
                               ,,#################################,,                 
                          ,,##########################################,,             
                       ,#########################################, ''#####,          
                    ,#############################################,,   '####,        
                  ,##################################################,,,,####,       
                ,###########''''           ''''###############################       
              ,#####''   ,,,,##########,,,,          '''####'''          '####       
            ,##' ,,,,###########################,,,                        '##       
           ' ,,###''''                  '''############,,,                           
         ,,##''                                '''############,,,,        ,,,,,,###''
      ,#''                                            '''#######################'''  
     '                                                          ''''####''''         
             ,#######,   #######,   ,#######,      ##                                
            ,#'     '#,  ##    ##  ,#'     '#,    #''#        ,####,    ,#,          
            ##       ##  ##   ,#'  ##            #'  '#       #'       ,# #          
            ##       ##  #######   ##           ,######,      #####,      #          
            '#,     ,#'  ##    ##  '#,     ,#' ,#      #,     #,   #      #          
             '#######'   ##     ##  '#######'  #'      '#     '####' #    #          



                #########################################################
                #                        -***-                          #
                #          Department of theory and spectroscopy        #
                #                                                       #
                #                      Frank Neese                      #
                #                                                       #
                #     Directorship, Architecture, Infrastructure        #
                #                    SHARK, DRIVERS                     #
                #        Core code/Algorithms in most modules           #
                #                                                       #
                #        Max Planck Institute fuer Kohlenforschung      #
                #                Kaiser Wilhelm Platz 1                 #
                #                 D-45470 Muelheim/Ruhr                 #
                #                      Germany                          #
                #                                                       #
                #                  All rights reserved                  #
                #                        -***-                          #
                #########################################################


                         Program Version 6.1.0  -  RELEASE   -
                                (GIT: $679e74b$)
                          ($2025-06-10 18:02:51 +0200$)


 With contributions from (in alphabetic order):
[Max-Planck-Institut fuer Kohlenforschung]                               
  Daniel Aravena         : Magnetic Suceptibility                        
  Michael Atanasov       : Ab Initio Ligand Field Theory (pilot matlab implementation)
  Alexander A. Auer      : GIAO ZORA, VPT2 properties, NMR spectrum      
  Ute Becker             : All parallelization in ORCA, NUMFREQ, NUMCALC 
  Giovanni Bistoni       : ED, misc. LED, open-shell LED, HFLD           
  Dmytro Bykov           : pre 5.0 version of the SCF Hessian            
  Marcos Casanova-Páez   : Triplet and SCS-CIS(D). UHF-(DLPNO)-IP/EA/STEOM-CCSD. UHF-CVS-IP/STEOM-CCSD   
  Vijay G. Chilkuri      : MRCI spin determinant printing, contributions to CSF-ICE 
  Pauline Colinet        : FMM embedding                                 
  Dipayan Datta          : RHF DLPNO-CCSD density                        
  Achintya Kumar Dutta   : EOM-CC, STEOM-CC                              
  Nicolas Foglia         : Exact transition moments, OPA infrastructure, MCD improvements    
  Dmitry Ganyushin       : Spin-Orbit,Spin-Spin,Magnetic field MRCI      
  Miquel Garcia-Rates    : C-PCM and meta-GGA Hessian, CCSD/C-PCM, Gaussian charge scheme 
  Tiago L. C. Gouveia    : GS-ROHF, GS-ROCIS                             
  Yang Guo               : DLPNO-NEVPT2, F12-NEVPT2, CIM, IAO-localization        
  Andreas Hansen         : Spin unrestricted coupled pair/coupled cluster methods 
  Ingolf Harden          : AUTO-CI MPn and infrastructure                
  Benjamin Helmich-Paris : MC-RPA, TRAH-(SCF,CASSCF), AVAS, COSX integrals, SCF dyn. polar., MC-PDFT, srDFT 
  Lee Huntington         : MR-EOM, pCC                                   
  Robert Izsak           : Overlap fitted RIJCOSX, COSX-SCS-MP3, EOM     
  Riya Kayal             : Wick's Theorem for AUTO-CI, AUTO-CI UHF-CCSDT 
  Emily Kempfer          : AUTO-CI RHF CISDT and CCSDT, approximate NEVPT4
  Christian Kollmar      : KDIIS, OOCD, Brueckner-CCSD(T), CCSD density, CASPT2, CASPT2-K, improved NEVPT2 
  Axel Koslowski         : Symmetry handling                             
  Simone Kossmann        : meta-GGA functionals, TD-DFT gradient, OOMP2, (MP2 Hessian; deprecated post 5.0) 
  Lucas Lang             : DCDCAS, Hyperfine gauge corrections, ICE-SOC+SSC
  Marvin Lechner         : AUTO-CI (C++ implementation), FIC-MRCC        
  Spencer Leger          : CASSCF response                               
  Dagmar Lenk            : GEPOL surface, SMD, ORCA-2-JSON               
  Dimitrios Liakos       : Extrapolation schemes; Compound Job, Property file
  Dimitrios Manganas     : Further ROCIS development; embedding schemes. LFT, Crystal Embedding 
  Dimitrios Pantazis     : SARC Basis sets                               
  Anastasios Papadopoulos: AUTO-CI, single reference methods and gradients 
  Taras Petrenko         : pre 6.0 DFT Hessian and TD-DFT gradient,  ECA, NRVS 
  Petra Pikulova         : Analytic Raman intensities                    
  Peter Pinski           : DLPNO-MP2, DLPNO-MP2 Gradient                 
  Shashank Vittal Rao    : ES-AILFT, MagRelax                            
  Christoph Reimann      : Effective Core Potentials                     
  Marius Retegan         : Local ZFS, SOC                                
  Christoph Riplinger    : Optimizer, TS searches, QM/MM, DLPNO-CCSD(T), (RO)-DLPNO pert. Triples 
  Michael Roemelt        : Original ROCIS implementation, recursive CI coupling coefficients
  Masaaki Saitow         : Open-shell DLPNO-CCSD energy and density      
  Barbara Sandhoefer     : DKH picture change effects                    
  Yorick L. A. Schmerwitz: GMF and freeze-and-release deltaSCF, NEB S-IDPP initial path                    
  Kantharuban Sivalingam : CASSCF convergence/infrastructure, NEVPT2, NEVPT3, NEVPT4(SD), FIC-MRCI and CEPA variants
  Bernardo de Souza      : ESD, SOC TD-DFT                               
  Georgi L. Stoychev     : AutoAux, RI-MP2 NMR, DLPNO-MP2 response, X2C  
  Van Anh Tran           : RI-MP2 g-tensors                              
  Willem Van den Heuvel  : Paramagnetic NMR                              
  Zikuan Wang            : NOTCH, Electric field optimization            
  Frank Wennmohs         : Technical directorship and infrastructure     
  Hang Xu                : AUTO-CI-Response properties                   
                                                                         
[FACCTs GmbH]                                                            
  Markus Bursch, Nicolas Foglia, Miquel Garcia-Rates, Ingolf Harden, Hagen Neugebauer, Anastasios Papadopoulos, 
  Christoph Riplinger, Bernardo de Souza, Georgi L. Stoychev                                                    
                                                                 
  APM, various basis sets, CI-OPT, improved COSX, DLPNO-Multilevel,           
  DOCKER, DRACO, updates on ESD, Fragmentator, GOAT, IRC, LR-CPCM, L-BFGS, MBIS, meta-GGA TD-DFT gradient, ML-optimized integration grids, 
  MM, NACMEs, nearIR, NEB, NEB-TS, NL-DFT gradient (VV10), 2- and 3-layer-ONIOM, interface openCOSMO-RS, QMMM,   
  Crystal-QMMM, RESP, rigid body optimization, SF, symmetry and pop. for TD-DFT, various functionals, SOLVATOR                                   
                                                                         
[Other institutions]                                                     
  V. Asgeirsson          : NEB                                           
  Christoph Bannwarth    : sTDA-DFT, sTD-DFT, PBEh-3c, B97-3c, D3        
  Giovanni Bistoni       : ETS/NOCV, ADLD/ADEX, COVALED                  
  Martin Brehm           : Molecular dynamics                            
  Ronald Cardenas        : ETS/NOCV                                      
  Martina Colucci        : COVALED                                       
  Sebastian Ehlert       : rSCAN, r2SCAN, r2SCAN-3c, D4, dhf basis sets  
  Marvin Friede          : D4 for Fr, Ra, Ac-Lr                          
  Lars Goerigk           : TD-DFT with DH, B97 family of functionals     
  Stefan Grimme          : VdW corrections, initial TS optimization, DFT functionals, gCP, sTDA/sTD-DF 
  Waldemar Hujo          : DFT-NL                                        
  H. Jonsson             : NEB                                           
  Holger Kruse           : gCP                                           
  Marcel Mueller         : wB97X-3c, vDZP basis set                      
  Hagen Neugebauer       : wr2SCAN, Native XTB                           
  Gianluca Regni         : ADLD/ADEX                                     
  Tobias Risthaus        : pre 6.0 range-separated hybrid DFT and stability analysis
  Lukas Wittmann         : regularized MP2, r2SCAN double-hybrids, wr2SCAN        
                                                                         
We gratefully acknowledge several colleagues who have allowed us to      
interface, adapt or use parts of their codes:                            
  Ed Valeev, F. Pavosevic, A. Kumar             : LibInt (2-el integral package), F12 methods 
  Garnet Chan, S. Sharma, J. Yang, R. Olivares  : DMRG                   
  Ulf Ekstrom                                   : XCFun DFT Library      
  Mihaly Kallay                                 : mrcc  (arbitrary order and MRCC methods)
  Frank Weinhold                                : gennbo (NPA and NBO analysis)           
  Simon Mueller                                 : openCOSMO-RS                            
  Christopher J. Cramer and Donald G. Truhlar   : smd solvation model                     
  S Lehtola, MJT Oliveira, MAL Marques          : LibXC Library                           
  Liviu Ungur et al                             : ANISO software                          


 Your calculation uses the libint2 library for the computation of 2-el integrals
 For citations please refer to: http://libint.valeyev.net

 Your ORCA version has been built with support for libXC version: 7.0.0
 For citations please refer to: https://libxc.gitlab.io

 This ORCA versions uses:
   CBLAS   interface :  Fast vector & matrix operations
   LAPACKE interface :  Fast linear algebra routines
   SCALAPACK package :  Parallel linear algebra routines
   Shared memory     :  Shared parallel matrices
   BLAS/LAPACK       :  OpenBLAS 0.3.29  USE64BITINT DYNAMIC_ARCH NO_AFFINITY Cooperlake SINGLE_THREADED
        Core in use  :  Cooperlake
   Copyright (c) 2011-2014, The OpenBLAS Project


  ***********************************
  * Starting time: Fri Nov 28 16:46:08 2025
  * Host name:     chpc-cn071.rc.cuhk.edu.hk
  * Process ID:    1424909
  * Working dir.:  /lustre/scratch/xlzhang/zihan/fe3_doublet
  ***********************************

NOTE: MaxCore=2109 MB was set to SCF,MP2,MDCI,CIPSI,MRCI,RASCI and CIS
      => If you want to overwrite this, your respective input block should be placed after the MaxCore statement
XCFun DFT library Copyright 2009-2010 Ulf Ekstrom and contributors.
See http://admol.org/xcfun for more information.
This is free software; see the source code for copying conditions.
There is ABSOLUTELY NO WARRANTY; not even for MERCHANTABILITY or FITNESS FOR A PARTICULAR PURPOSE.
For details see the documentation.
Scientific users of this library should cite U. Ekstrom, L. Visscher, R. Bast, A. J. Thorvaldsen and K. Ruud;
J.Chem.Theor.Comp. 2010, DOI: 10.1021/ct100117s
XCFun Version 0.99 

Warning: RI is on but no J-basis has been assigned. Assigning Def2/J (nothing to worry about!)
================================================================================

----- Orbital basis set information -----
Your calculation utilizes the basis: def2-SVP
   F. Weigend and R. Ahlrichs, Phys. Chem. Chem. Phys. 7, 3297 (2005).

----- AuxJ basis set information -----
Your calculation utilizes the auxiliary basis: def2/J
   H-Rn: F. Weigend, Phys. Chem. Chem. Phys. 8, 1057 (2006).
   Fr-Lr: K. Eichkorn, F. Weigend, O. Treutler, R. Ahlrichs; Theor. Chem. Acc. 97, 119 (1997).

================================================================================
                                        WARNINGS
                       Please study these warnings very carefully!
================================================================================


WARNING: your system is open-shell and RHF/RKS was chosen
  ===> : WILL SWITCH to UHF/UKS

WARNING: Functional chosen is sensitive to the integration grid.
         DEFGRID3 seems to be a minimum grid for robust results!

WARNING: Geometry Optimization
  ===> : Switching off AutoStart
         For restart on a previous wavefunction, please use MOREAD

================================================================================
                                       INPUT FILE
================================================================================
NAME = /users/s1155246974/li/fe3_doublet/fe3_doublet.inp
|  1> ! Opt Freq M062X def2-SVP defgrid2
|  2> # Number of processors
|  3> %pal nprocs 64 end
|  4> # Memory per core
|  5> %maxcore 2109
|  6> * xyz 3 2
|  7> Fe      -2.1311475900   -0.9394703500    0.0000000000
|  8> O       -2.1311475900    0.8805296500    0.0000000000
|  9> H       -1.6783051600    1.2005296500    0.7836668500
| 10> O       -3.9511475900   -0.9394703500    0.0000000000
| 11> H       -4.2711475900   -1.6929644800   -0.5014445000
| 12> O       -2.1311475900   -2.7594703500    0.0000000000
| 13> H       -1.3001591600   -3.2394703500   -0.0256561100
| 14> O       -0.3111475900   -0.9394703500    0.0000000000
| 15> H        0.1688524100   -0.8543234600   -0.8270127000
| 16> H       -2.9621360100   -3.2394703500    0.0256561100
| 17> H       -4.2711475900   -0.1284596100   -0.4018228100
| 18> H        0.1688524100   -1.0246172500    0.8270127000
| 19> H       -1.6788934000    1.2005296500   -0.7840064700
| 20> *
| 21> 
| 22>                          ****END OF INPUT****
================================================================================

                       *****************************
                       * Geometry Optimization Run *
                       *****************************

Geometry optimization settings:
Update method            Update   .... BFGS
Choice of coordinates    CoordSys .... (2022) Redundant Internals
Initial Hessian          InHess   .... Almloef's Model
Max. no of cycles        MaxIter  .... 50

Convergence Tolerances:
Energy Change            TolE     ....  5.0000e-06 Eh
Max. Gradient            TolMAXG  ....  3.0000e-04 Eh/bohr
RMS Gradient             TolRMSG  ....  1.0000e-04 Eh/bohr
Max. Displacement        TolMAXD  ....  4.0000e-03 bohr
RMS Displacement         TolRMSD  ....  2.0000e-03 bohr
Strict Convergence                .... False

------------------------------------------------------------------------------
                        ORCA OPTIMIZATION COORDINATE SETUP
------------------------------------------------------------------------------

The optimization will be done in redundant internal coordinates (2022)
Making redundant internal coordinates   ...  (2022 redundants) done
Evaluating the initial hessian          ...  (Almloef) done
Evaluating the coordinates              ...  done
Calculating the B-matrix                .... done
Calculating the G-matrix                .... done
The number of degrees of freedom        ....   52

    -----------------------------------------------------------------
                    Redundant Internal Coordinates


    -----------------------------------------------------------------
         Definition                    Initial Value    Approx d2E/dq
    -----------------------------------------------------------------
      1. B(O   1,Fe  0)                  1.8200         1.166709   
      2. B(H   2,O   1)                  0.9600         0.519956   
      3. B(O   3,Fe  0)                  1.8200         1.166709   
      4. B(H   4,O   3)                  0.9600         0.519956   
      5. B(O   5,Fe  0)                  1.8200         1.166709   
      6. B(H   6,O   5)                  0.9600         0.519956   
      7. B(O   7,Fe  0)                  1.8200         1.166709   
      8. B(H   8,O   7)                  0.9600         0.519956   
      9. B(H   9,O   5)                  0.9600         0.519956   
     10. B(H  10,O   3)                  0.9600         0.519956   
     11. B(H  11,O   7)                  0.9600         0.519956   
     12. B(H  12,O   1)                  0.9600         0.519956   
     13. A(O   1,Fe  0,O   3)           90.0000         0.694653   
     14. A(O   5,Fe  0,O   7)           90.0000         0.694653   
     15. A(O   1,Fe  0,O   7)           90.0000         0.694653   
     16. A(O   3,Fe  0,O   5)           90.0000         0.694653   
     17. A(Fe  0,O   1,H  12)          109.4712         0.464522   
     18. A(H   2,O   1,H  12)          109.4712         0.321834   
     19. A(Fe  0,O   1,H   2)          109.4712         0.464522   
     20. A(H   4,O   3,H  10)          109.4712         0.321834   
     21. A(Fe  0,O   3,H   4)          109.4712         0.464522   
     22. A(Fe  0,O   3,H  10)          109.4712         0.464522   
     23. A(H   6,O   5,H   9)          120.0000         0.321834   
     24. A(Fe  0,O   5,H   6)          120.0000         0.464522   
     25. A(Fe  0,O   5,H   9)          120.0000         0.464522   
     26. A(H   8,O   7,H  11)          120.0000         0.321834   
     27. A(Fe  0,O   7,H  11)          120.0000         0.464522   
     28. A(Fe  0,O   7,H   8)          120.0000         0.464522   
     29. D(H  12,O   1,Fe  0,O   3)   -119.9785         0.010000   
     30. D(H  12,O   1,Fe  0,O   7)     60.0215         0.010000   
     31. D(H   2,O   1,Fe  0,O   3)    120.0215         0.010000   
     32. D(H   2,O   1,Fe  0,O   7)    -59.9785         0.010000   
     33. D(H   4,O   3,Fe  0,O   5)    -33.6435         0.010000   
     34. D(H   4,O   3,Fe  0,O   1)    146.3565         0.010000   
     35. D(H  10,O   3,Fe  0,O   1)     26.3565         0.010000   
     36. D(H  10,O   3,Fe  0,O   5)   -153.6435         0.010000   
     37. D(H   6,O   5,O   1,H  12)     58.2531         0.010000   
     38. D(H   6,O   5,O   1,H   2)    -61.7469         0.010000   
     39. D(H   9,O   5,Fe  0,O   7)    178.2316         0.010000   
     40. D(H   9,O   5,Fe  0,O   3)     -1.7684         0.010000   
     41. D(H   6,O   5,Fe  0,O   7)     -1.7684         0.010000   
     42. D(H   9,O   5,O   1,H   2)    118.2531         0.010000   
     43. D(H   6,O   5,Fe  0,O   3)    178.2316         0.010000   
     44. D(H   9,O   5,O   1,H  12)   -121.7469         0.010000   
     45. D(H  11,O   7,O   3,H  10)    122.2348         0.010000   
     46. D(H   8,O   7,O   3,H  10)    -57.7652         0.010000   
     47. D(H   8,O   7,O   3,H   4)     62.2348         0.010000   
     48. D(H  11,O   7,Fe  0,O   5)    -84.1217         0.010000   
     49. D(H  11,O   7,Fe  0,O   1)     95.8783         0.010000   
     50. D(H  11,O   7,O   3,H   4)   -117.7652         0.010000   
     51. D(H   8,O   7,Fe  0,O   5)     95.8783         0.010000   
     52. D(H   8,O   7,Fe  0,O   1)    -84.1217         0.010000   
    -----------------------------------------------------------------

Number of atoms                         .... 13
Number of degrees of freedom            .... 52


         *************************************************************
         *                GEOMETRY OPTIMIZATION CYCLE   1            *
         *************************************************************
---------------------------------
CARTESIAN COORDINATES (ANGSTROEM)
---------------------------------
  Fe    -2.131148   -0.939470    0.000000
  O     -2.131148    0.880530    0.000000
  H     -1.678305    1.200530    0.783667
  O     -3.951148   -0.939470    0.000000
  H     -4.271148   -1.692964   -0.501444
  O     -2.131148   -2.759470    0.000000
  H     -1.300159   -3.239470   -0.025656
  O     -0.311148   -0.939470    0.000000
  H      0.168852   -0.854323   -0.827013
  H     -2.962136   -3.239470    0.025656
  H     -4.271148   -0.128460   -0.401823
  H      0.168852   -1.024617    0.827013
  H     -1.678893    1.200530   -0.784006

----------------------------
CARTESIAN COORDINATES (A.U.)
----------------------------
  NO LB      ZA    FRAG     MASS         X           Y           Z
   0 Fe   26.0000    0    55.850   -4.027285   -1.775342    0.000000
   1 O     8.0000    0    15.999   -4.027285    1.663960    0.000000
   2 H     1.0000    0     1.008   -3.171537    2.268672    1.480916
   3 O     8.0000    0    15.999   -7.466587   -1.775342    0.000000
   4 H     1.0000    0     1.008   -8.071299   -3.199239   -0.947593
   5 O     8.0000    0    15.999   -4.027285   -5.214643    0.000000
   6 H     1.0000    0     1.008   -2.456945   -6.121712   -0.048483
   7 O     8.0000    0    15.999   -0.587984   -1.775342    0.000000
   8 H     1.0000    0     1.008    0.319085   -1.614437   -1.562828
   9 H     1.0000    0     1.008   -5.597626   -6.121712    0.048483
  10 H     1.0000    0     1.008   -8.071299   -0.242753   -0.759335
  11 H     1.0000    0     1.008    0.319085   -1.936246    1.562828
  12 H     1.0000    0     1.008   -3.172649    2.268672   -1.481558

--------------------------------
INTERNAL COORDINATES (ANGSTROEM)
--------------------------------
 Fe     0   0   0     0.000000000000     0.00000000     0.00000000
 O      1   0   0     1.820000000000     0.00000000     0.00000000
 H      2   1   0     0.959999999061   109.47122065     0.00000000
 O      1   2   3     1.820000000000    90.00000000   120.02149934
 H      4   1   2     0.959999995065   109.47122074   146.35654271
 O      1   2   3     1.820000000000   180.00000000     0.00000000
 H      6   1   2     0.960000003528   119.99999988     0.00000000
 O      1   2   3     1.820000000000    90.00000000   300.02149934
 H      8   1   2     0.959999999395   120.00000002   275.87829955
 H      6   1   8     0.959999994872   120.00000018   178.23159989
 H      4   1   2     0.959999995329   109.47122073    26.35654283
 H      8   1   2     0.960000000282   119.99999999    95.87830024
 H      2   1   3     0.959999998633   109.47122066   119.99999963

---------------------------
INTERNAL COORDINATES (A.U.)
---------------------------
 Fe     0   0   0     0.000000000000     0.00000000     0.00000000
 O      1   0   0     3.439301563737     0.00000000     0.00000000
 H      2   1   0     1.814137086790   109.47122065     0.00000000
 O      1   2   3     3.439301563737    90.00000000   120.02149934
 H      4   1   2     1.814137079239   109.47122074   146.35654271
 O      1   2   3     3.439301563737   180.00000000     0.00000000
 H      6   1   2     1.814137095232   119.99999988     0.00000000
 O      1   2   3     3.439301563737    90.00000000   300.02149934
 H      8   1   2     1.814137087421   120.00000002   275.87829955
 H      6   1   8     1.814137078874   120.00000018   178.23159989
 H      4   1   2     1.814137079737   109.47122073    26.35654283
 H      8   1   2     1.814137089097   119.99999999    95.87830024
 H      2   1   3     1.814137085980   109.47122066   119.99999963

---------------------
BASIS SET INFORMATION
---------------------
There are 3 groups of distinct atoms

 Group   1 Type Fe  : 14s9p5d1f contracted to 5s3p2d1f pattern {63311/531/41/1}
 Group   2 Type O   : 7s4p1d contracted to 3s2p1d pattern {511/31/1}
 Group   3 Type H   : 4s1p contracted to 2s1p pattern {31/1}

Atom   0Fe   basis set group =>   1
Atom   1O    basis set group =>   2
Atom   2H    basis set group =>   3
Atom   3O    basis set group =>   2
Atom   4H    basis set group =>   3
Atom   5O    basis set group =>   2
Atom   6H    basis set group =>   3
Atom   7O    basis set group =>   2
Atom   8H    basis set group =>   3
Atom   9H    basis set group =>   3
Atom  10H    basis set group =>   3
Atom  11H    basis set group =>   3
Atom  12H    basis set group =>   3
---------------------------------
AUXILIARY/J BASIS SET INFORMATION
---------------------------------
There are 3 groups of distinct atoms

 Group   1 Type Fe  : 19s5p5d3f3g contracted to 8s5p5d2f3g pattern {121111111/11111/11111/21/111}
 Group   2 Type O   : 12s5p4d2f1g contracted to 6s4p3d1f1g pattern {711111/2111/211/2/1}
 Group   3 Type H   : 5s2p1d contracted to 3s1p1d pattern {311/2/1}

Atom   0Fe   basis set group =>   1
Atom   1O    basis set group =>   2
Atom   2H    basis set group =>   3
Atom   3O    basis set group =>   2
Atom   4H    basis set group =>   3
Atom   5O    basis set group =>   2
Atom   6H    basis set group =>   3
Atom   7O    basis set group =>   2
Atom   8H    basis set group =>   3
Atom   9H    basis set group =>   3
Atom  10H    basis set group =>   3
Atom  11H    basis set group =>   3
Atom  12H    basis set group =>   3


           ************************************************************
           *        Program running with 64 parallel MPI-processes    *
           *              working on a common directory               *
           ************************************************************
------------------------------------------------------------------------------
                             ORCA STARTUP CALCULATIONS
                           -- RI-GTO INTEGRALS CHOSEN --
------------------------------------------------------------------------------
------------------------------------------------------------------------------
                   ___                                                        
                  /   \      - P O W E R E D   B Y -                         
                 /     \                                                     
                 |  |  |   _    _      __       _____    __    __             
                 |  |  |  | |  | |    /  \     |  _  \  |  |  /  |          
                  \  \/   | |  | |   /    \    | | | |  |  | /  /          
                 / \  \   | |__| |  /  /\  \   | |_| |  |  |/  /          
                |  |  |   |  __  | /  /__\  \  |    /   |      \           
                |  |  |   | |  | | |   __   |  |    \   |  |\   \          
                \     /   | |  | | |  |  |  |  | |\  \  |  | \   \       
                 \___/    |_|  |_| |__|  |__|  |_| \__\ |__|  \__/        
                                                                              
                      - O R C A' S   B I G   F R I E N D -                    
                                      &                                       
                       - I N T E G R A L  F E E D E R -                       
                                                                              
 v1 FN, 2020, v2 2021, v3 2022-2024                                           
------------------------------------------------------------------------------


----------------------
SHARK INTEGRAL PACKAGE
----------------------

Number of atoms                             ...     13
Number of basis functions                   ...    127
Number of shells                            ...     59
Maximum angular momentum                    ...      3
Integral batch strategy                     ... SHARK/LIBINT Hybrid
RI-J (if used) integral strategy            ... SPLIT-RIJ (Revised 2003 algorithm where possible)
Printlevel                                  ...      1
Contraction scheme used                     ... SEGMENTED contraction
Prescreening option                         ... SCHWARTZ
   Thresh                                   ... 2.500e-11
   Tcut                                     ... 2.500e-12
   Tpresel                                  ... 2.500e-12 
Coulomb Range Separation                    ... NOT USED
Exchange Range Separation                   ... NOT USED
Multipole approximations                    ... NOT USED
Finite Nucleus Model                        ... NOT USED
CABS basis                                  ... NOT available
Auxiliary Coulomb fitting basis             ... AVAILABLE
   # of basis functions in Aux-J            ...    373
   # of shells in Aux-J                     ...    123
   Maximum angular momentum in Aux-J        ...      4
Auxiliary J/K fitting basis                 ... NOT available
Auxiliary Correlation fitting basis         ... NOT available
Auxiliary 'external' fitting basis          ... NOT available

Checking pre-screening integrals            ... done (  0.0 sec) Dimension = 59
   => SHARK Basis and OBASIS are compatible. Storing Pre-screening
Shell pair information
Shell pair cut-off parameter TPreSel        ...   2.5e-12
Total number of shell pairs                 ...      1770
Shell pairs after pre-screening             ...      1720
Total number of primitive shell pairs       ...      7019
Primitive shell pairs kept                  ...      5099
          la=0 lb=0:    539 shell pairs
          la=1 lb=0:    607 shell pairs
          la=1 lb=1:    186 shell pairs
          la=2 lb=0:    194 shell pairs
          la=2 lb=1:    114 shell pairs
          la=2 lb=2:     21 shell pairs
          la=3 lb=0:     33 shell pairs
          la=3 lb=1:     19 shell pairs
          la=3 lb=2:      6 shell pairs
          la=3 lb=3:      1 shell pairs

Checking whether 4 symmetric matrices of dimension 127 fit in memory
:Max Core in MB      =   2109.00
 MB in use           =      5.62
 MB left             =   2103.38
 MB needed           =      0.25
 Data fit in memory  = YES
Calculating RI/J V-Matrix + Cholesky decomp.... done (  4.3 sec)
Calculating Nuclear repulsion               ... done (  0.0 sec) ENN=    430.839247573102 Eh

Diagonalization of the overlap matrix:
Smallest eigenvalue                        ... 1.524e-02
Time for diagonalization                   ...    0.032 sec
Threshold for overlap eigenvalues          ... 1.000e-07
Number of eigenvalues below threshold      ... 0
Time for construction of square roots      ...    0.089 sec
Total time needed                          ...    0.147 sec

-------------------
DFT GRID GENERATION
-------------------

General Integration Accuracy     IntAcc      ... 4.388
Radial Grid Type                 RadialGrid  ... OptM3 with GC (2021)
Angular Grid (max. ang.)         AngularGrid ... 4 (Lebedev-302)
Angular grid pruning method      GridPruning ... 4 (adaptive)
Weight generation scheme         WeightScheme... mBecke (2022)
Basis function cutoff            BFCut       ... 1.0000e-11
Integration weight cutoff        WCut        ... 1.0000e-14
Partially contracted basis set               ... off
Rotationally invariant grid construction     ... off
Angular grids for H and He will be reduced by one unit
Core-polarized basis detected: some atoms will have their core
                               angular grid increased.

Total number of grid points                  ...    61293
Total number of batches                      ...      963
Average number of points per batch           ...       63
Average number of grid points per atom       ...     4715

--------------------
COSX GRID GENERATION
--------------------

GRIDX 1
-------
General Integration Accuracy     IntAcc      ... 3.816
Radial Grid Type                 RadialGrid  ... OptM3 with GC (2021)
Angular Grid (max. ang.)         AngularGrid ... 1 (Lebedev-50)
Angular grid pruning method      GridPruning ... 4 (adaptive)
Weight generation scheme         WeightScheme... mBecke (2022)
Basis function cutoff            BFCut       ... 1.0000e-11
Integration weight cutoff        WCut        ... 1.0000e-14
Partially contracted basis set               ... on
Rotationally invariant grid construction     ... off
Angular grids for H and He will be reduced by one unit
Core-polarized basis detected: some atoms will have their core
                               angular grid increased.

Total number of grid points                  ...    12269
Total number of batches                      ...      101
Average number of points per batch           ...      121
Average number of grid points per atom       ...      944
UseSFitting                                  ... on

GRIDX 2
-------
General Integration Accuracy     IntAcc      ... 4.020
Radial Grid Type                 RadialGrid  ... OptM3 with GC (2021)
Angular Grid (max. ang.)         AngularGrid ... 2 (Lebedev-110)
Angular grid pruning method      GridPruning ... 4 (adaptive)
Weight generation scheme         WeightScheme... mBecke (2022)
Basis function cutoff            BFCut       ... 1.0000e-11
Integration weight cutoff        WCut        ... 1.0000e-14
Partially contracted basis set               ... on
Rotationally invariant grid construction     ... off
Angular grids for H and He will be reduced by one unit
Core-polarized basis detected: some atoms will have their core
                               angular grid increased.

Total number of grid points                  ...    19358
Total number of batches                      ...      159
Average number of points per batch           ...      121
Average number of grid points per atom       ...     1489
UseSFitting                                  ... on

GRIDX 3
-------
General Integration Accuracy     IntAcc      ... 4.338
Radial Grid Type                 RadialGrid  ... OptM3 with GC (2021)
Angular Grid (max. ang.)         AngularGrid ... 3 (Lebedev-194)
Angular grid pruning method      GridPruning ... 4 (adaptive)
Weight generation scheme         WeightScheme... mBecke (2022)
Basis function cutoff            BFCut       ... 1.0000e-11
Integration weight cutoff        WCut        ... 1.0000e-14
Partially contracted basis set               ... on
Rotationally invariant grid construction     ... off
Angular grids for H and He will be reduced by one unit
Core-polarized basis detected: some atoms will have their core
                               angular grid increased.

Total number of grid points                  ...    35546
Total number of batches                      ...      285
Average number of points per batch           ...      124
Average number of grid points per atom       ...     2734
UseSFitting                                  ... on
Grids setup in   4.6 sec
Initializing property integral containers    ... done (  0.1 sec)

SHARK setup successfully completed in  13.1 seconds

Maximum memory used throughout the entire STARTUP-calculation: 17.9 MB


           ************************************************************
           *        Program running with 64 parallel MPI-processes    *
           *              working on a common directory               *
           ************************************************************
-------------------------------------------------------------------------------
                                 ORCA GUESS
                   Start orbitals & Density for SCF / CASSCF
-------------------------------------------------------------------------------

------------
SCF SETTINGS
------------
Hamiltonian:
 Density Functional     Method          .... DFT(GTOs)
 Exchange Functional    Exchange        .... M062X
 Correlation Functional Correlation     .... M062X
 Gradients option       PostSCFGGA      .... off
 Hybrid DFT is turned on
   Fraction HF Exchange ScalHFX         ....  0.540000
   Scaling of DF-GGA-X  ScalDFX         ....  0.460000
   Scaling of DF-GGA-C  ScalDFC         ....  1.000000
   Scaling of DF-LDA-C  ScalLDAC        ....  1.000000
   Perturbative correction              ....  0.000000
 RI-approximation to the Coulomb term is turned on
   Number of AuxJ basis functions       .... 373
   RIJ-COSX (HFX calculated with COS-X)).... on


General Settings:
 Integral files         IntName         .... /users/s1155246974/li/fe3_doublet/fe3_doublet
 Hartree-Fock type      HFTyp           .... UHF
 Total Charge           Charge          ....    3
 Multiplicity           Mult            ....    2
 Number of Electrons    NEL             ....   63
 Basis Dimension        Dim             ....  127
 Nuclear Repulsion      ENuc            ....    430.8392475731 Eh

Convergence Acceleration:
 AO-DIIS                CNVDIIS         .... on
   Start iteration      DIISMaxIt       ....    12
   Startup error        DIISStart       ....  0.200000
   # of expansion vecs  DIISMaxEq       ....     5
   Bias factor          DIISBfac        ....   1.050
   Max. coefficient     DIISMaxC        ....  10.000
 MO-DIIS                CNVKDIIS        .... off
 Trust-Rad. Augm. Hess. CNVTRAH         .... auto
   Auto Start mean grad. ratio tolernc. ....  1.125000
   Auto Start start iteration           ....    50
   Auto Start num. interpolation iter.  ....    10
   Max. Number of Micro iterations      ....    24
   Max. Number of Macro iterations      .... Maxiter - #DIIS iter
   Number of Davidson start vectors     ....     2
   Converg. threshold    (grad. norm)   ....   1.000e-05
   Grad. Scal. Fac. for Micro threshold ....   0.100
   Minimum threshold for Micro iter.    ....   1.000e-02
   NR start threshold (gradient norm)   ....   1.000e-04
   Initial trust radius                 ....   0.400
   Minimum AH scaling param. (alpha)    ....   1.000
   Maximum AH scaling param. (alpha)    .... 1000.000
   Quad. conv. algorithm                .... NR
   White noise on init. David. guess    .... on
   Maximum white noise                  ....   0.010
   Pseudo random numbers                .... off
   Inactive MOs                         .... canonical
   Orbital update algorithm             .... Taylor
   Preconditioner                       .... Diag
   Full preconditioner red. dimension   ....   250
 SOSCF                 CNVSOSCF           .... on
   Start iteration     SOSCFMaxIt         ....   150
   Startup grad/error  SOSCFStart         ....  0.003300
   Hessian update      SOSCFHessUp        .... L-BFGS
   Autom. constraints  SOSCFAutoConstrain .... off
 Level Shifting         CNVShift        .... on
   Level shift para.    LevelShift      ....    0.2500
   Turn off err/grad.   ShiftErr        ....    0.0010
 Zerner damping         CNVZerner       .... off
 Static damping         CNVDamp         .... on
   Fraction old density DampFac         ....    0.7000
   Max. Damping (<1)    DampMax         ....    0.9800
   Min. Damping (>=0)   DampMin         ....    0.0000
   Turn off err/grad.   DampErr         ....    0.1000

SCF Procedure:
 Maximum # iterations   MaxIter         ....   125
 SCF integral mode      SCFMode         .... Direct
   Integral package                     .... SHARK and LIBINT hybrid scheme
 Reset frequency        DirectResetFreq ....    20
 Integral Threshold     Thresh          ....  2.500e-11 Eh
 Primitive CutOff       TCut            ....  2.500e-12 Eh

Convergence Tolerance:
 Convergence Check Mode ConvCheckMode   .... Total+1el-Energy
 Convergence forced     ConvForced      .... 0
 Energy Change          TolE            ....  1.000e-08 Eh
 1-El. energy change                    ....  1.000e-05 Eh
 Orbital Gradient       TolG            ....  1.000e-05
 Orbital Rotation angle TolX            ....  1.000e-05
 DIIS Error             TolErr          ....  5.000e-07

------------------------------
INITIAL GUESS: MODEL POTENTIAL
------------------------------
Loading Hartree-Fock densities                     ... done
Calculating cut-offs                               ... done
Initializing the effective Hamiltonian             ... done
Setting up the integral package (SHARK)            ... done
Starting the Coulomb interaction                   ... done (   0.9 sec)
Making the grid                                    ... done (   0.3 sec)
Mapping shells                                     ... done
Starting the XC term evaluation                    ... done (   0.1 sec)
  promolecular density results
     # of electrons  =     65.998544033
     EX              =    -89.331163655
     EC              =     -2.503922825
     EX+EC           =    -91.835086480
Transforming the Hamiltonian                       ... done (   0.2 sec)
Diagonalizing the Hamiltonian                      ... done (   0.0 sec)
Back transforming the eigenvectors                 ... done (   0.3 sec)
Now organizing SCF variables                       ... done
                      ------------------
                      INITIAL GUESS DONE (   2.5 sec)
                      ------------------
             **** ENERGY FILE WAS UPDATED (/users/s1155246974/li/fe3_doublet/fe3_doublet.en.tmp) ****
Finished Guess after   6.7 sec
Maximum memory used throughout the entire GUESS-calculation: 9.2 MB


           ************************************************************
           *        Program running with 64 parallel MPI-processes    *
           *              working on a common directory               *
           ************************************************************

-------------------------------------------------------------------------------------------
                                      ORCA LEAN-SCF
                              memory conserving SCF solver
-------------------------------------------------------------------------------------------

----------------------------------------D-I-I-S--------------------------------------------
Iteration    Energy (Eh)           Delta-E    RMSDP     MaxDP     DIISErr   Damp  Time(sec)
-------------------------------------------------------------------------------------------
               ***  Starting incremental Fock matrix formation  ***
    1    -1567.0455460199659683     0.00e+00  3.12e-02  9.36e-02  2.28e-01  0.700   7.8
Warning: op=0 Small HOMO/LUMO gap (   0.098) - skipping pre-diagonalization
         Will do a full diagonalization
    2    -1567.2099150371127507    -1.64e-01  9.95e-03  2.54e-02  4.84e-02  0.700   4.7
                               ***Turning on AO-DIIS***
    3    -1567.2710292697827299    -6.11e-02  5.18e-03  1.79e-02  2.93e-02  0.700   4.9
    4    -1567.3159392080794987    -4.49e-02  1.37e-02  4.53e-02  2.46e-02  0.000   1.1
    5    -1567.4229825973648076    -1.07e-01  3.34e-03  1.18e-02  1.86e-02  0.000   2.4
    6    -1567.4252234594744095    -2.24e-03  2.97e-03  1.28e-02  8.82e-03  0.000   1.6
    7    -1567.4264626517906436    -1.24e-03  1.78e-03  8.98e-03  8.78e-03  0.000   5.6
    8    -1567.4270814381234231    -6.19e-04  1.95e-03  1.04e-02  8.93e-03  0.000   5.8
    9    -1567.4277378801129998    -6.56e-04  2.17e-03  1.16e-02  9.06e-03  0.000   4.7
   10    -1567.4284559831819479    -7.18e-04  1.31e-03  6.46e-03  9.22e-03  0.000   6.3
   11    -1567.4288913151733595    -4.35e-04  4.95e-04  2.23e-03  9.45e-03  0.000   6.5
   12    -1567.4290496175121916    -1.58e-04  9.16e-05  4.65e-04  9.65e-03  0.000   2.0
   13    -1567.4290311232268778     1.85e-05  1.65e-04  8.06e-04  9.74e-03  0.000   1.5
   14    -1567.4290855033896150    -5.44e-05  7.29e-04  3.74e-03  9.75e-03  0.000   2.4
   15    -1567.4293351882172374    -2.50e-04  1.07e-03  5.10e-03  9.73e-03  0.000   4.2
   16    -1567.4297043018714248    -3.69e-04  6.00e-04  2.83e-03  9.79e-03  0.000   3.5
   17    -1567.4299097950463420    -2.05e-04  2.68e-04  1.21e-03  9.92e-03  0.000   3.9
   18    -1567.4299980070595666    -8.82e-05  3.51e-04  1.66e-03  1.00e-02  0.000   2.1
   19    -1567.4301217166319020    -1.24e-04  4.36e-04  2.04e-03  1.00e-02  0.000   0.7
   20    -1567.4302783510418067    -1.57e-04  6.22e-04  2.98e-03  1.00e-02  0.000   0.9
               *** Restarting incremental Fock matrix formation ***
                             ****Resetting DIIS****
   21    -1567.4317178309881911    -1.44e-03  3.33e-03  1.58e-02  1.01e-02  0.000   1.7
   22    -1567.4329441672612120    -1.23e-03  2.09e-03  1.02e-02  1.03e-02  0.000   2.2
   23    -1567.4337671909188430    -8.23e-04  1.63e-03  8.12e-03  1.08e-02  0.000   3.0
   24    -1567.4331208747187247     6.46e-04  7.76e-04  4.12e-03  1.04e-02  0.000   5.5
   25    -1567.4328282518019932     2.93e-04  1.49e-03  8.17e-03  1.03e-02  0.000   4.9
   26    -1567.4322994620954432     5.29e-04  1.86e-03  1.04e-02  1.03e-02  0.000   3.3
   27    -1567.4318396915466565     4.60e-04  3.00e-03  1.70e-02  1.03e-02  0.000   2.8
   28    -1567.4313725311906182     4.67e-04  2.19e-03  1.25e-02  1.03e-02  0.000   3.6
   29    -1567.4318046707180656    -4.32e-04  1.57e-03  7.29e-03  1.04e-02  0.000   2.0
   30    -1567.4322294481021345    -4.25e-04  1.26e-03  6.49e-03  1.05e-02  0.000   2.4
   31    -1567.4326130106383062    -3.84e-04  2.22e-03  1.16e-02  1.06e-02  0.000   3.3
   32    -1567.4332844027421743    -6.71e-04  9.71e-04  4.93e-03  1.07e-02  0.000   4.3
   33    -1567.4335367909266097    -2.52e-04  1.31e-04  6.56e-04  1.07e-02  0.000   2.5
   34    -1567.4335713221764763    -3.45e-05  1.04e-03  5.62e-03  1.07e-02  0.000   3.9
   35    -1567.4338825500587973    -3.11e-04  1.72e-03  9.43e-03  1.07e-02  0.000   2.0
   36    -1567.4343993369959662    -5.17e-04  2.65e-03  1.49e-02  1.06e-02  0.000   1.2
   37    -1567.4351881111097100    -7.89e-04  3.98e-03  2.29e-02  1.05e-02  0.000   2.9
   38    -1567.4363439782916885    -1.16e-03  7.53e-03  4.51e-02  1.02e-02  0.000   4.0
   39    -1567.4383834317141009    -2.04e-03  3.74e-03  2.23e-02  9.14e-03  0.000   4.7
   40    -1567.4393156801540954    -9.32e-04  5.84e-03  3.58e-02  8.43e-03  0.000   4.6
               *** Restarting incremental Fock matrix formation ***
                             ****Resetting DIIS****
   41    -1567.4406532683915430    -1.34e-03  2.33e-03  1.17e-02  6.95e-03  0.000   3.3
   42    -1567.4411779641397970    -5.25e-04  1.01e-03  4.90e-03  6.47e-03  0.000   7.3
   43    -1567.4414265963309845    -2.49e-04  5.78e-04  2.56e-03  6.26e-03  0.000   5.6
   44    -1567.4415706877523462    -1.44e-04  4.36e-04  1.93e-03  6.13e-03  0.000   1.4
   45    -1567.4414619442068215     1.09e-04  3.32e-05  1.31e-04  6.23e-03  0.000   0.9
   46    -1567.4414538552589420     8.09e-06  2.21e-03  9.93e-03  6.23e-03  0.000   2.5
   47    -1567.4420157845468111    -5.62e-04  2.56e-03  9.94e-03  6.30e-03  0.000   1.5
   48    -1567.4413699848125816     6.46e-04  3.97e-04  1.86e-03  6.25e-03  0.000   0.8
   49    -1567.4413158241154633     5.42e-05  1.46e-03  6.05e-03  6.24e-03  0.000   1.1
   50    -1567.4410474869014251     2.68e-04  1.88e-03  8.53e-03  6.36e-03  0.000   1.0

       ******************************************************************************
       ***                                                                        ***
       ***                               Auto-TRAH                                ***
       ***                               ---------                                ***
       *** the maximum gradient error decreased on average only by a factor   1.0 ***
       *** during the last  10 iterations                                         ***
       ***                                                                        ***
       ***               Leaving SCF to start the TRAH-SCF procedure              ***
       ***                                                                        ***
       ******************************************************************************

 --------------------------------------------------------------------------------------------
   Iter.        energy            ||Error||_2        Shift      TRadius  Mac/Mic        Rej.
 --------------------------------------------------------------------------------------------
    0      -1567.439664901507     1.206206e-02                     0.400 (TRAH MAcro)   No
    0     dE    -1.033168e-03     5.765637e-02    -1.0162e-03      0.129 (TRAH MIcro)
    0     dE    -1.989088e-03     5.806216e-02    -1.8743e-03      0.247 (TRAH MIcro)
    0     dE    -4.072442e-03     4.825263e-02    -7.6515e-03      0.400 (TRAH MIcro)
    0     dE    -9.718860e-03     8.040645e-02    -4.9188e-02      0.400 (TRAH MIcro)
    0     dE    -4.395368e-03     1.283777e-02    -7.4124e-02      0.215 (TRAH MIcro)
    0     dE    -4.870958e-03     5.503295e-03    -7.5306e-02      0.228 (TRAH MIcro)
    0     dE    -5.046471e-03     4.681035e-03    -7.5692e-02      0.232 (TRAH MIcro)
    0     dE    -5.241351e-03     4.043501e-03    -7.5983e-02      0.237 (TRAH MIcro)
    0     dE    -5.475473e-03     3.343921e-03    -7.6223e-02      0.243 (TRAH MIcro)
    0     dE    -5.599644e-03     3.001056e-03    -7.6339e-02      0.246 (TRAH MIcro)
    0     dE    -5.738200e-03     3.498116e-03    -7.6483e-02      0.249 (TRAH MIcro)
    0     dE    -5.937709e-03     2.673351e-03    -7.6663e-02      0.254 (TRAH MIcro)
    0     dE    -6.034069e-03     1.519511e-03    -7.6729e-02      0.256 (TRAH MIcro)
    0     dE    -6.057753e-03     8.625335e-04    -7.6743e-02      0.257 (TRAH MIcro)
    1      -1567.445518960952     2.040760e-02                     0.480 (TRAH MAcro)   No
    1     dE    -2.122483e-02     8.644385e-02    -5.4590e-02      0.480 (TRAH MIcro)
    1     dE    -2.455301e-02     3.520778e-02    -7.3249e-02      0.469 (TRAH MIcro)
    1     dE    -2.593362e-02     2.127775e-02    -7.5178e-02      0.480 (TRAH MIcro)
    1     dE    -2.624432e-02     1.330157e-02    -7.6613e-02      0.480 (TRAH MIcro)
    1     dE    -2.636343e-02     1.058199e-02    -7.7297e-02      0.480 (TRAH MIcro)
    1     dE    -2.644053e-02     4.434849e-03    -7.7926e-02      0.480 (TRAH MIcro)
    1     dE    -2.645414e-02     2.129241e-03    -7.8055e-02      0.480 (TRAH MIcro)
    1     dE    -2.645739e-02     1.479265e-03    -7.8079e-02      0.480 (TRAH MIcro)
    2      -1567.465446389177     3.118547e-02                     0.576 (TRAH MAcro)   No
    2     dE    -2.751605e-03     5.204251e-02    -2.7029e-03      0.134 (TRAH MIcro)
    2     dE    -4.476469e-03     3.486614e-02    -4.2419e-03      0.235 (TRAH MIcro)
    2     dE    -5.359796e-03     1.836632e-02    -4.9616e-03      0.283 (TRAH MIcro)
    2     dE    -5.555823e-03     1.269706e-02    -5.1176e-03      0.293 (TRAH MIcro)
    2     dE    -5.674706e-03     7.267883e-03    -5.2114e-03      0.298 (TRAH MIcro)
    2     dE    -5.784100e-03     9.461792e-03    -5.2893e-03      0.306 (TRAH MIcro)
    2     dE    -5.964988e-03     1.136422e-02    -5.4003e-03      0.323 (TRAH MIcro)
    2     dE    -6.230811e-03     1.006859e-02    -5.5380e-03      0.354 (TRAH MIcro)
    2     dE    -6.443119e-03     9.297653e-03    -5.6321e-03      0.379 (TRAH MIcro)
    2     dE    -6.636589e-03     9.300034e-03    -5.7077e-03      0.403 (TRAH MIcro)
    2     dE    -6.964463e-03     1.013725e-02    -5.8160e-03      0.444 (TRAH MIcro)
    2     dE    -8.147049e-03     2.414469e-02    -6.2873e-03      0.576 (TRAH MIcro)
    2     dE    -8.728714e-03     2.451145e-02    -9.1629e-03      0.576 (TRAH MIcro)
    2     dE    -9.313998e-03     2.120569e-02    -1.1932e-02      0.576 (TRAH MIcro)
    2     dE    -6.240210e-03     4.379841e-03    -1.7682e-02      0.311 (TRAH MIcro)
    2     dE    -6.569108e-03     4.820181e-03    -1.7779e-02      0.337 (TRAH MIcro)
    2     dE    -7.153067e-03     5.911776e-03    -1.7892e-02      0.379 (TRAH MIcro)
    2     dE    -7.879840e-03     5.279670e-03    -1.7996e-02      0.426 (TRAH MIcro)
    2     dE    -8.478393e-03     3.738987e-03    -1.8072e-02      0.461 (TRAH MIcro)
    2     dE    -8.731133e-03     2.450186e-03    -1.8102e-02      0.476 (TRAH MIcro)
    3      -1567.471005108299     2.589895e-02                     0.576 (TRAH MAcro)   No
    3     dE    -3.981124e-04     1.464277e-02    -3.9784e-04      0.026 (TRAH MIcro)
    3     dE    -5.149985e-04     1.246996e-02    -5.1416e-04      0.040 (TRAH MIcro)
    3     dE    -6.111533e-04     5.937628e-03    -6.0907e-04      0.058 (TRAH MIcro)
    3     dE    -6.494650e-04     7.420788e-03    -6.4650e-04      0.068 (TRAH MIcro)
    3     dE    -7.255768e-04     1.019058e-02    -7.1950e-04      0.092 (TRAH MIcro)
    3     dE    -8.435655e-04     1.046161e-02    -8.2782e-04      0.138 (TRAH MIcro)
    3     dE    -9.505001e-04     8.416048e-03    -9.1986e-04      0.182 (TRAH MIcro)
    3     dE    -1.050269e-03     7.867801e-03    -9.9986e-04      0.225 (TRAH MIcro)
    3     dE    -1.107180e-03     5.521083e-03    -1.0429e-03      0.248 (TRAH MIcro)
    3     dE    -1.142137e-03     4.008458e-03    -1.0683e-03      0.263 (TRAH MIcro)
    3     dE    -1.169597e-03     3.399551e-03    -1.0876e-03      0.275 (TRAH MIcro)
    3     dE    -1.190071e-03     3.698806e-03    -1.1015e-03      0.284 (TRAH MIcro)
    3     dE    -1.205870e-03     2.897688e-03    -1.1118e-03      0.291 (TRAH MIcro)
    3     dE    -1.219459e-03     2.386219e-03    -1.1205e-03      0.297 (TRAH MIcro)
    4      -1567.472168652970     8.415687e-03                     0.691 (TRAH MAcro)   No
    4     dE    -3.362107e-05     3.532545e-03    -3.3619e-05      0.007 (TRAH MIcro)
    4     dE    -4.346956e-05     3.461159e-03    -4.3463e-05      0.012 (TRAH MIcro)
    4     dE    -5.472445e-05     3.006080e-03    -5.4702e-05      0.020 (TRAH MIcro)
    4     dE    -6.153457e-05     2.985631e-03    -6.1492e-05      0.026 (TRAH MIcro)
    4     dE    -7.413848e-05     4.275900e-03    -7.4025e-05      0.039 (TRAH MIcro)
    4     dE    -9.874166e-05     5.404433e-03    -9.8282e-05      0.068 (TRAH MIcro)
    4     dE    -1.278232e-04     5.663203e-03    -1.2643e-04      0.105 (TRAH MIcro)
    4     dE    -1.650071e-04     5.007254e-03    -1.6124e-04      0.153 (TRAH MIcro)
    4     dE    -1.942473e-04     4.402904e-03    -1.8749e-04      0.190 (TRAH MIcro)
    4     dE    -2.448554e-04     6.950552e-03    -2.3019e-04      0.252 (TRAH MIcro)
    4     dE    -3.565978e-04     1.202605e-02    -3.1179e-04      0.379 (TRAH MIcro)
    4     dE    -7.435382e-04     2.119200e-02    -5.0578e-04      0.691 (TRAH MIcro)
    4     dE    -1.140857e-03     1.459732e-02    -1.4117e-03      0.689 (TRAH MIcro)
    4     dE    -1.361470e-03     9.726417e-03    -1.8964e-03      0.691 (TRAH MIcro)
    4     dE    -1.424818e-03     7.964381e-03    -2.0400e-03      0.691 (TRAH MIcro)
    4     dE    -1.475606e-03     4.780555e-03    -2.1557e-03      0.691 (TRAH MIcro)
    4     dE    -1.493936e-03     2.706097e-03    -2.1976e-03      0.691 (TRAH MIcro)
    4     dE    -1.500146e-03     1.521581e-03    -2.2117e-03      0.691 (TRAH MIcro)
    4     dE    -1.502790e-03     1.098588e-03    -2.2177e-03      0.691 (TRAH MIcro)
    4     dE    -1.504507e-03     1.261212e-03    -2.2217e-03      0.691 (TRAH MIcro)
    4     dE    -1.506571e-03     1.379877e-03    -2.2264e-03      0.691 (TRAH MIcro)
    4     dE    -1.508287e-03     9.781310e-04    -2.2304e-03      0.691 (TRAH MIcro)
    4     dE    -1.509174e-03     7.636538e-04    -2.2324e-03      0.691 (TRAH MIcro)
 ---------------------------------
          TRAH Step control 
 ---------------------------------
  predicted energy change =    -1.509174046016e-03
  actual energy  change   =     9.916188673742e-06
  energy change ratio     = -0.006571
  old trust radius        = 0.691200
  new trust radius        = 0.463104
  reject step?            = YES
    5      -1567.472158736781     8.415687e-03                     0.463 (TRAH MAcro)  Yes
    6      -1567.472158736781     3.981054e-02                     0.463 (TRAH MAcro)   No
    6     dE    -6.399175e-04     1.443350e-02    -6.3941e-04      0.028 (TRAH MIcro)
    6     dE    -7.665260e-04     1.303669e-02    -7.6526e-04      0.041 (TRAH MIcro)
    6     dE    -8.908292e-04     6.420169e-03    -8.8733e-04      0.063 (TRAH MIcro)
    6     dE    -9.071754e-04     3.831656e-03    -9.0320e-04      0.066 (TRAH MIcro)
    7      -1567.473067265663     3.979822e-03                     0.556 (TRAH MAcro)   No
    7     dE    -6.353429e-06     2.195488e-03    -6.3534e-06      0.003 (TRAH MIcro)
    7     dE    -1.314357e-05     2.968503e-03    -1.3143e-05      0.007 (TRAH MIcro)
    7     dE    -1.958311e-05     2.410370e-03    -1.9579e-05      0.014 (TRAH MIcro)
    7     dE    -2.680024e-05     3.138746e-03    -2.6786e-05      0.023 (TRAH MIcro)
    7     dE    -3.653136e-05     2.000331e-03    -3.6483e-05      0.036 (TRAH MIcro)
    7     dE    -4.112867e-05     2.049812e-03    -4.1051e-05      0.043 (TRAH MIcro)
    7     dE    -4.570693e-05     1.679048e-03    -4.5588e-05      0.051 (TRAH MIcro)
    7     dE    -4.907056e-05     1.717212e-03    -4.8911e-05      0.057 (TRAH MIcro)
    7     dE    -5.140526e-05     1.355678e-03    -5.1212e-05      0.061 (TRAH MIcro)
    7     dE    -5.291361e-05     8.560446e-04    -5.2694e-05      0.065 (TRAH MIcro)
    7     dE    -5.412254e-05     7.540219e-04    -5.3879e-05      0.067 (TRAH MIcro)
    7     dE    -5.553889e-05     1.177526e-03    -5.5263e-05      0.071 (TRAH MIcro)
    7     dE    -5.678076e-05     9.283726e-04    -5.6472e-05      0.074 (TRAH MIcro)
    7     dE    -5.772606e-05     1.036384e-03    -5.7388e-05      0.077 (TRAH MIcro)
    7     dE    -5.903798e-05     1.040876e-03    -5.8654e-05      0.081 (TRAH MIcro)
    7     dE    -6.033225e-05     9.284991e-04    -5.9894e-05      0.086 (TRAH MIcro)
    7     dE    -6.075399e-05     3.925766e-04    -6.0296e-05      0.087 (TRAH MIcro)
    8      -1567.473155186670     1.626508e-03                     0.667 (TRAH MAcro)   No
    8     dE    -2.337106e-06     1.404047e-03    -2.3371e-06      0.002 (TRAH MIcro)
    8     dE    -3.806626e-06     1.704794e-03    -3.8065e-06      0.005 (TRAH MIcro)
    8     dE    -6.671893e-06     1.421359e-03    -6.6710e-06      0.011 (TRAH MIcro)
    8     dE    -8.473130e-06     1.503062e-03    -8.4710e-06      0.016 (TRAH MIcro)
    8     dE    -1.126817e-05     1.772152e-03    -1.1262e-05      0.023 (TRAH MIcro)
    8     dE    -1.424926e-05     1.477160e-03    -1.4235e-05      0.032 (TRAH MIcro)
    8     dE    -1.603288e-05     1.005772e-03    -1.6011e-05      0.037 (TRAH MIcro)
    8     dE    -1.658972e-05     6.846110e-04    -1.6564e-05      0.039 (TRAH MIcro)
    8     dE    -1.699527e-05     4.757546e-04    -1.6967e-05      0.041 (TRAH MIcro)
    8     dE    -1.723348e-05     4.168643e-04    -1.7204e-05      0.041 (TRAH MIcro)
    8     dE    -1.746808e-05     5.071203e-04    -1.7437e-05      0.042 (TRAH MIcro)
    8     dE    -1.778116e-05     5.449603e-04    -1.7747e-05      0.044 (TRAH MIcro)
    8     dE    -1.817207e-05     5.673948e-04    -1.8135e-05      0.045 (TRAH MIcro)
    8     dE    -1.839670e-05     4.220604e-04    -1.8357e-05      0.047 (TRAH MIcro)
    8     dE    -1.852711e-05     2.512606e-04    -1.8486e-05      0.047 (TRAH MIcro)
    8     dE    -1.858252e-05     1.344779e-04    -1.8540e-05      0.048 (TRAH MIcro)
    9      -1567.473185334880     7.968700e-04                     0.800 (TRAH MAcro)   No
    9     dE    -9.022277e-07     1.043107e-03    -9.0222e-07      0.002 (TRAH MIcro)
    9     dE    -1.900432e-06     1.146541e-03    -1.9004e-06      0.005 (TRAH MIcro)
    9     dE    -2.918904e-06     8.144139e-04    -2.9187e-06      0.009 (TRAH MIcro)
    9     dE    -3.791763e-06     1.039091e-03    -3.7912e-06      0.013 (TRAH MIcro)
    9     dE    -5.050535e-06     1.136411e-03    -5.0489e-06      0.018 (TRAH MIcro)
    9     dE    -6.398014e-06     9.278249e-04    -6.3942e-06      0.024 (TRAH MIcro)
    9     dE    -7.045596e-06     5.178583e-04    -7.0403e-06      0.028 (TRAH MIcro)
    9     dE    -7.215599e-06     3.835819e-04    -7.2098e-06      0.028 (TRAH MIcro)
    9     dE    -7.367204e-06     3.142235e-04    -7.3609e-06      0.029 (TRAH MIcro)
    9     dE    -7.485580e-06     3.397149e-04    -7.4789e-06      0.030 (TRAH MIcro)
    9     dE    -7.681360e-06     4.403799e-04    -7.6740e-06      0.031 (TRAH MIcro)
    9     dE    -7.865637e-06     3.885928e-04    -7.8574e-06      0.032 (TRAH MIcro)
    9     dE    -7.977450e-06     2.904185e-04    -7.9687e-06      0.033 (TRAH MIcro)
    9     dE    -8.042094e-06     1.601439e-04    -8.0330e-06      0.034 (TRAH MIcro)
    9     dE    -8.059061e-06     8.338055e-05    -8.0498e-06      0.034 (TRAH MIcro)
    9     dE    -8.064533e-06     5.981930e-05    -8.0553e-06      0.034 (TRAH MIcro)
   10      -1567.473197809144     5.016602e-04                     0.960 (TRAH MAcro)   No
   10     dE    -3.420023e-07     6.133894e-04    -3.4200e-07      0.001 (TRAH MIcro)
   10     dE    -6.574790e-07     5.835994e-04    -6.5747e-07      0.003 (TRAH MIcro)
   10     dE    -9.024063e-07     3.567497e-04    -9.0239e-07      0.004 (TRAH MIcro)
   10     dE    -1.085966e-06     5.234800e-04    -1.0859e-06      0.006 (TRAH MIcro)
   10     dE    -1.511488e-06     6.681907e-04    -1.5114e-06      0.009 (TRAH MIcro)
   10     dE    -1.906643e-06     5.858961e-04    -1.9063e-06      0.012 (TRAH MIcro)
   10     dE    -2.191177e-06     3.339286e-04    -2.1907e-06      0.015 (TRAH MIcro)
   10     dE    -2.272594e-06     2.117291e-04    -2.2720e-06      0.016 (TRAH MIcro)
   10     dE    -2.313750e-06     2.076625e-04    -2.3131e-06      0.016 (TRAH MIcro)
   10     dE    -2.353501e-06     1.960137e-04    -2.3529e-06      0.017 (TRAH MIcro)
   10     dE    -2.412300e-06     2.403639e-04    -2.4116e-06      0.017 (TRAH MIcro)
   10     dE    -2.486124e-06     2.294882e-04    -2.4853e-06      0.018 (TRAH MIcro)
   10     dE    -2.529402e-06     1.760950e-04    -2.5285e-06      0.019 (TRAH MIcro)
   10     dE    -2.551292e-06     1.325427e-04    -2.5504e-06      0.019 (TRAH MIcro)
   10     dE    -2.564844e-06     8.529248e-05    -2.5639e-06      0.019 (TRAH MIcro)
   10     dE    -2.571722e-06     6.477600e-05    -2.5708e-06      0.019 (TRAH MIcro)
   10     dE    -2.576557e-06     4.141396e-05    -2.5756e-06      0.019 (TRAH MIcro)
   11      -1567.473201579360     2.720260e-04                     1.152 (TRAH MAcro)   No
   11     dE    -9.926584e-08     2.968488e-04    -9.9266e-08      0.001 (TRAH MIcro)
   11     dE    -1.854230e-07     2.282406e-04    -1.8542e-07      0.001 (TRAH MIcro)
   11     dE    -2.186801e-07     1.464090e-04    -2.1868e-07      0.002 (TRAH MIcro)
   11     dE    -2.683034e-07     2.579397e-04    -2.6830e-07      0.003 (TRAH MIcro)
   11     dE    -3.322673e-07     3.080213e-04    -3.3226e-07      0.004 (TRAH MIcro)
   11     dE    -4.263854e-07     2.740224e-04    -4.2637e-07      0.005 (TRAH MIcro)
   11     dE    -4.837447e-07     1.817606e-04    -4.8372e-07      0.007 (TRAH MIcro)
   11     dE    -5.015479e-07     1.054559e-04    -5.0152e-07      0.007 (TRAH MIcro)
   11     dE    -5.126151e-07     1.004590e-04    -5.1259e-07      0.007 (TRAH MIcro)
   11     dE    -5.230702e-07     1.068493e-04    -5.2304e-07      0.007 (TRAH MIcro)
   11     dE    -5.351075e-07     1.059332e-04    -5.3508e-07      0.008 (TRAH MIcro)
   11     dE    -5.501598e-07     1.181703e-04    -5.5012e-07      0.008 (TRAH MIcro)
   11     dE    -5.665614e-07     9.995118e-05    -5.6652e-07      0.009 (TRAH MIcro)
   11     dE    -5.738557e-07     7.030394e-05    -5.7381e-07      0.009 (TRAH MIcro)
   11     dE    -5.773657e-07     5.140180e-05    -5.7732e-07      0.009 (TRAH MIcro)
   11     dE    -5.798001e-07     3.251428e-05    -5.7975e-07      0.009 (TRAH MIcro)
   11     dE    -5.812681e-07     2.386178e-05    -5.8122e-07      0.009 (TRAH MIcro)
   12      -1567.473202399728     1.254605e-04                     1.383 (TRAH MAcro)   No
   12     dE    -1.988880e-08     1.307092e-04    -1.9889e-08      0.000 (TRAH MIcro)
   12     dE    -3.655368e-08     9.275939e-05    -3.6554e-08      0.001 (TRAH MIcro)
   12     dE    -4.175581e-08     5.839622e-05    -4.1756e-08      0.001 (TRAH MIcro)
   12     dE    -4.785404e-08     9.274817e-05    -4.7854e-08      0.001 (TRAH MIcro)
   12     dE    -6.202085e-08     1.223072e-04    -6.2021e-08      0.002 (TRAH MIcro)
   12     dE    -7.355127e-08     1.053370e-04    -7.3551e-08      0.002 (TRAH MIcro)
   12     dE    -8.403096e-08     7.147086e-05    -8.4030e-08      0.003 (TRAH MIcro)
   12     dE    -8.673189e-08     4.336922e-05    -8.6731e-08      0.003 (TRAH MIcro)
   12     dE    -8.887685e-08     4.547023e-05    -8.8876e-08      0.003 (TRAH MIcro)
   12     dE    -9.083620e-08     4.811068e-05    -9.0835e-08      0.003 (TRAH MIcro)
   12     dE    -9.310506e-08     4.366879e-05    -9.3104e-08      0.003 (TRAH MIcro)
   12     dE    -9.545056e-08     4.815483e-05    -9.5450e-08      0.003 (TRAH MIcro)
   12     dE    -9.848926e-08     4.597579e-05    -9.8488e-08      0.003 (TRAH MIcro)
   12     dE    -1.001297e-07     3.073769e-05    -1.0013e-07      0.004 (TRAH MIcro)
   12     dE    -1.007840e-07     2.447529e-05    -1.0078e-07      0.004 (TRAH MIcro)
   12     dE    -1.013161e-07     1.769408e-05    -1.0131e-07      0.004 (TRAH MIcro)
   12     dE    -1.016768e-07     1.310816e-05    -1.0168e-07      0.004 (TRAH MIcro)
   12     dE    -1.018147e-07     6.947344e-06    -1.0181e-07      0.004 (TRAH MIcro)
   13      -1567.473202540170     5.083989e-05                           (NR   MAcro)
   13     dE    -3.389785e-09     5.400698e-05                           (NR   MIcro)
   13     dE    -6.163984e-09     3.144600e-05                           (NR   MIcro)
   13     dE    -6.786976e-09     2.230577e-05                           (NR   MIcro)
   13     dE    -7.959864e-09     4.020007e-05                           (NR   MIcro)
   13     dE    -1.001225e-08     4.720718e-05                           (NR   MIcro)
   13     dE    -1.194832e-08     3.784783e-05                           (NR   MIcro)
   13     dE    -1.289146e-08     2.736879e-05                           (NR   MIcro)
   13     dE    -1.327570e-08     1.615654e-05                           (NR   MIcro)
   13     dE    -1.352673e-08     1.517216e-05                           (NR   MIcro)
   13     dE    -1.380727e-08     1.768728e-05                           (NR   MIcro)
   13     dE    -1.415242e-08     1.828360e-05                           (NR   MIcro)
   13     dE    -1.457926e-08     1.830745e-05                           (NR   MIcro)
   13     dE    -1.500122e-08     1.788355e-05                           (NR   MIcro)
   13     dE    -1.523809e-08     1.246897e-05                           (NR   MIcro)
   13     dE    -1.534455e-08     9.274881e-06                           (NR   MIcro)
   13     dE    -1.541945e-08     5.802087e-06                           (NR   MIcro)
   13     dE    -1.545909e-08     4.235940e-06                           (NR   MIcro)
   13     dE    -1.547506e-08     3.098537e-06                           (NR   MIcro)
   13     dE    -1.548544e-08     2.227297e-06                           (NR   MIcro)
   13     dE    -1.549241e-08     2.206312e-06                           (NR   MIcro)
   13     dE    -1.549823e-08     2.349798e-06                           (NR   MIcro)
   13     dE    -1.550760e-08     2.531291e-06                           (NR   MIcro)
   13     dE    -1.551334e-08     1.260228e-06                           (NR   MIcro)
   13     dE    -1.551467e-08     6.052099e-07                           (NR   MIcro)
   14      -1567.473202561320     1.957511e-05                           (NR   MAcro)
   14     dE    -5.139631e-10     2.137775e-05                           (NR   MIcro)
   14     dE    -9.299924e-10     1.114270e-05                           (NR   MIcro)
   14     dE    -1.013742e-09     8.647146e-06                           (NR   MIcro)
   14     dE    -1.205326e-09     1.540070e-05                           (NR   MIcro)
   14     dE    -1.471757e-09     1.798681e-05                           (NR   MIcro)
   14     dE    -1.764611e-09     1.478152e-05                           (NR   MIcro)
   14     dE    -1.883915e-09     1.010667e-05                           (NR   MIcro)
   14     dE    -1.947059e-09     5.762766e-06                           (NR   MIcro)
   14     dE    -1.982011e-09     5.350591e-06                           (NR   MIcro)
   14     dE    -2.012279e-09     5.723736e-06                           (NR   MIcro)
   14     dE    -2.052970e-09     6.554229e-06                           (NR   MIcro)
   14     dE    -2.113971e-09     6.705886e-06                           (NR   MIcro)
   14     dE    -2.169504e-09     5.730640e-06                           (NR   MIcro)
   14     dE    -2.194118e-09     4.602983e-06                           (NR   MIcro)
   14     dE    -2.210448e-09     3.089665e-06                           (NR   MIcro)
   14     dE    -2.220584e-09     2.510717e-06                           (NR   MIcro)
   14     dE    -2.227316e-09     1.568346e-06                           (NR   MIcro)
   14     dE    -2.230263e-09     1.315814e-06                           (NR   MIcro)
   14     dE    -2.232085e-09     1.059799e-06                           (NR   MIcro)
   14     dE    -2.233807e-09     1.009824e-06                           (NR   MIcro)
   14     dE    -2.235810e-09     1.372041e-06                           (NR   MIcro)
   14     dE    -2.237547e-09     1.049548e-06                           (NR   MIcro)
   14     dE    -2.238246e-09     5.775990e-07                           (NR   MIcro)
   15      -1567.473202564257     7.256182e-06                           (NR   MAcro)

               *****************************************************
               *                     SUCCESS                       *
               *           SCF CONVERGED AFTER 296 CYCLES          *
               *****************************************************

Recomputing exchange energy using gridx3       ... done (    0.227 sec)
Old exchange energy                            :    -48.191642680 Eh
New exchange energy                            :    -48.191630421 Eh
Exchange energy change after final integration :      0.000012259 Eh
Total energy after final integration           :  -1567.473190305 Eh
             **** ENERGY FILE WAS UPDATED (/users/s1155246974/li/fe3_doublet/fe3_doublet.en.tmp) ****

----------------
TOTAL SCF ENERGY
----------------

Total Energy       :      -1567.47319030499693 Eh          -42653.11395 eV

Components:
Nuclear Repulsion  :        430.83924757310189 Eh           11723.73195 eV
Electronic Energy  :      -1998.31245013735816 Eh          -54376.84623 eV
One Electron Energy:      -2976.80377385556994 Eh          -81002.94880 eV
Two Electron Energy:        978.49132371821167 Eh           26626.10256 eV

Virial components:
Potential Energy   :      -3130.98674932480753 Eh          -85198.48086 eV
Kinetic Energy     :       1563.51355901981037 Eh           42545.36691 eV
Virial Ratio       :          2.00253252123229

DFT components:
N(Alpha)           :       31.999999824707 electrons
N(Beta)            :       30.999999127655 electrons
N(Total)           :       62.999998952362 electrons
E(XC)              :      -43.777563597545 Eh       

---------------
SCF CONVERGENCE
---------------

  Last Energy change         ...   -2.9363e-09  Tolerance :   1.0000e-08
  Last MAX-Density change    ...    1.1179e-02  Tolerance :   1.0000e-07
  Last RMS-Density change    ...    2.5512e-03  Tolerance :   5.0000e-09
  Last DIIS Error            ...    6.3225e-03  Tolerance :   5.0000e-07


----------------------
UHF SPIN CONTAMINATION
----------------------

Warning: in a DFT calculation there is little theoretical justification to 
         calculate <S**2> as in Hartree-Fock theory. We will do it anyways
         but you should keep in mind that the values have only limited relevance

Expectation value of <S**2>     :     1.676173
Ideal value S*(S+1) for S=0.5   :     0.750000
Deviation                       :     0.926173

----------------
ORBITAL ENERGIES
----------------
                 SPIN UP ORBITALS
  NO   OCC          E(Eh)            E(eV) 
   0   1.0000    -258.753408     -7041.0382 
   1   1.0000     -31.481947      -856.6673 
   2   1.0000     -27.371022      -744.8034 
   3   1.0000     -27.349578      -744.2198 
   4   1.0000     -27.328498      -743.6462 
   5   1.0000     -20.320859      -552.9587 
   6   1.0000     -20.318666      -552.8990 
   7   1.0000     -20.315816      -552.8215 
   8   1.0000     -20.315086      -552.8016 
   9   1.0000      -4.515977      -122.8860 
  10   1.0000      -3.300169       -89.8022 
  11   1.0000      -3.256205       -88.6058 
  12   1.0000      -3.200891       -87.1007 
  13   1.0000      -1.814636       -49.3788 
  14   1.0000      -1.797641       -48.9163 
  15   1.0000      -1.790048       -48.7097 
  16   1.0000      -1.788098       -48.6566 
  17   1.0000      -1.325830       -36.0777 
  18   1.0000      -1.314445       -35.7679 
  19   1.0000      -1.300539       -35.3895 
  20   1.0000      -1.280117       -34.8337 
  21   1.0000      -1.274724       -34.6870 
  22   1.0000      -1.241702       -33.7884 
  23   1.0000      -1.233747       -33.5720 
  24   1.0000      -1.214668       -33.0528 
  25   1.0000      -1.173409       -31.9301 
  26   1.0000      -1.168190       -31.7881 
  27   1.0000      -1.156192       -31.4616 
  28   1.0000      -1.111111       -30.2349 
  29   1.0000      -1.080404       -29.3993 
  30   1.0000      -1.065223       -28.9862 
  31   1.0000      -1.060149       -28.8481 
  32   0.0000      -0.764634       -20.8068 
  33   0.0000      -0.704579       -19.1726 
  34   0.0000      -0.534487       -14.5441 
  35   0.0000      -0.506550       -13.7839 
  36   0.0000      -0.467732       -12.7276 
  37   0.0000      -0.442037       -12.0284 
  38   0.0000      -0.395587       -10.7645 
  39   0.0000      -0.388643       -10.5755 
  40   0.0000      -0.383343       -10.4313 
  41   0.0000      -0.372693       -10.1415 
  42   0.0000      -0.355081        -9.6622 

                 SPIN DOWN ORBITALS
  NO   OCC          E(Eh)            E(eV) 
   0   1.0000    -258.753187     -7041.0322 
   1   1.0000     -31.457846      -856.0115 
   2   1.0000     -27.348188      -744.1820 
   3   1.0000     -27.331546      -743.7292 
   4   1.0000     -27.307032      -743.0621 
   5   1.0000     -20.321221      -552.9685 
   6   1.0000     -20.316837      -552.8492 
   7   1.0000     -20.316582      -552.8423 
   8   1.0000     -20.316096      -552.8291 
   9   1.0000      -4.466598      -121.5423 
  10   1.0000      -3.240832       -88.1875 
  11   1.0000      -3.190421       -86.8158 
  12   1.0000      -3.140339       -85.4530 
  13   1.0000      -1.814676       -49.3798 
  14   1.0000      -1.798059       -48.9277 
  15   1.0000      -1.792313       -48.7713 
  16   1.0000      -1.785036       -48.5733 
  17   1.0000      -1.326563       -36.0976 
  18   1.0000      -1.310609       -35.6635 
  19   1.0000      -1.291116       -35.1331 
  20   1.0000      -1.279898       -34.8278 
  21   1.0000      -1.246832       -33.9280 
  22   1.0000      -1.237044       -33.6617 
  23   1.0000      -1.201133       -32.6845 
  24   1.0000      -1.182819       -32.1861 
  25   1.0000      -1.169662       -31.8281 
  26   1.0000      -1.149416       -31.2772 
  27   1.0000      -1.096586       -29.8396 
  28   1.0000      -1.092683       -29.7334 
  29   1.0000      -1.062808       -28.9205 
  30   1.0000      -1.061789       -28.8927 
  31   0.0000      -0.744986       -20.2721 
  32   0.0000      -0.738504       -20.0957 
  33   0.0000      -0.677091       -18.4246 
  34   0.0000      -0.526145       -14.3171 
  35   0.0000      -0.504685       -13.7332 
  36   0.0000      -0.467935       -12.7331 
  37   0.0000      -0.442086       -12.0298 
  38   0.0000      -0.396148       -10.7797 
  39   0.0000      -0.388266       -10.5653 
  40   0.0000      -0.384035       -10.4501 
  41   0.0000      -0.364192        -9.9102 
*Only the first 10 virtual orbitals were printed.

                    ********************************
                    * MULLIKEN POPULATION ANALYSIS *
                    ********************************

--------------------------------------------
MULLIKEN ATOMIC CHARGES AND SPIN POPULATIONS
--------------------------------------------
   0 Fe:    1.306944    1.018932
   1 O :   -0.210519   -0.012206
   2 H :    0.328832    0.002526
   3 O :   -0.184637   -0.030874
   4 H :    0.303678    0.000806
   5 O :   -0.262414    0.056080
   6 H :    0.344783   -0.001344
   7 O :   -0.307489   -0.024596
   8 H :    0.346670   -0.001518
   9 H :    0.333452   -0.004160
  10 H :    0.330722   -0.003830
  11 H :    0.349844   -0.001523
  12 H :    0.320134    0.001707
Sum of atomic charges         :    3.0000000
Sum of atomic spin populations:    1.0000000

-----------------------------------------------------
MULLIKEN REDUCED ORBITAL CHARGES AND SPIN POPULATIONS
-----------------------------------------------------
CHARGE
  0 Fes       :     6.311112  s :     6.311112
      pz      :     4.095849  p :    12.407877
      px      :     4.157009
      py      :     4.155019
      dz2     :     1.074860  d :     5.970713
      dxz     :     1.583507
      dyz     :     1.197053
      dx2y2   :     0.736620
      dxy     :     1.378672
      f0      :     0.000153  f :     0.003355
      f+1     :     0.000391
      f-1     :     0.000415
      f+2     :     0.000279
      f-2     :     0.000031
      f+3     :     0.001023
      f-3     :     0.001063

  1 O s       :     3.632485  s :     3.632485
      pz      :     1.290093  p :     4.569271
      px      :     1.719153
      py      :     1.560025
      dz2     :     0.000667  d :     0.008763
      dxz     :     0.004557
      dyz     :     0.000302
      dx2y2   :     0.001627
      dxy     :     0.001611

  2 H s       :     0.603793  s :     0.603793
      pz      :     0.033841  p :     0.067375
      px      :     0.018655
      py      :     0.014879

  3 O s       :     3.634306  s :     3.634306
      pz      :     1.707623  p :     4.541114
      px      :     1.545950
      py      :     1.287541
      dz2     :     0.000858  d :     0.009218
      dxz     :     0.001711
      dyz     :     0.004664
      dx2y2   :     0.001424
      dxy     :     0.000561

  4 H s       :     0.628495  s :     0.628495
      pz      :     0.021004  p :     0.067827
      px      :     0.015478
      py      :     0.031345

[...]
  Last Orbital Gradient      ...    1.3428e-05  Tolerance :   1.0000e-05
  Last Orbital Rotation      ...    2.3151e-04  Tolerance :   1.0000e-05


----------------------
UHF SPIN CONTAMINATION
----------------------

Warning: in a DFT calculation there is little theoretical justification to 
         calculate <S**2> as in Hartree-Fock theory. We will do it anyways
         but you should keep in mind that the values have only limited relevance

Expectation value of <S**2>     :     1.704730
Ideal value S*(S+1) for S=0.5   :     0.750000
Deviation                       :     0.954730

Total SCF time: 0 days 0 hours 0 min 34 sec 
Finished LeanSCF after  34.4 sec

Maximum memory used throughout the entire LEANSCF-calculation: 13.5 MB


           ************************************************************
           *        Program running with 64 parallel MPI-processes    *
           *              working on a common directory               *
           ************************************************************

------------------------------------------------------------------------------
                         ORCA PROPERTY INTEGRAL CALCULATIONS
------------------------------------------------------------------------------

GBWName                                   ... /users/s1155246974/li/fe3_doublet/fe3_doublet.gbw
Number of atoms                           ...     13
Number of basis functions                 ...    127
Max core memory                           ...   2109 MB

Dipole integrals                          ... YES
Quadrupole integrals                      ...  NO
Linear momentum integrals                 ...  NO
Angular momentum integrals                ...  NO
Higher moments length integrals           ...  NO
Higher moments velocity integrals         ...  NO
Kinetic energy integrals                  ...  NO
GIAO right hand sides                     ...  NO
GIAO dipole derivative integrals          ...  NO
SOC integrals                             ...  NO
EPR diamagnetic integrals (GIAO)          ...  NO
EPR gauge integrals                       ...  NO
Field gradient integrals                  ...  NO (   0 nuclei)
Spin-dipole/Fermi contact integrals       ...  NO (   0 nuclei)
Contact density integrals                 ...  NO (   0 nuclei)
Nucleus-orbit integrals                   ...  NO (   0 nuclei)
Geometric perturbations                   ...  NO (  13 nuclei)

Choice of electric origin   ... Center of mass
Position of electric origin ... ( -3.8387, -1.8278, -0.1550) 
Choice of magnetic origin   ... GIAO
Position of magnetic origin ... (  0.0000,  0.0000,  0.0000) 

Calculating integrals                     ... Electric Dipole (Length)     done (  0.0 sec)

Property integrals calculated in   0.1 sec

Maximum memory used throughout the entire PROPINT-calculation: 9.5 MB

-------------------------   --------------------
FINAL SINGLE POINT ENERGY     -1567.541343899823
-------------------------   --------------------



           ************************************************************
           *        Program running with 64 parallel MPI-processes    *
           *              working on a common directory               *
           ************************************************************
------------------------------------------------------------------------------
                         ORCA SCF GRADIENT CALCULATION
------------------------------------------------------------------------------

Nuc. rep. gradient        (SHARK) ... done (  0.0 sec)
HCore & Overlap gradient  (SHARK) ... done (  0.4 sec)
Split-RIJ-J gradient      (SHARK) ... done (  0.2 sec)
done (  0.4 sec)
XC gradient                       ... done (  0.3 sec)

------------------
CARTESIAN GRADIENT
------------------

   1   Fe  :    0.001001615   -0.000234163   -0.001301227
   2   O   :    0.001649598    0.000003963    0.000191055
   3   H   :    0.000267337    0.001033125    0.000477633
   4   O   :   -0.002072319   -0.002207158    0.002530213
   5   H   :    0.000592597   -0.000348872   -0.002090986
   6   O   :   -0.001548295    0.000048072   -0.000405128
   7   H   :    0.000737393   -0.000432932   -0.000219172
   8   O   :   -0.000139566    0.000804007    0.000822547
   9   H   :    0.000809777   -0.000038821   -0.001261884
  10   H   :   -0.000343407   -0.000407521    0.000325586
  11   H   :    0.000550553    0.001466867    0.000342463
  12   H   :    0.000104936   -0.000228327    0.000914815
  13   H   :   -0.001610220    0.000541760   -0.000325915

Difference to translation invariance:
           :    0.0000000000   -0.0000000000    0.0000000001

Difference to rotation invariance:
           :    0.0016826708    0.0015019757    0.0006055189

Norm of the Cartesian gradient     ...    0.0064092631
RMS gradient                       ...    0.0010263035
MAX gradient                       ...    0.0025302133

-------
TIMINGS
-------

Total SCF gradient time     ....        1.256 sec

Densities                   ....       0.013 sec  (  1.0%)
One electron gradient       ....       0.353 sec  ( 28.1%)
RI-J Coulomb gradient       ....       0.184 sec  ( 14.7%)
COSX gradient               ....       0.373 sec  ( 29.7%)
XC gradient                 ....       0.318 sec  ( 25.3%)

Maximum memory used throughout the entire SCFGRAD-calculation: 16.2 MB
------------------------------------------------------------------------------
                         ORCA GEOMETRY RELAXATION STEP
------------------------------------------------------------------------------

Reading the OPT-File                    .... done
Getting information on internals        .... done
Copying old internal coords+grads       .... done
Making the new internal coordinates     .... (2022 redundants) done
Validating the new internal coordinates .... (2022 redundants) done
Calculating the B-matrix                .... done
Calculating the G,G- and P matrices     .... done
Transforming gradient to internals      .... done
Projecting the internal gradient        .... done
Number of atoms                         ....  13
Number of internal coordinates          ....  52
Current Energy                          .... -1567.541343900 Eh
Current gradient norm                   ....     0.006409263 Eh/bohr
Maximum allowed component of the step   ....  0.300
Current trust radius                    ....  0.100
Updating the Hessian (BFGS)             .... done
Forming the augmented Hessian           .... done
Diagonalizing the augmented Hessian     .... done
Last element of RFO vector              ....  0.780228372
Lowest eigenvalues of augmented Hessian:
 -0.000729530  0.000820879  0.003239791  0.005262357  0.007928599
Length of the computed step             ....  0.801681633
Warning: the length of the step is outside the trust region - taking restricted step instead
The input lambda is                     ....    -0.000781
   iter:   5  x=   -0.006135  g=   11.428096 f(x)=     0.019006
   iter:  10  x=   -0.008296  g=    2.016557 f(x)=     0.000000
The output lambda is                    ....    -0.008296 (11 iterations)
The final length of the internal step   ....  0.100000000
Converting the step to Cartesian space:
 Initial RMS(Int)=    0.0138675049
Transforming coordinates:
 Iter   0:  RMS(Cart)=    0.0144199018 RMS(Int)=    0.0138320094
done
Storing new coordinates                 .... done
The predicted energy change is          ....    -0.000125754
Previously predicted energy change      ....    -0.000122096
Actually observed energy change         ....    -0.000166681
Ratio of predicted to observed change   ....     1.365159976
New trust radius                        ....     0.100000000

                                .--------------------.
          ----------------------|Geometry convergence|-------------------------
          Item                value                   Tolerance       Converged
          ---------------------------------------------------------------------
          Energy change      -0.0001666805            0.0000050000      NO
          RMS gradient        0.0007004947            0.0001000000      NO
          MAX gradient        0.0019637040            0.0003000000      NO
          RMS step            0.0138675049            0.0020000000      NO
          MAX step            0.0328675146            0.0040000000      NO
          -------------------------------------------------------------------------
          ........................................................
          Max(Bonds)      0.0005      Max(Angles)    0.17
          Max(Dihed)        1.88      Max(Improp)    0.00
          ---------------------------------------------------------------------

The optimization has not yet converged - more geometry cycles are needed


    ---------------------------------------------------------------------------
                         Redundant Internal Coordinates
                            (Angstroem and degrees)

        Definition                    Value    dE/dq     Step     New-Value
    ----------------------------------------------------------------------------
     1. B(O   1,Fe  0)                1.9118  0.001555  0.0001    1.9118   
     2. B(H   2,O   1)                0.9927  0.001023  0.0000    0.9927   
     3. B(O   3,Fe  0)                1.8827  0.000863 -0.0005    1.8822   
     4. B(H   4,O   3)                0.9925  0.000727 -0.0000    0.9925   
     5. B(O   5,Fe  0)                1.8961  0.000867 -0.0005    1.8956   
     6. B(H   6,O   5)                0.9933  0.000708  0.0000    0.9933   
     7. B(O   7,Fe  0)                1.8850  0.000848 -0.0002    1.8848   
     8. B(H   8,O   7)                0.9924  0.000803 -0.0001    0.9923   
     9. B(H   9,O   5)                0.9928  0.000645  0.0000    0.9928   
    10. B(H  10,O   3)                0.9920  0.000955 -0.0000    0.9920   
    11. B(H  11,O   7)                0.9918  0.000636 -0.0000    0.9918   
    12. B(H  12,O   1)                0.9927  0.000785 -0.0000    0.9927   
    13. A(O   1,Fe  0,O   3)           91.46  0.000730   -0.06     91.41   
    14. A(O   5,Fe  0,O   7)           91.83  0.001028   -0.15     91.68   
    15. A(O   1,Fe  0,O   7)           89.01  0.000235    0.00     89.01   
    16. A(O   3,Fe  0,O   5)           88.55 -0.001964    0.06     88.61   
    17. A(Fe  0,O   1,H  12)          125.49 -0.000324   -0.01    125.49   
    18. A(H   2,O   1,H  12)          107.33 -0.000319   -0.08    107.26   
    19. A(Fe  0,O   1,H   2)          126.64  0.000641   -0.08    126.56   
    20. A(H   4,O   3,H  10)          108.13  0.001480    0.13    108.26   
    21. A(Fe  0,O   3,H   4)          125.52 -0.000691    0.17    125.68   
    22. A(Fe  0,O   3,H  10)          125.20 -0.001000    0.16    125.36   
    23. A(H   6,O   5,H   9)          107.66 -0.000024   -0.02    107.65   
    24. A(Fe  0,O   5,H   6)          125.58 -0.000036   -0.01    125.57   
    25. A(Fe  0,O   5,H   9)          126.53  0.000020    0.02    126.55   
    26. A(H   8,O   7,H  11)          107.73 -0.000007    0.01    107.74   
    27. A(Fe  0,O   7,H  11)          126.69 -0.000353    0.05    126.74   
    28. A(Fe  0,O   7,H   8)          125.53  0.000352   -0.04    125.49   
    29. D(H  12,O   1,Fe  0,O   3)    -78.25  0.000120   -1.05    -79.29   
    30. D(H  12,O   1,Fe  0,O   7)    112.23  0.000703   -1.82    110.41   
    31. D(H   2,O   1,Fe  0,O   3)     92.31  0.000071   -1.00     91.31   
    32. D(H   2,O   1,Fe  0,O   7)    -77.21  0.000654   -1.77    -78.99   
    33. D(H   4,O   3,Fe  0,O   5)    -29.19 -0.000647    0.51    -28.68   
    34. D(H   4,O   3,Fe  0,O   1)    146.11 -0.000647    0.80    146.91   
    35. D(H  10,O   3,Fe  0,O   1)    -20.14  0.000407    0.70    -19.44   
    36. D(H  10,O   3,Fe  0,O   5)    164.56  0.000407    0.41    164.98   
    37. D(H   6,O   5,O   1,H  12)     46.80  0.000631   -1.33     45.47   
    38. D(H   6,O   5,O   1,H   2)   -142.24 -0.000309   -1.49   -143.72   
    39. D(H   9,O   5,Fe  0,O   7)    109.83 -0.000645    0.66    110.49   
    40. D(H   9,O   5,Fe  0,O   3)    -59.69  0.000023   -0.10    -59.80   
    41. D(H   6,O   5,Fe  0,O   7)    -64.03 -0.000095    0.34    -63.69   
    42. D(H   9,O   5,O   1,H   2)     33.50 -0.000088   -1.25     32.25   
    43. D(H   6,O   5,Fe  0,O   3)    126.45  0.000572   -0.42    126.02   
    44. D(H   9,O   5,O   1,H  12)   -137.46  0.000852   -1.10   -138.56   
    45. D(H  11,O   7,O   3,H  10)    134.35 -0.000138    1.58    135.92   
    46. D(H   8,O   7,O   3,H  10)    -41.52 -0.000225    1.88    -39.64   
    47. D(H   8,O   7,O   3,H   4)    131.53 -0.000809    1.62    133.14   
    48. D(H  11,O   7,Fe  0,O   5)    -23.07 -0.000055    0.98    -22.08   
    49. D(H  11,O   7,Fe  0,O   1)    161.56 -0.000290    0.73    162.29   
    50. D(H  11,O   7,O   3,H   4)    -52.61 -0.000722    1.31    -51.29   
    51. D(H   8,O   7,Fe  0,O   5)    154.01 -0.000285    1.39    155.39   
    52. D(H   8,O   7,Fe  0,O   1)    -21.37 -0.000521    1.13    -20.24   
    ----------------------------------------------------------------------------

Geometry step timings:
Preparation and reading OPT file:      0.000 s ( 1.504 %)
Internal coordinates            :      0.000 s ( 0.741 %)
B/P matrices and projection     :      0.000 s ( 9.542 %)
Hessian update/contruction      :      0.002 s (47.418 %)
Making the step                 :      0.001 s (11.338 %)
Converting the step to Cartesian:      0.000 s ( 1.302 %)
Storing new data                :      0.000 s ( 1.796 %)
Checking convergence            :      0.000 s ( 1.100 %)
Final printing                  :      0.001 s (25.191 %)
Total time                      :      0.004 s

Time for energy+gradient        :     50.285 s
Time for complete geometry iter :     58.769 s




    ----------------------------------------------------------------------------
                                   ERROR !!!
       The optimization did not converge but reached the maximum 
       number of optimization cycles.
       As a subsequent Frequencies calculation has been requested
       ORCA will abort at this point of the run.
       Please restart the calculation with the lowest energy geometry and/or
       a larger maxiter for the geometry optimization.
    ----------------------------------------------------------------------------



--------------------------------
SUGGESTED CITATIONS FOR THIS RUN
--------------------------------

Below you find a list of papers that are relevant to this ORCA run
We neither can nor want to force you to cite these papers, but we appreciate if you do
You receive ORCA, which is the product of decades of hard work by many enthusiastic individuals, for free
The only thing we kindly ask in return is that you cite our papers,
We deeply appreciate it, if you show your appreciation for ORCA by not just citing the generic ORCA reference.

Please note that relegating all ORCA citations to the supporting information does *not* help us.
SI sections are not indexed - citations you put there will not count into any citation statistics
But we need these citations in order to attract the funding resources that allow us to do what we are doing

Therefore, if you are a happy ORCA user, please consider citing a few of the papers listed below in the main body of your paper

In addition to the list printed below, the program has created the file /users/s1155246974/li/fe3_doublet/fe3_doublet.bibtex that contains the list in bibtex format
You can import this file easily into all common literature databanks and citation aid programs


List of essential papers. We consider these as the minimum necessary citations

  1. Neese, F.
     Software update: the ORCA program system, version 6.0
     WIRES Comput. Molec. Sci. 2025 15(1), e70019
     doi.org/10.1002/wcms.7019

List of papers to cite with high priority. The work reported in these papers was absolutely
necessary for this run to complete.
Our perspective: the developers of density functionals and basis sets usually get cited in chemistry papers
Good! But without the algorithms to do something with them, the functionals or basis sets would not do anything.
Hence, in our opinion, the algorithm design and method developments papers are equally worthy of getting cited

  1. Neese, F.
     An improvement of the resolution of the identity approximation for the formation of the Coulomb matrix
     J. Comp. Chem. 2003 24(14), 1740-1747
     doi.org/10.1002/jcc.10318
  2. Neese, F.; Wennmohs, F.; Hansen, A.; Becker, U.
     Efficient, approximate and parallel Hartree-Fock and hybrid DFT calculations. A 'chain-of-spheres' algorithm for the Hartree-Fock exchange
     Chem. Phys. 2009 356(1-3), 98-109
     doi.org/10.1016/j.chemphys.2008.10.036
  3. Bykov, D.; Petrenko, T.; Izsak, R.; Kossmann, S.; Becker, U.; Valeev, E.; Neese, F.
     Efficient implementation of the analytic second derivatives of Hartree-Fock and hybrid DFT energies: a detailed analysis of different approximations
     Molec. Phys. 2015 113 , 1961-1977
     doi.org/10.1080/00268976.2015.1025114
  4. Helmich-Paris, B.; de Souza, B.; Neese, F.; Izsák, R.
     An improved chain of spheres for exchange algorithm
     J. Chem. Phys. 2021 155(10), 104109
     doi.org/10.1063/5.0058766
  5. Helmich-Paris, B.
     A trust-region augmented Hessian implementation for restricted and unrestricted Hartree–Fock and Kohn–Sham methods
     J. Chem. Phys. 2021 154 , 164104
     doi.org/10.1063/5.0040798
  6. Neese, F.
     The SHARK Integral Generation and Digestion System
     J. Comp. Chem. 2022 44(3), 381
     doi.org/10.1002/jcc.26942

List of suggested additional citations. These are papers that are important in the 'surrounding' of 
of this run, or papers that preceded the highly important papers. If you like your results we are grateful for a citation.

  1. Izsak, R.; Neese, F.
     An overlap fitted chain of spheres exchange method
     J. Chem. Phys. 2011 135 , 144105
     doi.org/10.1063/1.3646921
  2. Izsak, R.; Hansen, A.; Neese, F.
     The resolution of identity and chain of spheres approximations for the LPNO-CCSD singles Fock term
     Molec. Phys. 2012 110 , 2413-2417
     doi.org/10.1080/00268976.2012.687466
  3. Neese, F.
     The ORCA program system
     WIRES Comput. Molec. Sci. 2012 2(1), 73-78
     doi.org/10.1002/wcms.81
  4. Izsak, R.; Neese, F.; Klopper, W.
     Robust fitting techniques in the chain of spheres approximation to the Fock exchange: The role of the complementary space
     J. Chem. Phys. 2013 139 , 
     doi.org/10.1063/1.4819264
  5. Neese, F.
     Software update: the ORCA program system, version 4.0
     WIRES Comput. Molec. Sci. 2018 8(1), 1-6
     doi.org/10.1002/wcms.1327
  6. Neese, F.; Wennmohs, F.; Becker, U.; Riplinger, C.
     The ORCA quantum chemistry program package
     J. Chem. Phys. 2020 152(22), 224108
     doi.org/10.1063/5.0004608
  7. Neese, F.
     Software update: The ORCA program system—Version 5.0
     WIRES Comput. Molec. Sci. 2022 12(1), e1606
     doi.org/10.1002/wcms.1606

List of optional additional citations

  1. Neese, F.
     Approximate second-order SCF convergence for spin unrestricted wavefunctions
     Chem. Phys. Lett. 2000 325(1-3), 93-98
     doi.org/10.1016/s0009-2614(00)00662-x

Timings for individual modules:

Sum of individual times          ...     4480.364 sec (=  74.673 min)
Startup calculation              ...      376.885 sec (=   6.281 min)   8.4 %
SCF iterations                   ...     3750.259 sec (=  62.504 min)  83.7 %
Property integrals               ...      137.141 sec (=   2.286 min)   3.1 %
SCF Gradient evaluation          ...      212.838 sec (=   3.547 min)   4.8 %
Geometry relaxation              ...        3.241 sec (=   0.054 min)   0.1 %
                             ****ORCA TERMINATED NORMALLY****
TOTAL RUN TIME: 0 days 1 hours 27 minutes 13 seconds 281 msec
