
                                 *****************
                                 * O   R   C   A *
                                 *****************

                                            #,                                       
                                            ###                                      
                                            ####                                     
                                            #####                                    
                                            ######                                   
                                           ########,                                 
                                     ,,################,,,,,                         
                               ,,#################################,,                 
                          ,,##########################################,,             
                       ,#########################################, ''#####,          
                    ,#############################################,,   '####,        
                  ,##################################################,,,,####,       
                ,###########''''           ''''###############################       
              ,#####''   ,,,,##########,,,,          '''####'''          '####       
            ,##' ,,,,###########################,,,                        '##       
           ' ,,###''''                  '''############,,,                           
         ,,##''                                '''############,,,,        ,,,,,,###''
      ,#''                                            '''#######################'''  
     '                                                          ''''####''''         
             ,#######,   #######,   ,#######,      ##                                
            ,#'     '#,  ##    ##  ,#'     '#,    #''#        ,####,    ,#,          
            ##       ##  ##   ,#'  ##            #'  '#       #'       ,# #          
            ##       ##  #######   ##           ,######,      #####,      #          
            '#,     ,#'  ##    ##  '#,     ,#' ,#      #,     #,   #      #          
             '#######'   ##     ##  '#######'  #'      '#     '####' #    #          



                #########################################################
                #                        -***-                          #
                #          Department of theory and spectroscopy        #
                #                                                       #
                #                      Frank Neese                      #
                #                                                       #
                #     Directorship, Architecture, Infrastructure        #
                #                    SHARK, DRIVERS                     #
                #        Core code/Algorithms in most modules           #
                #                                                       #
                #        Max Planck Institute fuer Kohlenforschung      #
                #                Kaiser Wilhelm Platz 1                 #
                #                 D-45470 Muelheim/Ruhr                 #
                #                      Germany                          #
                #                                                       #
                #                  All rights reserved                  #
                #                        -***-                          #
                #########################################################


                         Program Version 6.1.0  -  RELEASE   -
                                (GIT: $679e74b$)
                          ($2025-06-10 18:02:51 +0200$)


 With contributions from (in alphabetic order):
[Max-Planck-Institut fuer Kohlenforschung]                               
  Daniel Aravena         : Magnetic Suceptibility                        
  Michael Atanasov       : Ab Initio Ligand Field Theory (pilot matlab implementation)
  Alexander A. Auer      : GIAO ZORA, VPT2 properties, NMR spectrum      
  Ute Becker             : All parallelization in ORCA, NUMFREQ, NUMCALC 
  Giovanni Bistoni       : ED, misc. LED, open-shell LED, HFLD           
  Dmytro Bykov           : pre 5.0 version of the SCF Hessian            
  Marcos Casanova-Páez   : Triplet and SCS-CIS(D). UHF-(DLPNO)-IP/EA/STEOM-CCSD. UHF-CVS-IP/STEOM-CCSD   
  Vijay G. Chilkuri      : MRCI spin determinant printing, contributions to CSF-ICE 
  Pauline Colinet        : FMM embedding                                 
  Dipayan Datta          : RHF DLPNO-CCSD density                        
  Achintya Kumar Dutta   : EOM-CC, STEOM-CC                              
  Nicolas Foglia         : Exact transition moments, OPA infrastructure, MCD improvements    
  Dmitry Ganyushin       : Spin-Orbit,Spin-Spin,Magnetic field MRCI      
  Miquel Garcia-Rates    : C-PCM and meta-GGA Hessian, CCSD/C-PCM, Gaussian charge scheme 
  Tiago L. C. Gouveia    : GS-ROHF, GS-ROCIS                             
  Yang Guo               : DLPNO-NEVPT2, F12-NEVPT2, CIM, IAO-localization        
  Andreas Hansen         : Spin unrestricted coupled pair/coupled cluster methods 
  Ingolf Harden          : AUTO-CI MPn and infrastructure                
  Benjamin Helmich-Paris : MC-RPA, TRAH-(SCF,CASSCF), AVAS, COSX integrals, SCF dyn. polar., MC-PDFT, srDFT 
  Lee Huntington         : MR-EOM, pCC                                   
  Robert Izsak           : Overlap fitted RIJCOSX, COSX-SCS-MP3, EOM     
  Riya Kayal             : Wick's Theorem for AUTO-CI, AUTO-CI UHF-CCSDT 
  Emily Kempfer          : AUTO-CI RHF CISDT and CCSDT, approximate NEVPT4
  Christian Kollmar      : KDIIS, OOCD, Brueckner-CCSD(T), CCSD density, CASPT2, CASPT2-K, improved NEVPT2 
  Axel Koslowski         : Symmetry handling                             
  Simone Kossmann        : meta-GGA functionals, TD-DFT gradient, OOMP2, (MP2 Hessian; deprecated post 5.0) 
  Lucas Lang             : DCDCAS, Hyperfine gauge corrections, ICE-SOC+SSC
  Marvin Lechner         : AUTO-CI (C++ implementation), FIC-MRCC        
  Spencer Leger          : CASSCF response                               
  Dagmar Lenk            : GEPOL surface, SMD, ORCA-2-JSON               
  Dimitrios Liakos       : Extrapolation schemes; Compound Job, Property file
  Dimitrios Manganas     : Further ROCIS development; embedding schemes. LFT, Crystal Embedding 
  Dimitrios Pantazis     : SARC Basis sets                               
  Anastasios Papadopoulos: AUTO-CI, single reference methods and gradients 
  Taras Petrenko         : pre 6.0 DFT Hessian and TD-DFT gradient,  ECA, NRVS 
  Petra Pikulova         : Analytic Raman intensities                    
  Peter Pinski           : DLPNO-MP2, DLPNO-MP2 Gradient                 
  Shashank Vittal Rao    : ES-AILFT, MagRelax                            
  Christoph Reimann      : Effective Core Potentials                     
  Marius Retegan         : Local ZFS, SOC                                
  Christoph Riplinger    : Optimizer, TS searches, QM/MM, DLPNO-CCSD(T), (RO)-DLPNO pert. Triples 
  Michael Roemelt        : Original ROCIS implementation, recursive CI coupling coefficients
  Masaaki Saitow         : Open-shell DLPNO-CCSD energy and density      
  Barbara Sandhoefer     : DKH picture change effects                    
  Yorick L. A. Schmerwitz: GMF and freeze-and-release deltaSCF, NEB S-IDPP initial path                    
  Kantharuban Sivalingam : CASSCF convergence/infrastructure, NEVPT2, NEVPT3, NEVPT4(SD), FIC-MRCI and CEPA variants
  Bernardo de Souza      : ESD, SOC TD-DFT                               
  Georgi L. Stoychev     : AutoAux, RI-MP2 NMR, DLPNO-MP2 response, X2C  
  Van Anh Tran           : RI-MP2 g-tensors                              
  Willem Van den Heuvel  : Paramagnetic NMR                              
  Zikuan Wang            : NOTCH, Electric field optimization            
  Frank Wennmohs         : Technical directorship and infrastructure     
  Hang Xu                : AUTO-CI-Response properties                   
                                                                         
[FACCTs GmbH]                                                            
  Markus Bursch, Nicolas Foglia, Miquel Garcia-Rates, Ingolf Harden, Hagen Neugebauer, Anastasios Papadopoulos, 
  Christoph Riplinger, Bernardo de Souza, Georgi L. Stoychev                                                    
                                                                 
  APM, various basis sets, CI-OPT, improved COSX, DLPNO-Multilevel,           
  DOCKER, DRACO, updates on ESD, Fragmentator, GOAT, IRC, LR-CPCM, L-BFGS, MBIS, meta-GGA TD-DFT gradient, ML-optimized integration grids, 
  MM, NACMEs, nearIR, NEB, NEB-TS, NL-DFT gradient (VV10), 2- and 3-layer-ONIOM, interface openCOSMO-RS, QMMM,   
  Crystal-QMMM, RESP, rigid body optimization, SF, symmetry and pop. for TD-DFT, various functionals, SOLVATOR                                   
                                                                         
[Other institutions]                                                     
  V. Asgeirsson          : NEB                                           
  Christoph Bannwarth    : sTDA-DFT, sTD-DFT, PBEh-3c, B97-3c, D3        
  Giovanni Bistoni       : ETS/NOCV, ADLD/ADEX, COVALED                  
  Martin Brehm           : Molecular dynamics                            
  Ronald Cardenas        : ETS/NOCV                                      
  Martina Colucci        : COVALED                                       
  Sebastian Ehlert       : rSCAN, r2SCAN, r2SCAN-3c, D4, dhf basis sets  
  Marvin Friede          : D4 for Fr, Ra, Ac-Lr                          
  Lars Goerigk           : TD-DFT with DH, B97 family of functionals     
  Stefan Grimme          : VdW corrections, initial TS optimization, DFT functionals, gCP, sTDA/sTD-DF 
  Waldemar Hujo          : DFT-NL                                        
  H. Jonsson             : NEB                                           
  Holger Kruse           : gCP                                           
  Marcel Mueller         : wB97X-3c, vDZP basis set                      
  Hagen Neugebauer       : wr2SCAN, Native XTB                           
  Gianluca Regni         : ADLD/ADEX                                     
  Tobias Risthaus        : pre 6.0 range-separated hybrid DFT and stability analysis
  Lukas Wittmann         : regularized MP2, r2SCAN double-hybrids, wr2SCAN        
                                                                         
We gratefully acknowledge several colleagues who have allowed us to      
interface, adapt or use parts of their codes:                            
  Ed Valeev, F. Pavosevic, A. Kumar             : LibInt (2-el integral package), F12 methods 
  Garnet Chan, S. Sharma, J. Yang, R. Olivares  : DMRG                   
  Ulf Ekstrom                                   : XCFun DFT Library      
  Mihaly Kallay                                 : mrcc  (arbitrary order and MRCC methods)
  Frank Weinhold                                : gennbo (NPA and NBO analysis)           
  Simon Mueller                                 : openCOSMO-RS                            
  Christopher J. Cramer and Donald G. Truhlar   : smd solvation model                     
  S Lehtola, MJT Oliveira, MAL Marques          : LibXC Library                           
  Liviu Ungur et al                             : ANISO software                          


 Your calculation uses the libint2 library for the computation of 2-el integrals
 For citations please refer to: http://libint.valeyev.net

 Your ORCA version has been built with support for libXC version: 7.0.0
 For citations please refer to: https://libxc.gitlab.io

 This ORCA versions uses:
   CBLAS   interface :  Fast vector & matrix operations
   LAPACKE interface :  Fast linear algebra routines
   SCALAPACK package :  Parallel linear algebra routines
   Shared memory     :  Shared parallel matrices
   BLAS/LAPACK       :  OpenBLAS 0.3.29  USE64BITINT DYNAMIC_ARCH NO_AFFINITY Cooperlake SINGLE_THREADED
        Core in use  :  Cooperlake
   Copyright (c) 2011-2014, The OpenBLAS Project


  ***********************************
  * Starting time: Mon Jul  6 15:49:00 2026
  * Host name:     chpc-cn081.rc.cuhk.edu.hk
  * Process ID:    1947609
  * Working dir.:  /ss02/scratch/s1/xlzhang/huiwen/KOH_opt5_opt
  ***********************************

NOTE: MaxCore=6738 MB was set to SCF,MP2,MDCI,CIPSI,MRCI,RASCI and CIS
      => If you want to overwrite this, your respective input block should be placed after the MaxCore statement
Your calculation utilizes the atom-pairwise dispersion correction
with the zero-damping scheme (D30)


Warning: RI is on but no J-basis has been assigned. Assigning Def2/J (nothing to worry about!)
================================================================================

----- Orbital basis set information -----
Your calculation utilizes the basis: def2-SVP
   F. Weigend and R. Ahlrichs, Phys. Chem. Chem. Phys. 7, 3297 (2005).

----- AuxJ basis set information -----
Your calculation utilizes the auxiliary basis: def2/J
   H-Rn: F. Weigend, Phys. Chem. Chem. Phys. 8, 1057 (2006).
   Fr-Lr: K. Eichkorn, F. Weigend, O. Treutler, R. Ahlrichs; Theor. Chem. Acc. 97, 119 (1997).

================================================================================
                                        WARNINGS
                       Please study these warnings very carefully!
================================================================================


WARNING: Geometry Optimization
  ===> : Switching off AutoStart
         For restart on a previous wavefunction, please use MOREAD

================================================================================
                                       INPUT FILE
================================================================================
NAME = /users/s1155246975/huiwen_scratch/huiwen/KOH_opt5_opt/KOH_opt5_opt.inp
|  1> ! Opt Freq B3LYP def2-SVP D3ZERO defgrid2
|  2> # Number of processors
|  3> %pal nprocs 64 end
|  4> # Memory per core
|  5> %maxcore 6738
|  6> * xyz 0 1
|  7> O        0.0335820000    1.8169970000    0.0000000000
|  8> H       -0.9067060000    2.0510870000    0.0000000000
|  9> K        0.0335820000   -0.8730030000    0.0000000000
| 10> *
| 11> 
| 12>                          ****END OF INPUT****
================================================================================

                       *****************************
                       * Geometry Optimization Run *
                       *****************************

Geometry optimization settings:
Update method            Update   .... BFGS
Choice of coordinates    CoordSys .... (2022) Redundant Internals
Initial Hessian          InHess   .... Almloef's Model
Max. no of cycles        MaxIter  .... 50

Convergence Tolerances:
Energy Change            TolE     ....  5.0000e-06 Eh
Max. Gradient            TolMAXG  ....  3.0000e-04 Eh/bohr
RMS Gradient             TolRMSG  ....  1.0000e-04 Eh/bohr
Max. Displacement        TolMAXD  ....  4.0000e-03 bohr
RMS Displacement         TolRMSD  ....  2.0000e-03 bohr
Strict Convergence                .... False

------------------------------------------------------------------------------
                        ORCA OPTIMIZATION COORDINATE SETUP
------------------------------------------------------------------------------

The optimization will be done in redundant internal coordinates (2022)
Making redundant internal coordinates   ...  (2022 redundants) done
Evaluating the initial hessian          ...  (Almloef) done
Evaluating the coordinates              ...  done
Calculating the B-matrix                .... done
Calculating the G-matrix                .... done
The number of degrees of freedom        ....    3

    -----------------------------------------------------------------
                    Redundant Internal Coordinates


    -----------------------------------------------------------------
         Definition                    Initial Value    Approx d2E/dq
    -----------------------------------------------------------------
      1. B(H   1,O   0)                  0.9690         0.503066   
      2. B(K   2,O   0)                  2.6900         0.207543   
      3. A(H   1,O   0,K   2)          103.9799         0.359972   
    -----------------------------------------------------------------

Number of atoms                         .... 3
Number of degrees of freedom            .... 3


         *************************************************************
         *                GEOMETRY OPTIMIZATION CYCLE   1            *
         *************************************************************
---------------------------------
CARTESIAN COORDINATES (ANGSTROEM)
---------------------------------
  O      0.033582    1.816997    0.000000
  H     -0.906706    2.051087    0.000000
  K      0.033582   -0.873003    0.000000

----------------------------
CARTESIAN COORDINATES (A.U.)
----------------------------
  NO LB      ZA    FRAG     MASS         X           Y           Z
   0 O     8.0000    0    15.999    0.063461    3.433627    0.000000
   1 H     1.0000    0     1.008   -1.713426    3.875993    0.000000
   2 K    19.0000    0    39.100    0.063461   -1.649737    0.000000

--------------------------------
INTERNAL COORDINATES (ANGSTROEM)
--------------------------------
 O      0   0   0     0.000000000000     0.00000000     0.00000000
 H      1   0   0     0.968988983964     0.00000000     0.00000000
 K      1   2   0     2.690000000000   103.97991202     0.00000000

---------------------------
INTERNAL COORDINATES (A.U.)
---------------------------
 O      0   0   0     0.000000000000     0.00000000     0.00000000
 H      1   0   0     1.831123806479     0.00000000     0.00000000
 K      1   2   0     5.083363300248   103.97991202     0.00000000

---------------------
BASIS SET INFORMATION
---------------------
There are 3 groups of distinct atoms

 Group   1 Type O   : 7s4p1d contracted to 3s2p1d pattern {511/31/1}
 Group   2 Type H   : 4s1p contracted to 2s1p pattern {31/1}
 Group   3 Type K   : 14s9p2d contracted to 5s3p2d pattern {63311/531/11}

Atom   0O    basis set group =>   1
Atom   1H    basis set group =>   2
Atom   2K    basis set group =>   3
---------------------------------
AUXILIARY/J BASIS SET INFORMATION
---------------------------------
There are 3 groups of distinct atoms

 Group   1 Type O   : 12s5p4d2f1g contracted to 6s4p3d1f1g pattern {711111/2111/211/2/1}
 Group   2 Type H   : 5s2p1d contracted to 3s1p1d pattern {311/2/1}
 Group   3 Type K   : 19s5p5d3f1g contracted to 8s4p4d1f1g pattern {121111111/2111/2111/3/1}

Atom   0O    basis set group =>   1
Atom   1H    basis set group =>   2
Atom   2K    basis set group =>   3


           ************************************************************
           *        Program running with 64 parallel MPI-processes    *
           *              working on a common directory               *
           ************************************************************
------------------------------------------------------------------------------
                             ORCA STARTUP CALCULATIONS
                           -- RI-GTO INTEGRALS CHOSEN --
------------------------------------------------------------------------------
------------------------------------------------------------------------------
                   ___                                                        
                  /   \      - P O W E R E D   B Y -                         
                 /     \                                                     
                 |  |  |   _    _      __       _____    __    __             
                 |  |  |  | |  | |    /  \     |  _  \  |  |  /  |          
                  \  \/   | |  | |   /    \    | | | |  |  | /  /          
                 / \  \   | |__| |  /  /\  \   | |_| |  |  |/  /          
                |  |  |   |  __  | /  /__\  \  |    /   |      \           
                |  |  |   | |  | | |   __   |  |    \   |  |\   \          
                \     /   | |  | | |  |  |  |  | |\  \  |  | \   \       
                 \___/    |_|  |_| |__|  |__|  |_| \__\ |__|  \__/        
                                                                              
                      - O R C A' S   B I G   F R I E N D -                    
                                      &                                       
                       - I N T E G R A L  F E E D E R -                       
                                                                              
 v1 FN, 2020, v2 2021, v3 2022-2024                                           
------------------------------------------------------------------------------


----------------------
SHARK INTEGRAL PACKAGE
----------------------

Number of atoms                             ...      3
Number of basis functions                   ...     43
Number of shells                            ...     19
Maximum angular momentum                    ...      2
Integral batch strategy                     ... SHARK/LIBINT Hybrid
RI-J (if used) integral strategy            ... SPLIT-RIJ (Revised 2003 algorithm where possible)
Printlevel                                  ...      1
Contraction scheme used                     ... SEGMENTED contraction
Prescreening option                         ... SCHWARTZ
   Thresh                                   ... 2.500e-11
   Tcut                                     ... 2.500e-12
   Tpresel                                  ... 2.500e-12 
Coulomb Range Separation                    ... NOT USED
Exchange Range Separation                   ... NOT USED
Multipole approximations                    ... NOT USED
Finite Nucleus Model                        ... NOT USED
CABS basis                                  ... NOT available
Auxiliary Coulomb fitting basis             ... AVAILABLE
   # of basis functions in Aux-J            ...    116
   # of shells in Aux-J                     ...     38
   Maximum angular momentum in Aux-J        ...      4
Auxiliary J/K fitting basis                 ... NOT available
Auxiliary Correlation fitting basis         ... NOT available
Auxiliary 'external' fitting basis          ... NOT available

Checking pre-screening integrals            ... done (  0.0 sec) Dimension = 19
   => SHARK Basis and OBASIS are compatible. Storing Pre-screening
Shell pair information
Shell pair cut-off parameter TPreSel        ...   2.5e-12
Total number of shell pairs                 ...       190
Shell pairs after pre-screening             ...       186
Total number of primitive shell pairs       ...       953
Primitive shell pairs kept                  ...       801
          la=0 lb=0:     53 shell pairs
          la=1 lb=0:     59 shell pairs
          la=1 lb=1:     21 shell pairs
          la=2 lb=0:     29 shell pairs
          la=2 lb=1:     18 shell pairs
          la=2 lb=2:      6 shell pairs

Checking whether 4 symmetric matrices of dimension 43 fit in memory
:Max Core in MB      =   6738.00
 MB in use           =      3.44
 MB left             =   6734.56
 MB needed           =      0.03
 Data fit in memory  = YES
Calculating RI/J V-Matrix + Cholesky decomp.... done (  0.0 sec)
Calculating Nuclear repulsion               ... done (  0.0 sec) ENN=     37.543745988986 Eh

Diagonalization of the overlap matrix:
Smallest eigenvalue                        ... 5.254e-02
Time for diagonalization                   ...    0.001 sec
Threshold for overlap eigenvalues          ... 1.000e-07
Number of eigenvalues below threshold      ... 0
Time for construction of square roots      ...    0.004 sec
Total time needed                          ...    0.019 sec

-------------------
DFT GRID GENERATION
-------------------

General Integration Accuracy     IntAcc      ... 4.388
Radial Grid Type                 RadialGrid  ... OptM3 with GC (2021)
Angular Grid (max. ang.)         AngularGrid ... 4 (Lebedev-302)
Angular grid pruning method      GridPruning ... 4 (adaptive)
Weight generation scheme         WeightScheme... mBecke (2022)
Basis function cutoff            BFCut       ... 1.0000e-11
Integration weight cutoff        WCut        ... 1.0000e-14
Partially contracted basis set               ... off
Rotationally invariant grid construction     ... off
Angular grids for H and He will be reduced by one unit
Core-polarized basis detected: some atoms will have their core
                               angular grid increased.

Total number of grid points                  ...    20724
Total number of batches                      ...      325
Average number of points per batch           ...       63
Average number of grid points per atom       ...     6908

--------------------
COSX GRID GENERATION
--------------------

GRIDX 1
-------
General Integration Accuracy     IntAcc      ... 3.816
Radial Grid Type                 RadialGrid  ... OptM3 with GC (2021)
Angular Grid (max. ang.)         AngularGrid ... 1 (Lebedev-50)
Angular grid pruning method      GridPruning ... 4 (adaptive)
Weight generation scheme         WeightScheme... mBecke (2022)
Basis function cutoff            BFCut       ... 1.0000e-11
Integration weight cutoff        WCut        ... 1.0000e-14
Partially contracted basis set               ... on
Rotationally invariant grid construction     ... off
Angular grids for H and He will be reduced by one unit
Core-polarized basis detected: some atoms will have their core
                               angular grid increased.

Total number of grid points                  ...     7428
Total number of batches                      ...       60
Average number of points per batch           ...      123
Average number of grid points per atom       ...     2476
UseSFitting                                  ... on

GRIDX 2
-------
General Integration Accuracy     IntAcc      ... 4.020
Radial Grid Type                 RadialGrid  ... OptM3 with GC (2021)
Angular Grid (max. ang.)         AngularGrid ... 2 (Lebedev-110)
Angular grid pruning method      GridPruning ... 4 (adaptive)
Weight generation scheme         WeightScheme... mBecke (2022)
Basis function cutoff            BFCut       ... 1.0000e-11
Integration weight cutoff        WCut        ... 1.0000e-14
Partially contracted basis set               ... on
Rotationally invariant grid construction     ... off
Angular grids for H and He will be reduced by one unit
Core-polarized basis detected: some atoms will have their core
                               angular grid increased.

Total number of grid points                  ...     8911
Total number of batches                      ...       71
Average number of points per batch           ...      125
Average number of grid points per atom       ...     2970
UseSFitting                                  ... on

GRIDX 3
-------
General Integration Accuracy     IntAcc      ... 4.338
Radial Grid Type                 RadialGrid  ... OptM3 with GC (2021)
Angular Grid (max. ang.)         AngularGrid ... 3 (Lebedev-194)
Angular grid pruning method      GridPruning ... 4 (adaptive)
Weight generation scheme         WeightScheme... mBecke (2022)
Basis function cutoff            BFCut       ... 1.0000e-11
Integration weight cutoff        WCut        ... 1.0000e-14
Partially contracted basis set               ... on
Rotationally invariant grid construction     ... off
Angular grids for H and He will be reduced by one unit
Core-polarized basis detected: some atoms will have their core
                               angular grid increased.

Total number of grid points                  ...    12199
Total number of batches                      ...       97
Average number of points per batch           ...      125
Average number of grid points per atom       ...     4066
UseSFitting                                  ... on
Grids setup in   1.3 sec
Initializing property integral containers    ... done (  0.1 sec)

SHARK setup successfully completed in   1.6 seconds

Maximum memory used throughout the entire STARTUP-calculation: 9.6 MB


           ************************************************************
           *        Program running with 64 parallel MPI-processes    *
           *              working on a common directory               *
           ************************************************************
-------------------------------------------------------------------------------
                                 ORCA GUESS
                   Start orbitals & Density for SCF / CASSCF
-------------------------------------------------------------------------------

------------
SCF SETTINGS
------------
Hamiltonian:
 Density Functional     Method          .... DFT(GTOs)
 Exchange Functional    Exchange        .... B88
   X-Alpha parameter    XAlpha          ....  0.666667
   Becke's b parameter  XBeta           ....  0.004200
 Correlation Functional Correlation     .... LYP
 LDA part of GGA corr.  LDAOpt          .... VWN-5
 Gradients option       PostSCFGGA      .... off
 Hybrid DFT is turned on
   Fraction HF Exchange ScalHFX         ....  0.200000
   Scaling of DF-GGA-X  ScalDFX         ....  0.720000
   Scaling of DF-GGA-C  ScalDFC         ....  0.810000
   Scaling of DF-LDA-C  ScalLDAC        ....  1.000000
   Perturbative correction              ....  0.000000
   NL short-range parameter             ....  4.800000
 RI-approximation to the Coulomb term is turned on
   Number of AuxJ basis functions       .... 116
   RIJ-COSX (HFX calculated with COS-X)).... on


General Settings:
 Integral files         IntName         .... /users/s1155246975/huiwen_scratch/huiwen/KOH_opt5_opt/KOH_opt5_opt
 Hartree-Fock type      HFTyp           .... RHF
 Total Charge           Charge          ....    0
 Multiplicity           Mult            ....    1
 Number of Electrons    NEL             ....   28
 Basis Dimension        Dim             ....   43
 Nuclear Repulsion      ENuc            ....     37.5437459890 Eh

Convergence Acceleration:
 AO-DIIS                CNVDIIS         .... on
   Start iteration      DIISMaxIt       ....    12
   Startup error        DIISStart       ....  0.200000
   # of expansion vecs  DIISMaxEq       ....     5
   Bias factor          DIISBfac        ....   1.050
   Max. coefficient     DIISMaxC        ....  10.000
 MO-DIIS                CNVKDIIS        .... off
 Trust-Rad. Augm. Hess. CNVTRAH         .... auto
   Auto Start mean grad. ratio tolernc. ....  1.125000
   Auto Start start iteration           ....    50
   Auto Start num. interpolation iter.  ....    10
   Max. Number of Micro iterations      ....    24
   Max. Number of Macro iterations      .... Maxiter - #DIIS iter
   Number of Davidson start vectors     ....     2
   Converg. threshold    (grad. norm)   ....   1.000e-05
   Grad. Scal. Fac. for Micro threshold ....   0.100
   Minimum threshold for Micro iter.    ....   1.000e-02
   NR start threshold (gradient norm)   ....   1.000e-04
   Initial trust radius                 ....   0.400
   Minimum AH scaling param. (alpha)    ....   1.000
   Maximum AH scaling param. (alpha)    .... 1000.000
   Quad. conv. algorithm                .... NR
   White noise on init. David. guess    .... on
   Maximum white noise                  ....   0.010
   Pseudo random numbers                .... off
   Inactive MOs                         .... canonical
   Orbital update algorithm             .... Taylor
   Preconditioner                       .... Diag
   Full preconditioner red. dimension   ....   250
 SOSCF                 CNVSOSCF           .... on
   Start iteration     SOSCFMaxIt         ....   150
   Startup grad/error  SOSCFStart         ....  0.003300
   Hessian update      SOSCFHessUp        .... L-BFGS
   Autom. constraints  SOSCFAutoConstrain .... off
 Level Shifting         CNVShift        .... on
   Level shift para.    LevelShift      ....    0.2500
   Turn off err/grad.   ShiftErr        ....    0.0010
 Zerner damping         CNVZerner       .... off
 Static damping         CNVDamp         .... on
   Fraction old density DampFac         ....    0.7000
   Max. Damping (<1)    DampMax         ....    0.9800
   Min. Damping (>=0)   DampMin         ....    0.0000
   Turn off err/grad.   DampErr         ....    0.1000

SCF Procedure:
 Maximum # iterations   MaxIter         ....   125
 SCF integral mode      SCFMode         .... Direct
   Integral package                     .... SHARK and LIBINT hybrid scheme
 Reset frequency        DirectResetFreq ....    20
 Integral Threshold     Thresh          ....  2.500e-11 Eh
 Primitive CutOff       TCut            ....  2.500e-12 Eh

Convergence Tolerance:
 Convergence Check Mode ConvCheckMode   .... Total+1el-Energy
 Convergence forced     ConvForced      .... 0
 Energy Change          TolE            ....  1.000e-08 Eh
 1-El. energy change                    ....  1.000e-05 Eh
 Orbital Gradient       TolG            ....  1.000e-05
 Orbital Rotation angle TolX            ....  1.000e-05
 DIIS Error             TolErr          ....  5.000e-07

------------------------------
INITIAL GUESS: MODEL POTENTIAL
------------------------------
Loading Hartree-Fock densities                     ... done
Calculating cut-offs                               ... done
Initializing the effective Hamiltonian             ... done
Setting up the integral package (SHARK)            ... done
Starting the Coulomb interaction                   ... done (   0.1 sec)
Making the grid                                    ... done (   0.2 sec)
Mapping shells                                     ... done
Starting the XC term evaluation                    ... done (   0.0 sec)
  promolecular density results
     # of electrons  =     27.999402330
     EX              =    -41.071334065
     EC              =     -1.097680449
     EX+EC           =    -42.169014514
Transforming the Hamiltonian                       ... done (   0.0 sec)
Diagonalizing the Hamiltonian                      ... done (   0.0 sec)
Back transforming the eigenvectors                 ... done (   0.0 sec)
Now organizing SCF variables                       ... done
                      ------------------
                      INITIAL GUESS DONE (   0.4 sec)
                      ------------------
             **** ENERGY FILE WAS UPDATED (/users/s1155246975/huiwen_scratch/huiwen/KOH_opt5_opt/KOH_opt5_opt.en.tmp) ****
Finished Guess after   3.2 sec
Maximum memory used throughout the entire GUESS-calculation: 5.8 MB


           ************************************************************
           *        Program running with 64 parallel MPI-processes    *
           *              working on a common directory               *
           ************************************************************

-------------------------------------------------------------------------------------------
                                      ORCA LEAN-SCF
                              memory conserving SCF solver
-------------------------------------------------------------------------------------------

----------------------------------------D-I-I-S--------------------------------------------
Iteration    Energy (Eh)           Delta-E    RMSDP     MaxDP     DIISErr   Damp  Time(sec)
-------------------------------------------------------------------------------------------
               ***  Starting incremental Fock matrix formation  ***
    1    -675.2613130396281349     0.00e+00  9.42e-01  6.72e-01  4.50e-01  0.700   0.9
Warning: op=0 Small HOMO/LUMO gap (   0.022) - skipping pre-diagonalization
         Will do a full diagonalization
    2    -675.3904410844954782    -1.29e-01  2.68e-01  1.33e-01  8.93e-02  0.700   1.5
                               ***Turning on AO-DIIS***
    3    -675.4100919007513539    -1.97e-02  1.06e-01  6.18e-02  5.07e-02  0.700   0.8
    4    -675.4349458779087172    -2.49e-02  3.82e-01  3.05e-01  4.79e-02  0.000   0.7
    5    -675.4943221325894456    -5.94e-02  7.82e-02  4.45e-02  4.36e-02  0.000   0.6
    6    -675.4952937831058080    -9.72e-04  5.77e-02  1.58e-02  4.10e-02  0.000   0.7
    7    -675.4973013331170932    -2.01e-03  4.96e-02  2.00e-02  1.87e-02  0.000   0.7
    8    -675.4979700179682141    -6.69e-04  2.93e-02  1.27e-02  4.64e-03  0.000   0.7
                              *** Initializing SOSCF ***
---------------------------------------S-O-S-C-F--------------------------------------
Iteration    Energy (Eh)           Delta-E    RMSDP     MaxDP     MaxGrad    Time(sec)
--------------------------------------------------------------------------------------
    9    -675.4980884373542267    -1.18e-04  1.23e-02  4.88e-03  1.69e-03     0.7
               *** Restarting incremental Fock matrix formation ***
   10    -675.4980789375714494     9.50e-06  1.94e-02  7.48e-03  9.81e-04     0.7
   11    -675.4981167377580960    -3.78e-05  1.55e-02  5.69e-03  3.50e-04     0.7
   12    -675.4981199500198272    -3.21e-06  9.45e-03  6.51e-03  9.44e-04     0.7
   13    -675.4981220597655920    -2.11e-06  5.52e-03  2.25e-03  5.82e-04     0.6
   14    -675.4981242772257701    -2.22e-06  8.38e-04  3.13e-04  4.88e-05     0.7
   15    -675.4981243158973712    -3.87e-08  1.66e-04  9.46e-05  1.42e-05     0.7
   16    -675.4981243177572878    -1.86e-09  2.88e-05  1.15e-05  9.43e-07     1.2
                 **** Energy Check signals convergence ****

               *****************************************************
               *                     SUCCESS                       *
               *           SCF CONVERGED AFTER  16 CYCLES          *
               *****************************************************

Recomputing exchange energy using gridx3       ... done (    0.053 sec)
Old exchange energy                            :     -8.259099565 Eh
New exchange energy                            :     -8.259095141 Eh
Exchange energy change after final integration :      0.000004424 Eh
Total energy after final integration           :   -675.498119893 Eh
             **** ENERGY FILE WAS UPDATED (/users/s1155246975/huiwen_scratch/huiwen/KOH_opt5_opt/KOH_opt5_opt.en.tmp) ****

----------------
TOTAL SCF ENERGY
----------------

Total Energy       :       -675.49811989263992 Eh          -18381.23833 eV

Components:
Nuclear Repulsion  :         37.54374598898640 Eh            1021.61727 eV
Electronic Energy  :       -713.04187030590845 Eh          -19402.85571 eV
One Electron Energy:      -1004.62061097482615 Eh          -27337.11662 eV
Two Electron Energy:        291.57874066891770 Eh            7934.26090 eV

Virial components:
Potential Energy   :      -1349.54145060324481 Eh          -36722.88983 eV
Kinetic Energy     :        674.04333071060501 Eh           18341.65150 eV
Virial Ratio       :          2.00215830216805

DFT components:
N(Alpha)           :       13.999463931701 electrons
N(Beta)            :       13.999463931701 electrons
N(Total)           :       27.998927863403 electrons
E(X)               :      -32.811947826853 Eh       
E(C)               :       -1.305741068111 Eh       
E(XC)              :      -34.117688894964 Eh       

---------------
SCF CONVERGENCE
---------------

  Last Energy change         ...    1.8599e-09  Tolerance :   1.0000e-08
  Last MAX-Density change    ...    1.1478e-05  Tolerance :   1.0000e-07
  Last RMS-Density change    ...    2.8822e-05  Tolerance :   5.0000e-09
  Last DIIS Error            ...    1.6881e-03  Tolerance :   5.0000e-07
  Last Orbital Gradient      ...    9.4345e-07  Tolerance :   1.0000e-05
  Last Orbital Rotation      ...    8.6370e-06  Tolerance :   1.0000e-05


----------------
ORBITAL ENERGIES
----------------

  NO   OCC          E(Eh)            E(eV) 
   0   2.0000    -129.789832     -3531.7609 
   1   2.0000     -18.959436      -515.9125 
   2   2.0000     -13.219597      -359.7235 
   3   2.0000     -10.564507      -287.4748 
   4   2.0000     -10.564466      -287.4737 
   5   2.0000     -10.563902      -287.4584 
   6   2.0000      -1.387575       -37.7578 
   7   2.0000      -0.766657       -20.8618 
   8   2.0000      -0.756382       -20.5822 
   9   2.0000      -0.755695       -20.5635 
  10   2.0000      -0.740099       -20.1391 
  11   2.0000      -0.273029        -7.4295 
  12   2.0000      -0.138616        -3.7719 
  13   2.0000      -0.131714        -3.5841 
  14   0.0000      -0.057358        -1.5608 
  15   0.0000       0.010208         0.2778 
  16   0.0000       0.012434         0.3383 
  17   0.0000       0.024000         0.6531 
  18   0.0000       0.042360         1.1527 
  19   0.0000       0.124861         3.3976 
  20   0.0000       0.125354         3.4111 
  21   0.0000       0.147702         4.0192 
  22   0.0000       0.155061         4.2194 
  23   0.0000       0.176804         4.8111 
  24   0.0000       0.261271         7.1096 
*Only the first 10 virtual orbitals were printed.

                    ********************************
                    * MULLIKEN POPULATION ANALYSIS *
                    ********************************

-----------------------
MULLIKEN ATOMIC CHARGES
-----------------------
   0 O :   -0.619146
   1 H :    0.101766
   2 K :    0.517379
Sum of atomic charges:    0.0000000

--------------------------------
MULLIKEN REDUCED ORBITAL CHARGES
--------------------------------
  0 O s       :     3.831588  s :     3.831588
      pz      :     1.837554  p :     4.781816
      px      :     1.258067
      py      :     1.686195
      dz2     :     0.001136  d :     0.005742
      dxz     :     0.000609
      dyz     :     0.000010
      dx2y2   :     0.002924
      dxy     :     0.001063

  1 H s       :     0.830557  s :     0.830557
      pz      :     0.020196  p :     0.067677
      px      :     0.028695
      py      :     0.018786

  2 K s       :     6.205393  s :     6.205393
      pz      :     4.079703  p :    12.132991
      px      :     4.024400
      py      :     4.028888
      dz2     :     0.013928  d :     0.144237
      dxz     :     0.000129
      dyz     :     0.061798
      dx2y2   :     0.040417
      dxy     :     0.027965



                     *******************************
                     * LOEWDIN POPULATION ANALYSIS *
                     *******************************

----------------------
LOEWDIN ATOMIC CHARGES
----------------------
   0 O :   -0.496367
   1 H :    0.008491
   2 K :    0.487877

-------------------------------
LOEWDIN REDUCED ORBITAL CHARGES
-------------------------------
  0 O s       :     3.606812  s :     3.606812
      pz      :     1.803117  p :     4.878534
      px      :     1.377997
      py      :     1.697419
      dz2     :     0.002599  d :     0.011021
      dxz     :     0.000174
      dyz     :     0.000038
      dx2y2   :     0.006624
      dxy     :     0.001587

  1 H s       :     0.798252  s :     0.798252
      pz      :     0.052387  p :     0.193258
      px      :     0.087291
      py      :     0.053579

  2 K s       :     6.185380  s :     6.185380
      pz      :     4.077662  p :    12.142544
      px      :     4.025448
      py      :     4.039434
      dz2     :     0.020526  d :     0.184199
      dxz     :     0.000115
      dyz     :     0.066507
      dx2y2   :     0.063556
      dxy     :     0.033495



                      *****************************
                      * MAYER POPULATION ANALYSIS *
                      *****************************

  NA   - Mulliken gross atomic population
  ZA   - Total nuclear charge
  QA   - Mulliken gross atomic charge
  VA   - Mayer's total valence
  BVA  - Mayer's bonded valence
  FA   - Mayer's free valence

  ATOM       NA         ZA         QA         VA         BVA        FA
  0 O      8.6191     8.0000    -0.6191     1.8278     1.8278     0.0000
  1 H      0.8982     1.0000     0.1018     0.9955     0.9955     0.0000
  2 K     18.4826    19.0000     0.5174     0.8668     0.8668    -0.0000

  Mayer bond orders larger than 0.100000
B(  0-O ,  1-H ) :   0.9782 B(  0-O ,  2-K ) :   0.8496 

-------
TIMINGS
-------

Total SCF time: 0 days 0 hours 0 min 17 sec 

Total time                  ....      17.486 sec
Sum of individual times     ....      15.938 sec  ( 91.1%)

SCF preparation             ....       3.211 sec  ( 18.4%)
Fock matrix formation       ....       9.112 sec  ( 52.1%)
  Startup                   ....       0.136 sec  (  1.5% of F)
  Split-RI-J                ....       0.945 sec  ( 10.4% of F)
  Chain of spheres X        ....       2.162 sec  ( 23.7% of F)
  XC integration            ....       4.741 sec  ( 52.0% of F)
    Basis function eval.    ....       0.005 sec  (  0.1% of XC)
    Density eval.           ....       0.001 sec  (  0.0% of XC)
    XC-Functional eval.     ....       0.002 sec  (  0.0% of XC)
    XC-Potential eval.      ....       0.002 sec  (  0.0% of XC)
Diagonalization             ....       0.000 sec  (  0.0%)
Density matrix formation    ....       1.061 sec  (  6.1%)
Total Energy calculation    ....       0.544 sec  (  3.1%)
Population analysis         ....       0.180 sec  (  1.0%)
Orbital Transformation      ....       0.137 sec  (  0.8%)
Orbital Orthonormalization  ....       0.000 sec  (  0.0%)
DIIS solution               ....       1.052 sec  (  6.0%)
SOSCF solution              ....       0.641 sec  (  3.7%)
Finished LeanSCF after  17.6 sec

Maximum memory used throughout the entire LEANSCF-calculation: 5.1 MB


           ************************************************************
           *        Program running with 64 parallel MPI-processes    *
           *              working on a common directory               *
           ************************************************************

------------------------------------------------------------------------------
                         ORCA PROPERTY INTEGRAL CALCULATIONS
------------------------------------------------------------------------------

GBWName                                   ... /users/s1155246975/huiwen_scratch/huiwen/KOH_opt5_opt/KOH_opt5_opt.gbw
Number of atoms                           ...      3
Number of basis functions                 ...     43
Max core memory                           ...   6738 MB

Dipole integrals                          ... YES
Quadrupole integrals                      ...  NO
Linear momentum integrals                 ...  NO
Angular momentum integrals                ...  NO
Higher moments length integrals           ...  NO
Higher moments velocity integrals         ...  NO
Kinetic energy integrals                  ...  NO
GIAO right hand sides                     ...  NO
GIAO dipole derivative integrals          ...  NO
SOC integrals                             ...  NO
EPR diamagnetic integrals (GIAO)          ...  NO
EPR gauge integrals                       ...  NO
Field gradient integrals                  ...  NO (   0 nuclei)
Spin-dipole/Fermi contact integrals       ...  NO (   0 nuclei)
Contact density integrals                 ...  NO (   0 nuclei)
Nucleus-orbit integrals                   ...  NO (   0 nuclei)
Geometric perturbations                   ...  NO (   3 nuclei)

Choice of electric origin   ... Center of mass
Position of electric origin ... (  0.0315, -0.1009,  0.0000) 
Choice of magnetic origin   ... GIAO
Position of magnetic origin ... (  0.0000,  0.0000,  0.0000) 

Calculating integrals                     ... Electric Dipole (Length)     done (  0.1 sec)

Property integrals calculated in   0.1 sec

Maximum memory used throughout the entire PROPINT-calculation: 5.7 MB


-------------------------------------------------------------------------------
                          DFT DISPERSION CORRECTION                            
                                                                               
                              DFTD3 V3.1  Rev 1                                
                              USING zero damping                               
-------------------------------------------------------------------------------
The B3LYP functional is recognized
Active option DFTDOPT                   ...         3   

molecular C6(AA) [au] = 531.108925 


            DFT-D V3
 parameters
 s6 scaling factor         :     1.0000 
 rs6 scaling factor        :     1.2610 
 s8 scaling factor         :     1.7030 
 rs8 scaling factor        :     1.0000 
 Damping factor alpha6     :    14.0000 
 Damping factor alpha8     :    16.0000 
 ad hoc parameters k1-k3   :    16.0000     1.3333    -4.0000 

 Edisp/kcal,au: -0.479440814292  -0.000764037489 
 E6   /kcal   :  -0.006095297 
 E8   /kcal   :  -0.473345517 
 % E8         :  98.728665391 

-------------------------   ----------------
Dispersion correction           -0.000764037
-------------------------   ----------------


-------------------------   --------------------
FINAL SINGLE POINT ENERGY      -675.498883930129
-------------------------   --------------------



           ************************************************************
           *        Program running with 64 parallel MPI-processes    *
           *              working on a common directory               *
           ************************************************************
------------------------------------------------------------------------------
                         ORCA SCF GRADIENT CALCULATION
------------------------------------------------------------------------------

Nuc. rep. gradient        (SHARK) ... done (  0.0 sec)
HCore & Overlap gradient  (SHARK) ... done (  0.0 sec)
Split-RIJ-J gradient      (SHARK) ... done (  0.2 sec)
done (  0.8 sec)
XC gradient                       ... done (  0.1 sec)
Dispersion correction             ... done (  0.2 sec)

-------------------
DISPERSION GRADIENT
-------------------

   1   O   :   -0.000003675   -0.000887346    0.000000000
   2   H   :    0.000062021   -0.000182360    0.000000000
   3   K   :   -0.000058346    0.001069705    0.000000000

Difference to translation invariance:
           :    0.0000000000    0.0000000000    0.0000000000

Difference to rotation invariance:
           :    0.0000000000    0.0000000000    0.0000000000

Norm of the Dispersion gradient    ...    0.0014043402
RMS gradient                       ...    0.0004681134
MAX gradient                       ...    0.0010697053

------------------
CARTESIAN GRADIENT
------------------

   1   O   :   -0.000046192    0.029950043    0.000000039
   2   H   :    0.001270017   -0.003848092   -0.000000008
   3   K   :   -0.001223825   -0.026101951   -0.000000031

Difference to translation invariance:
           :    0.0000000001    0.0000000000   -0.0000000000

Difference to rotation invariance:
           :    0.0000001527   -0.0000000143    0.0000546630

Norm of the Cartesian gradient     ...    0.0399529421
RMS gradient                       ...    0.0133176474
MAX gradient                       ...    0.0299500433

-------
TIMINGS
-------

Total SCF gradient time     ....        1.582 sec

Densities                   ....       0.001 sec  (  0.0%)
One electron gradient       ....       0.017 sec  (  1.1%)
RI-J Coulomb gradient       ....       0.223 sec  ( 14.1%)
COSX gradient               ....       0.848 sec  ( 53.6%)
XC gradient                 ....       0.144 sec  (  9.1%)

Maximum memory used throughout the entire SCFGRAD-calculation: 25.5 MB
------------------------------------------------------------------------------
                         ORCA GEOMETRY RELAXATION STEP
------------------------------------------------------------------------------

Reading the OPT-File                    .... done
Getting information on internals        .... done
Copying old internal coords+grads       .... done
Making the new internal coordinates     .... (2022 redundants) done
Validating the new internal coordinates .... (2022 redundants) done
Calculating the B-matrix                .... done
Calculating the G,G- and P matrices     .... done
Transforming gradient to internals      .... done
Projecting the internal gradient        .... done
Number of atoms                         ....   3
Number of internal coordinates          ....   3
Current Energy                          ....  -675.498883930 Eh
Current gradient norm                   ....     0.039952942 Eh/bohr
Maximum allowed component of the step   ....  0.300
Current trust radius                    ....  0.300
Evaluating the initial hessian          ....  (Almloef) done
Projecting the Hessian                  .... done
Forming the augmented Hessian           .... done
Diagonalizing the augmented Hessian     .... done
Last element of RFO vector              ....  0.992272165
Lowest eigenvalues of augmented Hessian:
 -0.003348417  0.210771381  0.360082850
Length of the computed step             ....  0.125046761
The final length of the internal step   ....  0.125046761
Converting the step to Cartesian space:
 Initial RMS(Int)=    0.0721957809
Transforming coordinates:
 Iter   0:  RMS(Cart)=    0.0302522386 RMS(Int)=    0.0721931024
done
Storing new coordinates                 .... done

                                .--------------------.
          ----------------------|Geometry convergence|-------------------------
          Item                value                   Tolerance       Converged
          ---------------------------------------------------------------------
          RMS gradient        0.0155496365            0.0001000000      NO
          MAX gradient        0.0261034955            0.0003000000      NO
          RMS step            0.0721957809            0.0020000000      NO
          MAX step            0.1237770576            0.0040000000      NO
          -------------------------------------------------------------------------
          ........................................................
          Max(Bonds)      0.0655      Max(Angles)    0.99
          Max(Dihed)        0.00      Max(Improp)    0.00
          ---------------------------------------------------------------------

The optimization has not yet converged - more geometry cycles are needed


    ---------------------------------------------------------------------------
                         Redundant Internal Coordinates
                            (Angstroem and degrees)

        Definition                    Value    dE/dq     Step     New-Value
    ----------------------------------------------------------------------------
     1. B(H   1,O   0)                0.9690 -0.002166  0.0023    0.9713   
     2. B(K   2,O   0)                2.6900  0.026103 -0.0655    2.6245   
     3. A(H   1,O   0,K   2)          103.98 -0.006268    0.99    104.97   
    ----------------------------------------------------------------------------

Geometry step timings:
Preparation and reading OPT file:      0.001 s ( 9.109 %)
Internal coordinates            :      0.000 s ( 0.502 %)
B/P matrices and projection     :      0.000 s ( 1.578 %)
Hessian update/contruction      :      0.003 s (50.744 %)
Making the step                 :      0.000 s ( 1.757 %)
Converting the step to Cartesian:      0.000 s ( 0.717 %)
Storing new data                :      0.001 s (17.680 %)
Checking convergence            :      0.000 s ( 0.735 %)
Final printing                  :      0.001 s (17.052 %)
Total time                      :      0.006 s

Time for energy+gradient        :     38.232 s
Time for complete geometry iter :     42.892 s

         *************************************************************
         *                GEOMETRY OPTIMIZATION CYCLE   2            *
         *************************************************************
---------------------------------
CARTESIAN COORDINATES (ANGSTROEM)
---------------------------------
  O      0.034005    1.789143    0.000000
  H     -0.903946    2.041293    0.000000
  K      0.030399   -0.835355    0.000000

----------------------------
CARTESIAN COORDINATES (A.U.)
----------------------------
  NO LB      ZA    FRAG     MASS         X           Y           Z
   0 O     8.0000    0    15.999    0.064260    3.380990    0.000000
   1 H     1.0000    0     1.008   -1.708210    3.857485    0.000000
   2 K    19.0000    0    39.100    0.057445   -1.578592    0.000000

--------------------------------
INTERNAL COORDINATES (ANGSTROEM)
--------------------------------
 O      0   0   0     0.000000000000     0.00000000     0.00000000
 H      1   0   0     0.971252671835     0.00000000     0.00000000
 K      1   2   0     2.624500002245   104.96838152     0.00000000

---------------------------
INTERNAL COORDINATES (A.U.)
---------------------------
 O      0   0   0     0.000000000000     0.00000000     0.00000000
 H      1   0   0     1.835401556608     0.00000000     0.00000000
 K      1   2   0     4.959586242718   104.96838152     0.00000000



           ************************************************************
           *        Program running with 64 parallel MPI-processes    *
           *              working on a common directory               *
           ************************************************************
------------------------------------------------------------------------------
                   ___                                                        
                  /   \      - P O W E R E D   B Y -                         
                 /     \                                                     
                 |  |  |   _    _      __       _____    __    __             
                 |  |  |  | |  | |    /  \     |  _  \  |  |  /  |          
                  \  \/   | |  | |   /    \    | | | |  |  | /  /          
                 / \  \   | |__| |  /  /\  \   | |_| |  |  |/  /          
                |  |  |   |  __  | /  /__\  \  |    /   |      \           
                |  |  |   | |  | | |   __   |  |    \   |  |\   \          
                \     /   | |  | | |  |  |  |  | |\  \  |  | \   \       
                 \___/    |_|  |_| |__|  |__|  |_| \__\ |__|  \__/        
                                                                              
                      - O R C A' S   B I G   F R I E N D -                    
                                      &                                       
                       - I N T E G R A L  F E E D E R -                       
                                                                              
 v1 FN, 2020, v2 2021, v3 2022-2024                                           
------------------------------------------------------------------------------


----------------------
SHARK INTEGRAL PACKAGE
----------------------

Number of atoms                             ...      3
Number of basis functions                   ...     43
Number of shells                            ...     19
Maximum angular momentum                    ...      2
Integral batch strategy                     ... SHARK/LIBINT Hybrid
RI-J (if used) integral strategy            ... SPLIT-RIJ (Revised 2003 algorithm where possible)
Printlevel                                  ...      1
Contraction scheme used                     ... SEGMENTED contraction
Prescreening option                         ... SCHWARTZ
   Thresh                                   ... 2.500e-11
   Tcut                                     ... 2.500e-12
   Tpresel                                  ... 2.500e-12 
Coulomb Range Separation                    ... NOT USED
Exchange Range Separation                   ... NOT USED
Multipole approximations                    ... NOT USED
Finite Nucleus Model                        ... NOT USED
CABS basis                                  ... NOT available
Auxiliary Coulomb fitting basis             ... AVAILABLE
   # of basis functions in Aux-J            ...    116
   # of shells in Aux-J                     ...     38
   Maximum angular momentum in Aux-J        ...      4
Auxiliary J/K fitting basis                 ... NOT available
Auxiliary Correlation fitting basis         ... NOT available
Auxiliary 'external' fitting basis          ... NOT available

Checking pre-screening integrals            ... done (  0.0 sec) Dimension = 19
   => SHARK Basis and OBASIS are compatible. Storing Pre-screening
Shell pair information
Shell pair cut-off parameter TPreSel        ...   2.5e-12
Total number of shell pairs                 ...       190
Shell pairs after pre-screening             ...       187
Total number of primitive shell pairs       ...       953
Primitive shell pairs kept                  ...       807
          la=0 lb=0:     53 shell pairs
          la=1 lb=0:     59 shell pairs
          la=1 lb=1:     21 shell pairs
          la=2 lb=0:     30 shell pairs
          la=2 lb=1:     18 shell pairs
          la=2 lb=2:      6 shell pairs

Checking whether 4 symmetric matrices of dimension 43 fit in memory
:Max Core in MB      =   6738.00
 MB in use           =      3.45
 MB left             =   6734.55
 MB needed           =      0.03
 Data fit in memory  = YES
Calculating RI/J V-Matrix + Cholesky decomp.... done (  0.0 sec)
Calculating Nuclear repulsion               ... done (  0.0 sec) ENN=     38.330653235491 Eh

Diagonalization of the overlap matrix:
Smallest eigenvalue                        ... 5.268e-02
Time for diagonalization                   ...    0.001 sec
Threshold for overlap eigenvalues          ... 1.000e-07
Number of eigenvalues below threshold      ... 0
Time for construction of square roots      ...    0.004 sec
Total time needed                          ...    0.030 sec

-------------------
DFT GRID GENERATION
-------------------

General Integration Accuracy     IntAcc      ... 4.388
Radial Grid Type                 RadialGrid  ... OptM3 with GC (2021)
Angular Grid (max. ang.)         AngularGrid ... 4 (Lebedev-302)
Angular grid pruning method      GridPruning ... 4 (adaptive)
Weight generation scheme         WeightScheme... mBecke (2022)
Basis function cutoff            BFCut       ... 1.0000e-11
Integration weight cutoff        WCut        ... 1.0000e-14
Partially contracted basis set               ... off
Rotationally invariant grid construction     ... off
Angular grids for H and He will be reduced by one unit
Core-polarized basis detected: some atoms will have their core
                               angular grid increased.

Total number of grid points                  ...    20720
Total number of batches                      ...      325
Average number of points per batch           ...       63
Average number of grid points per atom       ...     6907

--------------------
COSX GRID GENERATION
--------------------

GRIDX 1
-------
General Integration Accuracy     IntAcc      ... 3.816
Radial Grid Type                 RadialGrid  ... OptM3 with GC (2021)
Angular Grid (max. ang.)         AngularGrid ... 1 (Lebedev-50)
Angular grid pruning method      GridPruning ... 4 (adaptive)
Weight generation scheme         WeightScheme... mBecke (2022)
Basis function cutoff            BFCut       ... 1.0000e-11
Integration weight cutoff        WCut        ... 1.0000e-14
Partially contracted basis set               ... on
Rotationally invariant grid construction     ... off
Angular grids for H and He will be reduced by one unit
Core-polarized basis detected: some atoms will have their core
                               angular grid increased.

Total number of grid points                  ...     7426
Total number of batches                      ...       60
Average number of points per batch           ...      123
Average number of grid points per atom       ...     2475
UseSFitting                                  ... on

GRIDX 2
-------
General Integration Accuracy     IntAcc      ... 4.020
Radial Grid Type                 RadialGrid  ... OptM3 with GC (2021)
Angular Grid (max. ang.)         AngularGrid ... 2 (Lebedev-110)
Angular grid pruning method      GridPruning ... 4 (adaptive)
Weight generation scheme         WeightScheme... mBecke (2022)
Basis function cutoff            BFCut       ... 1.0000e-11
Integration weight cutoff        WCut        ... 1.0000e-14
Partially contracted basis set               ... on
Rotationally invariant grid construction     ... off
Angular grids for H and He will be reduced by one unit
Core-polarized basis detected: some atoms will have their core
                               angular grid increased.

Total number of grid points                  ...     8909
Total number of batches                      ...       72
Average number of points per batch           ...      123
Average number of grid points per atom       ...     2970
UseSFitting                                  ... on

GRIDX 3
-------
General Integration Accuracy     IntAcc      ... 4.338
Radial Grid Type                 RadialGrid  ... OptM3 with GC (2021)
Angular Grid (max. ang.)         AngularGrid ... 3 (Lebedev-194)
Angular grid pruning method      GridPruning ... 4 (adaptive)
Weight generation scheme         WeightScheme... mBecke (2022)
Basis function cutoff            BFCut       ... 1.0000e-11
Integration weight cutoff        WCut        ... 1.0000e-14
Partially contracted basis set               ... on
Rotationally invariant grid construction     ... off
Angular grids for H and He will be reduced by one unit
Core-polarized basis detected: some atoms will have their core
                               angular grid increased.

Total number of grid points                  ...    12197
Total number of batches                      ...       97
Average number of points per batch           ...      125
Average number of grid points per atom       ...     4066
UseSFitting                                  ... on
Grids setup in   1.0 sec
Initializing property integral containers    ... done (  0.1 sec)

SHARK setup successfully completed in   1.4 seconds

Maximum memory used throughout the entire STARTUP-calculation: 9.7 MB


           ************************************************************
           *        Program running with 64 parallel MPI-processes    *
           *              working on a common directory               *
           ************************************************************
Occupation numbers will be reassigned to an Aufbau configuration
             **** ENERGY FILE WAS UPDATED (/users/s1155246975/huiwen_scratch/huiwen/KOH_opt5_opt/KOH_opt5_opt.en.tmp) ****
Finished Guess after   3.1 sec
Maximum memory used throughout the entire GUESS-calculation: 5.6 MB


           ************************************************************
           *        Program running with 64 parallel MPI-processes    *
           *              working on a common directory               *
           ************************************************************
----------------------------------------D-I-I-S--------------------------------------------
Iteration    Energy (Eh)           Delta-E    RMSDP     MaxDP     DIISErr   Damp  Time(sec)
-------------------------------------------------------------------------------------------
               ***  Starting incremental Fock matrix formation  ***
    1    -675.5013592167988463     0.00e+00  8.88e-03  4.55e-03  5.29e-03  0.700   1.1
Warning: op=0 Small HOMO/LUMO gap (   0.079) - skipping pre-diagonalization
         Will do a full diagonalization
    2    -675.5013983108694902    -3.91e-05  1.08e-02  6.06e-03  3.77e-03  0.700   1.0
                               ***Turning on AO-DIIS***
                              *** Initializing SOSCF ***
---------------------------------------S-O-S-C-F--------------------------------------
Iteration    Energy (Eh)           Delta-E    RMSDP     MaxDP     MaxGrad    Time(sec)
--------------------------------------------------------------------------------------
    3    -675.5014312671947891    -3.30e-05  2.50e-02  1.27e-02  2.75e-03     0.7
               *** Restarting incremental Fock matrix formation ***
    4    -675.5015141736545274    -8.29e-05  1.56e-02  1.05e-02  8.48e-04     0.6
    5    -675.5015045584324298     9.62e-06  9.32e-03  5.41e-03  1.91e-03     0.8
    6    -675.5015204122266823    -1.59e-05  1.02e-03  6.00e-04  7.57e-05     0.7
    7    -675.5015205041599984    -9.19e-08  3.59e-04  1.35e-04  1.14e-05     1.0
    8    -675.5015205125574766    -8.40e-09  5.95e-05  2.39e-05  3.67e-06     1.2
                 **** Energy Check signals convergence ****

               *****************************************************
               *                     SUCCESS                       *
               *           SCF CONVERGED AFTER   8 CYCLES          *
               *****************************************************

Recomputing exchange energy using gridx3       ... done (    0.038 sec)
Old exchange energy                            :     -8.260109694 Eh
New exchange energy                            :     -8.260104285 Eh
Exchange energy change after final integration :      0.000005409 Eh
Total energy after final integration           :   -675.501515104 Eh
             **** ENERGY FILE WAS UPDATED (/users/s1155246975/huiwen_scratch/huiwen/KOH_opt5_opt/KOH_opt5_opt.en.tmp) ****

----------------
TOTAL SCF ENERGY
----------------

Total Energy       :       -675.50151510438809 Eh          -18381.33071 eV

Components:
Nuclear Repulsion  :         38.33065323549052 Eh            1043.03010 eV
Electronic Energy  :       -713.83217374893695 Eh          -19424.36096 eV
One Electron Energy:      -1006.26620938034034 Eh          -27381.89563 eV
Two Electron Energy:        292.43403563140339 Eh            7957.53466 eV

Virial components:
Potential Energy   :      -1349.55483918789514 Eh          -36723.25415 eV
Kinetic Energy     :        674.05332408350716 Eh           18341.92343 eV
Virial Ratio       :          2.00214848138736

DFT components:
N(Alpha)           :       13.999450670014 electrons
N(Beta)            :       13.999450670014 electrons
N(Total)           :       27.998901340027 electrons
E(X)               :      -32.814780549857 Eh       
E(C)               :       -1.306324604168 Eh       
E(XC)              :      -34.121105154025 Eh       

---------------
SCF CONVERGENCE
---------------

  Last Energy change         ...    8.3975e-09  Tolerance :   1.0000e-08
  Last MAX-Density change    ...    2.3872e-05  Tolerance :   1.0000e-07
  Last RMS-Density change    ...    5.9450e-05  Tolerance :   5.0000e-09
  Last DIIS Error            ...    2.7499e-03  Tolerance :   5.0000e-07
  Last Orbital Gradient      ...    3.6690e-06  Tolerance :   1.0000e-05
  Last Orbital Rotation      ...    1.8794e-05  Tolerance :   1.0000e-05


Total SCF time: 0 days 0 hours 0 min 11 sec 
Finished LeanSCF after  11.3 sec

Maximum memory used throughout the entire LEANSCF-calculation: 5.1 MB


           ************************************************************
           *        Program running with 64 parallel MPI-processes    *
           *              working on a common directory               *
           ************************************************************

------------------------------------------------------------------------------
                         ORCA PROPERTY INTEGRAL CALCULATIONS
------------------------------------------------------------------------------

GBWName                                   ... /users/s1155246975/huiwen_scratch/huiwen/KOH_opt5_opt/KOH_opt5_opt.gbw
Number of atoms                           ...      3
Number of basis functions                 ...     43
Max core memory                           ...   6738 MB

Dipole integrals                          ... YES
Quadrupole integrals                      ...  NO
Linear momentum integrals                 ...  NO
Angular momentum integrals                ...  NO
Higher moments length integrals           ...  NO
Higher moments velocity integrals         ...  NO
Kinetic energy integrals                  ...  NO
GIAO right hand sides                     ...  NO
GIAO dipole derivative integrals          ...  NO
SOC integrals                             ...  NO
EPR diamagnetic integrals (GIAO)          ...  NO
EPR gauge integrals                       ...  NO
Field gradient integrals                  ...  NO (   0 nuclei)
Spin-dipole/Fermi contact integrals       ...  NO (   0 nuclei)
Contact density integrals                 ...  NO (   0 nuclei)
Nucleus-orbit integrals                   ...  NO (   0 nuclei)
Geometric perturbations                   ...  NO (   3 nuclei)

Choice of electric origin   ... Center of mass
Position of electric origin ... (  0.0277, -0.0667,  0.0000) 
Choice of magnetic origin   ... GIAO
Position of magnetic origin ... (  0.0000,  0.0000,  0.0000) 

Calculating integrals                     ... Electric Dipole (Length)     done (  0.1 sec)

Property integrals calculated in   0.1 sec

Maximum memory used throughout the entire PROPINT-calculation: 5.7 MB


-------------------------------------------------------------------------------
                          DFT DISPERSION CORRECTION                            
                                                                               
                              DFTD3 V3.1  Rev 1                                
                              USING zero damping                               
-------------------------------------------------------------------------------
-------------------------   ----------------
Dispersion correction           -0.000644748
-------------------------   ----------------


-------------------------   --------------------
FINAL SINGLE POINT ENERGY      -675.502159852532
-------------------------   --------------------



           ************************************************************
           *        Program running with 64 parallel MPI-processes    *
           *              working on a common directory               *
           ************************************************************
------------------------------------------------------------------------------
                         ORCA SCF GRADIENT CALCULATION
------------------------------------------------------------------------------

Nuc. rep. gradient        (SHARK) ... done (  0.0 sec)
HCore & Overlap gradient  (SHARK) ... done (  0.0 sec)
Split-RIJ-J gradient      (SHARK) ... done (  0.1 sec)
done (  0.5 sec)
XC gradient                       ... done (  0.1 sec)
Dispersion correction             ... done (  0.1 sec)

-------------------
DISPERSION GRADIENT
-------------------

   1   O   :   -0.000004338   -0.000777948    0.000000000
   2   H   :    0.000056828   -0.000165782    0.000000000
   3   K   :   -0.000052491    0.000943730    0.000000000

Difference to translation invariance:
           :    0.0000000000   -0.0000000000    0.0000000000

Difference to rotation invariance:
           :    0.0000000000    0.0000000000    0.0000000000

Norm of the Dispersion gradient    ...    0.0012366550
RMS gradient                       ...    0.0004122183
MAX gradient                       ...    0.0009437296

------------------
CARTESIAN GRADIENT
------------------

   1   O   :    0.002730288    0.028508791   -0.000000002
   2   H   :   -0.001248684   -0.003701639   -0.000000023
   3   K   :   -0.001481604   -0.024807152    0.000000025

Difference to translation invariance:
           :    0.0000000001    0.0000000000    0.0000000000

Difference to rotation invariance:
           :   -0.0000001365   -0.0000000409   -0.0000230299

Norm of the Cartesian gradient     ...    0.0381189835
RMS gradient                       ...    0.0127063278
MAX gradient                       ...    0.0285087909

-------
TIMINGS
-------

Total SCF gradient time     ....        0.762 sec

Densities                   ....       0.000 sec  (  0.0%)
One electron gradient       ....       0.016 sec  (  2.1%)
RI-J Coulomb gradient       ....       0.131 sec  ( 17.2%)
COSX gradient               ....       0.455 sec  ( 59.7%)
XC gradient                 ....       0.081 sec  ( 10.7%)

Maximum memory used throughout the entire SCFGRAD-calculation: 25.5 MB
------------------------------------------------------------------------------
                         ORCA GEOMETRY RELAXATION STEP
------------------------------------------------------------------------------

Reading the OPT-File                    .... done
Getting information on internals        .... done
Copying old internal coords+grads       .... done
Making the new internal coordinates     .... (2022 redundants) done
Validating the new internal coordinates .... (2022 redundants) done
Calculating the B-matrix                .... done
Calculating the G,G- and P matrices     .... done
Transforming gradient to internals      .... done
Projecting the internal gradient        .... done
Number of atoms                         ....   3
Number of internal coordinates          ....   3
Current Energy                          ....  -675.502159853 Eh
Current gradient norm                   ....     0.038118983 Eh/bohr
Maximum allowed component of the step   ....  0.300
Current trust radius                    ....  0.300
Updating the Hessian (BFGS)             .... done
Forming the augmented Hessian           .... done
Diagonalizing the augmented Hessian     .... done
Last element of RFO vector              ....  0.766382793
Lowest eigenvalues of augmented Hessian:
 -0.021511089  0.030557768  0.360613719
Length of the computed step             ....  0.838202750
Warning: the length of the step is outside the trust region - taking restricted step instead
The input lambda is                     ....     0.008073
   iter:   5  x=    0.001495  g=10156.969950 f(x)=    25.596784
   iter:  10  x=   -0.042312  g=   27.094284 f(x)=     0.404124
   iter:  15  x=   -0.076399  g=    2.105259 f(x)=     0.000007
The output lambda is                    ....    -0.076399 (17 iterations)
The final length of the internal step   ....  0.300000000
Converting the step to Cartesian space:
 Initial RMS(Int)=    0.1732050808
Transforming coordinates:
 Iter   0:  RMS(Cart)=    0.0712026140 RMS(Int)=    0.1732032381
 Iter   5:  RMS(Cart)=    0.0000000075 RMS(Int)=    0.0000000147
done
Storing new coordinates                 .... done
The predicted energy change is          ....    -0.007293054
Previously predicted energy change      ....    -0.001700388
Actually observed energy change         ....    -0.003275922
Ratio of predicted to observed change   ....     1.926573847
New trust radius                        ....     0.200000000

                                .--------------------.
          ----------------------|Geometry convergence|-------------------------
          Item                value                   Tolerance       Converged
          ---------------------------------------------------------------------
          Energy change      -0.0032759224            0.0000050000      NO
          RMS gradient        0.0149083910            0.0001000000      NO
          MAX gradient        0.0248084907            0.0003000000      NO
          RMS step            0.1732050808            0.0020000000      NO
          MAX step            0.2949228507            0.0040000000      NO
          -------------------------------------------------------------------------
          ........................................................
          Max(Bonds)      0.1561      Max(Angles)    3.15
          Max(Dihed)        0.00      Max(Improp)    0.00
[...]
                                * REAL PERTURBATIONS *
                                **********************



-------------------
SHARK CP-SCF DRIVER
-------------------

Dimension of the orbital basis          ...     43
Dimension of the CPSCF-problem          ...    406
Number of operators                     ...      1
Max. number of iterations               ...    128
Convergence Tolerance                   ... 1.0e-04
Number of perturbations                 ...      9
Perturbation type                       ... REAL

----------------------------
POPLE LINEAR EQUATION SOLVER
----------------------------

  ITERATION   0:   ||err||_max =   2.8758e-01 (   1.1 sec   0/  9 done)
  ITERATION   1:   ||err||_max =   3.5751e-02 (   0.9 sec   0/  9 done)
  ITERATION   2:   ||err||_max =   5.9208e-03 (   6.2 sec   0/  9 done)
  ITERATION   3:   ||err||_max =   9.9796e-04 (   1.5 sec   1/  9 done)
  ITERATION   4:   ||err||_max =   2.1322e-04 (   1.5 sec   5/  9 done)
  ITERATION   5:   ||err||_max =   2.9628e-05 (   0.7 sec   9/  9 done)

CP-SCF equations solved in  12.3 sec
Response densities calculated in   0.0 sec

Maximum memory used throughout the entire SCFRESP-calculation: 6.5 MB


           ************************************************************
           *        Program running with 64 parallel MPI-processes    *
           *              working on a common directory               *
           ************************************************************

------------------------------------------------------------------------------
                              ORCA PROPERTY CALCULATIONS
------------------------------------------------------------------------------

GBWName                                 ... /users/s1155246975/huiwen_scratch/huiwen/KOH_opt5_opt/KOH_opt5_opt.gbw
Number of atoms                         ...      3
Number of basis functions               ...     43
Max core memory                         ...   6738 MB

Electric properties:
Dipole moment                           ... YES
Quadrupole moment                       ...  NO
Static polarizability (Dipole/Dipole)   ...  NO
Static polarizability (Dipole/Quad.)    ...  NO
Static polarizability (Quad./Quad.)     ...  NO
Static polarizability (Velocity)        ...  NO
Static hyperpolarizability              ...  NO

Atomic electric properties:
Dipole moment                           ...  NO
Quadrupole moment                       ...  NO
Static polarizability                   ...  NO

Choice of electric origin               ... Center of mass
Position of electric origin             ...     0.025675    -0.117863    -0.000157

General magnetic properties:
Magnetizability                         ...  NO

EPR properties:
g-Tensor (aka g-matrix)                 ...  NO
Zero-Field splitting spin-orbit         ...  NO
Zero-field splitting spin-spin          ...  NO
Hyperfine couplings                     ...  NO (   0 nuclei)
Quadrupole couplings                    ...  NO (   0 nuclei)
Contact density                         ...  NO (   0 nuclei)

NMR properties:
Chemical shifts                         ...  NO (   0 nuclei)
Spin-rotation constants                 ...  NO (   0 nuclei)
Spin-spin couplings                     ...  NO (   0 nuclei,    0 pairs)

Choice of magnetic origin               ... GIAO
Position of magnetic origin             ...     0.000000     0.000000     0.000000

Properties with geometric perturbations:
SCF Hessian                             ... YES
IR spectrum                             ... YES
VCD spectrum                            ...  NO
X-ray spectroscopy properties:
SCF XES/XAS/RIXS spectra                ...  NO

SCF SOC stabilization energy            ...  NO
Diagonal Born-Oppenheimer correction    ...  NO

-------------
DIPOLE MOMENT
-------------

Method             : SCF
Type of density    : Electron Density
Multiplicity       :   1
Irrep              :   0
Energy             :  -675.5225080421114399 Eh
Basis              : AO
                                X                 Y                 Z
Electronic contribution:      1.475077810      -5.320793795      -0.000281520
Nuclear contribution   :     -0.807177751       2.918635472       0.000237804
                        -----------------------------------------
Total Dipole Moment    :      0.667900059      -2.402158323      -0.000043715
                        -----------------------------------------
Magnitude (a.u.)       :      2.493281994
Magnitude (Debye)      :      6.337419185



--------------------
Rotational spectrum 
--------------------
 
Rotational constants in cm-1:       2237746.359304             0.277309             0.277309 
Rotational constants in MHz :   67085948143.622612          8313.523896          8313.522866 

Dipole components along the rotational axes: 
x,y,z [a.u.] :    -2.493282     0.001479    -0.000001 
x,y,z [Debye]:    -6.337418     0.003760    -0.000001 

 

Dipole moment calculation done in   0.1 sec 

-----------
SCF HESSIAN
-----------

Occupied/Occupied contributions to the Hessian:
   => Occupied/Occupied contributions              ... done (  0.0 sec)
Perturbed density contributions to the Hessian:
   => Perturbed density contributions              ... done (  0.0 sec)
Explicit contributions to the Hessian:
   => Nuclear repulsion Hessian                    ... done (  0.0 sec)
   => HCore and overlap Hessian                    ... done (  0.1 sec)
   => RI-J Hessian                                 ... done (  1.4 sec)
   => COSX Hessian                                 ... done (  1.0 sec)
   => XC-Hessian                                   ... done (  0.1 sec)
   => Van der Waals-Hessian                        ... done (  0.0 sec)
   => Explicit contributions done
Dipole derivatives                                 ... done (  0.2 sec)
Mass weighting the Hessian           ... done
Calculating normal modes             ... done
Scaling frequencies                  ... done

-----------------------
VIBRATIONAL FREQUENCIES
-----------------------

Scaling factor for frequencies =  1.000000000  (already applied!)

     0:       0.00 cm**-1
     1:       0.00 cm**-1
     2:       0.00 cm**-1
     3:       0.00 cm**-1
     4:       0.00 cm**-1
     5:       0.00 cm**-1
     6:     394.53 cm**-1
     7:     501.16 cm**-1
     8:    3846.03 cm**-1


------------
NORMAL MODES
------------

These modes are the Cartesian displacements weighted by the diagonal matrix
M(i,i)=1/sqrt(m[i]) where m[i] is the mass of the displaced atom
Thus, these vectors are normalized but *not* orthogonal

                  0          1          2          3          4          5    
      0       0.000000   0.000000   0.000000   0.000000   0.000000   0.000000
      1       0.000000   0.000000   0.000000   0.000000   0.000000   0.000000
      2       0.000000   0.000000   0.000000   0.000000   0.000000   0.000000
      3       0.000000   0.000000   0.000000   0.000000   0.000000   0.000000
      4       0.000000   0.000000   0.000000   0.000000   0.000000   0.000000
      5       0.000000   0.000000   0.000000   0.000000   0.000000   0.000000
      6       0.000000   0.000000   0.000000   0.000000   0.000000   0.000000
      7       0.000000   0.000000   0.000000   0.000000   0.000000   0.000000
      8       0.000000   0.000000   0.000000   0.000000   0.000000   0.000000
                  6          7          8    
      0      -0.087196  -0.178853  -0.016775
      1      -0.023307   0.647881   0.061138
      2      -0.004015   0.000067   0.000011
      3       0.959259  -0.191056   0.264022
      4       0.263769   0.652819  -0.962431
      5       0.044263  -0.000397  -0.000170
      6       0.010949   0.078109   0.000057
      7       0.002737  -0.281931  -0.000205
      8       0.000502  -0.000017   0.000000


-----------
IR SPECTRUM
-----------

 Mode   freq       eps      Int      T**2         TX        TY        TZ
       cm**-1   L/(mol*cm) km/mol    a.u.
----------------------------------------------------------------------------
  6:    394.53   0.015885   80.28  0.012565  ( 0.108035  0.029469  0.004980)
  7:    501.16   0.013932   70.41  0.008675  ( 0.024486 -0.089865 -0.000022)
  8:   3846.03   0.000374    1.89  0.000030  (-0.001431  0.005317  0.000000)

* The epsilon (eps) is given for a Dirac delta lineshape.
** The dipole moment derivative (T) already includes vibrational overlap.

The first frequency considered to be a vibration is 6
The total number of vibrations considered is 3


--------------------------
THERMOCHEMISTRY AT 298.15K
--------------------------

Temperature         ...   298.15 K
Pressure            ...     1.00 atm
Total Mass          ...    56.11 AMU
Quasi RRHO          ...     True
Cut-Off Frequency   ...     1.00 cm^-1

Throughout the following assumptions are being made:
  (1) The electronic state is orbitally nondegenerate
  (2) There are no thermally accessible electronically excited states
  (3) Hindered rotations indicated by low frequency modes are not
      treated as such but are treated as vibrations and this may
      cause some error
  (4) All equations used are the standard statistical mechanics
      equations for an ideal gas
  (5) All vibrations are strictly harmonic

freq.     394.53  E(vib)   ...       0.20 
freq.     501.16  E(vib)   ...       0.14 
freq.    3846.03  E(vib)   ...       0.00 

------------
INNER ENERGY
------------

The inner energy is: U= E(el) + E(ZPE) + E(vib) + E(rot) + E(trans)
    E(el)   - is the total energy from the electronic structure calculation
              = E(kin-el) + E(nuc-el) + E(el-el) + E(nuc-nuc)
    E(ZPE)  - the the zero temperature vibrational energy from the frequency calculation
    E(vib)  - the the finite temperature correction to E(ZPE) due to population
              of excited vibrational states
    E(rot)  - is the rotational thermal energy
    E(trans)- is the translational thermal energy

Summary of contributions to the inner energy U:
Electronic energy                ...   -675.52280589 Eh
Zero point energy                ...      0.01080245 Eh       6.78 kcal/mol
Thermal vibrational correction   ...      0.00053799 Eh       0.34 kcal/mol
Thermal rotational correction    ...      0.00141627 Eh       0.89 kcal/mol
Thermal translational correction ...      0.00141627 Eh       0.89 kcal/mol
-----------------------------------------------------------------------
Total thermal energy                   -675.50863291 Eh


Summary of corrections to the electronic energy:
(perhaps to be used in another calculation)
Total thermal correction                  0.00337053 Eh       2.12 kcal/mol
Non-thermal (ZPE) correction              0.01080245 Eh       6.78 kcal/mol
-----------------------------------------------------------------------
Total correction                          0.01417298 Eh       8.89 kcal/mol


--------
ENTHALPY
--------

The enthalpy is H = U + kB*T
                kB is Boltzmann's constant
Total thermal energy              ...   -675.50863291 Eh 
Thermal Enthalpy correction       ...      0.00094421 Eh       0.59 kcal/mol
-----------------------------------------------------------------------
Total Enthalpy                    ...   -675.50768870 Eh


Note: Rotational entropy computed according to Herzberg 
Infrared and Raman Spectra, Chapter V,1, Van Nostrand Reinhold, 1945 
Point Group:  Cs, Symmetry Number:   1  
Rotational constants in cm-1: 2237748.306211     0.277310     0.277310 

Vibrational entropy computed according to the QRRHO of S. Grimme
Chem.Eur.J. 2012 18 9955 using a reference frequency of 100.0 cm-1


-------
ENTROPY
-------

The entropy contributions are T*S = T*(S(el)+S(vib)+S(rot)+S(trans))
     S(el)   - electronic entropy
     S(vib)  - vibrational entropy
     S(rot)  - rotational entropy
     S(trans)- translational entropy
The entropies will be listed as multiplied by the temperature to get
units of energy

Electronic entropy                ...      0.00000000 Eh      0.00 kcal/mol
Vibrational entropy               ...      0.00077982 Eh      0.49 kcal/mol
Rotational entropy                ...      0.00381941 Eh      2.40 kcal/mol
Translational entropy             ...      0.01805277 Eh     11.33 kcal/mol
-----------------------------------------------------------------------
Final entropy term                ...      0.02265200 Eh     14.21 kcal/mol

In case the symmetry of your molecule has not been determined correctly
or in case you have a reason to use a different symmetry number we print 
out the resulting rotational entropy values for sn=1,12:

 non-linear molecules -----------------------------------
|  sn= 1 | S(rot)=       0.00381941 Eh      2.40 kcal/mol|
|  sn= 2 | S(rot)=       0.00316495 Eh      1.99 kcal/mol|
|  sn= 3 | S(rot)=       0.00278212 Eh      1.75 kcal/mol|
|  sn= 4 | S(rot)=       0.00251050 Eh      1.58 kcal/mol|
|  sn= 5 | S(rot)=       0.00229981 Eh      1.44 kcal/mol|
|  sn= 6 | S(rot)=       0.00212767 Eh      1.34 kcal/mol|
|  sn= 7 | S(rot)=       0.00198212 Eh      1.24 kcal/mol|
|  sn= 8 | S(rot)=       0.00185604 Eh      1.16 kcal/mol|
|  sn= 9 | S(rot)=       0.00174483 Eh      1.09 kcal/mol|
|  sn=10 | S(rot)=       0.00164535 Eh      1.03 kcal/mol|
|  sn=11 | S(rot)=       0.00155536 Eh      0.98 kcal/mol|
|  sn=12 | S(rot)=       0.00147321 Eh      0.92 kcal/mol|
 linear molecules ---------------------------------------
|  Dinfh | S(rot)=       0.00653683 Eh      4.10 kcal/mol|
|  Cinfv | S(rot)=       0.00719129 Eh      4.51 kcal/mol|
 --------------------------------------------------------


-------------------
GIBBS FREE ENERGY
-------------------

The Gibbs free energy is G = H - T*S

Total enthalpy                    ...   -675.50768870 Eh 
Total entropy correction          ...     -0.02265200 Eh    -14.21 kcal/mol
-----------------------------------------------------------------------
Final Gibbs free energy         ...   -675.53034070 Eh

For completeness - the Gibbs free energy minus the electronic energy
G-E(el)                           ...     -0.00753481 Eh     -4.73 kcal/mol


Maximum memory used throughout the entire PROP-calculation: 29.6 MB

--------------------------------
SUGGESTED CITATIONS FOR THIS RUN
--------------------------------

Below you find a list of papers that are relevant to this ORCA run
We neither can nor want to force you to cite these papers, but we appreciate if you do
You receive ORCA, which is the product of decades of hard work by many enthusiastic individuals, for free
The only thing we kindly ask in return is that you cite our papers,
We deeply appreciate it, if you show your appreciation for ORCA by not just citing the generic ORCA reference.

Please note that relegating all ORCA citations to the supporting information does *not* help us.
SI sections are not indexed - citations you put there will not count into any citation statistics
But we need these citations in order to attract the funding resources that allow us to do what we are doing

Therefore, if you are a happy ORCA user, please consider citing a few of the papers listed below in the main body of your paper

In addition to the list printed below, the program has created the file /users/s1155246975/huiwen_scratch/huiwen/KOH_opt5_opt/KOH_opt5_opt.bibtex that contains the list in bibtex format
You can import this file easily into all common literature databanks and citation aid programs


List of essential papers. We consider these as the minimum necessary citations

  1. Neese, F.
     Software update: the ORCA program system, version 6.0
     WIRES Comput. Molec. Sci. 2025 15(1), e70019
     doi.org/10.1002/wcms.7019

List of papers to cite with high priority. The work reported in these papers was absolutely
necessary for this run to complete.
Our perspective: the developers of density functionals and basis sets usually get cited in chemistry papers
Good! But without the algorithms to do something with them, the functionals or basis sets would not do anything.
Hence, in our opinion, the algorithm design and method developments papers are equally worthy of getting cited

  1. Neese, F.
     An improvement of the resolution of the identity approximation for the formation of the Coulomb matrix
     J. Comp. Chem. 2003 24(14), 1740-1747
     doi.org/10.1002/jcc.10318
  2. Neese, F.; Wennmohs, F.; Hansen, A.; Becker, U.
     Efficient, approximate and parallel Hartree-Fock and hybrid DFT calculations. A 'chain-of-spheres' algorithm for the Hartree-Fock exchange
     Chem. Phys. 2009 356(1-3), 98-109
     doi.org/10.1016/j.chemphys.2008.10.036
  3. Grimme, S.; Antony, J.; Ehrlich, S.; Krieg, H.
     A consistent and accurate ab initio parametrization of density functional dispersion correction (DFT-D) for the 94 elements H-Pu
     J. Chem. Phys. 2010 132 , 154104
     doi.org/10.1063/1.3382344
  4. Bykov, D.; Petrenko, T.; Izsak, R.; Kossmann, S.; Becker, U.; Valeev, E.; Neese, F.
     Efficient implementation of the analytic second derivatives of Hartree-Fock and hybrid DFT energies: a detailed analysis of different approximations
     Molec. Phys. 2015 113 , 1961-1977
     doi.org/10.1080/00268976.2015.1025114
  5. Helmich-Paris, B.; de Souza, B.; Neese, F.; Izsák, R.
     An improved chain of spheres for exchange algorithm
     J. Chem. Phys. 2021 155(10), 104109
     doi.org/10.1063/5.0058766
  6. Neese, F.
     The SHARK Integral Generation and Digestion System
     J. Comp. Chem. 2022 44(3), 381
     doi.org/10.1002/jcc.26942

List of suggested additional citations. These are papers that are important in the 'surrounding' of 
of this run, or papers that preceded the highly important papers. If you like your results we are grateful for a citation.

  1. Izsak, R.; Neese, F.
     An overlap fitted chain of spheres exchange method
     J. Chem. Phys. 2011 135 , 144105
     doi.org/10.1063/1.3646921
  2. Izsak, R.; Hansen, A.; Neese, F.
     The resolution of identity and chain of spheres approximations for the LPNO-CCSD singles Fock term
     Molec. Phys. 2012 110 , 2413-2417
     doi.org/10.1080/00268976.2012.687466
  3. Neese, F.
     The ORCA program system
     WIRES Comput. Molec. Sci. 2012 2(1), 73-78
     doi.org/10.1002/wcms.81
  4. Izsak, R.; Neese, F.; Klopper, W.
     Robust fitting techniques in the chain of spheres approximation to the Fock exchange: The role of the complementary space
     J. Chem. Phys. 2013 139 , 
     doi.org/10.1063/1.4819264
  5. Neese, F.
     Software update: the ORCA program system, version 4.0
     WIRES Comput. Molec. Sci. 2018 8(1), 1-6
     doi.org/10.1002/wcms.1327
  6. Neese, F.; Wennmohs, F.; Becker, U.; Riplinger, C.
     The ORCA quantum chemistry program package
     J. Chem. Phys. 2020 152(22), 224108
     doi.org/10.1063/5.0004608
  7. Neese, F.
     Software update: The ORCA program system—Version 5.0
     WIRES Comput. Molec. Sci. 2022 12(1), e1606
     doi.org/10.1002/wcms.1606

List of optional additional citations

  1. Neese, F.
     Approximate second-order SCF convergence for spin unrestricted wavefunctions
     Chem. Phys. Lett. 2000 325(1-3), 93-98
     doi.org/10.1016/s0009-2614(00)00662-x

Timings for individual modules:

Sum of individual times          ...     1058.880 sec (=  17.648 min)
Startup calculation              ...      168.699 sec (=   2.812 min)  15.9 %
SCF iterations                   ...      585.717 sec (=   9.762 min)  55.3 %
Property integrals               ...      134.418 sec (=   2.240 min)  12.7 %
SCF Response                     ...       17.622 sec (=   0.294 min)   1.7 %
Property calculations            ...        8.126 sec (=   0.135 min)   0.8 %
SCF Gradient evaluation          ...      144.053 sec (=   2.401 min)  13.6 %
Geometry relaxation              ...        0.246 sec (=   0.004 min)   0.0 %
                             ****ORCA TERMINATED NORMALLY****
TOTAL RUN TIME: 0 days 0 hours 20 minutes 9 seconds 310 msec
