
                                 *****************
                                 * O   R   C   A *
                                 *****************

                                            #,                                       
                                            ###                                      
                                            ####                                     
                                            #####                                    
                                            ######                                   
                                           ########,                                 
                                     ,,################,,,,,                         
                               ,,#################################,,                 
                          ,,##########################################,,             
                       ,#########################################, ''#####,          
                    ,#############################################,,   '####,        
                  ,##################################################,,,,####,       
                ,###########''''           ''''###############################       
              ,#####''   ,,,,##########,,,,          '''####'''          '####       
            ,##' ,,,,###########################,,,                        '##       
           ' ,,###''''                  '''############,,,                           
         ,,##''                                '''############,,,,        ,,,,,,###''
      ,#''                                            '''#######################'''  
     '                                                          ''''####''''         
             ,#######,   #######,   ,#######,      ##                                
            ,#'     '#,  ##    ##  ,#'     '#,    #''#        ,####,    ,#,          
            ##       ##  ##   ,#'  ##            #'  '#       #'       ,# #          
            ##       ##  #######   ##           ,######,      #####,      #          
            '#,     ,#'  ##    ##  '#,     ,#' ,#      #,     #,   #      #          
             '#######'   ##     ##  '#######'  #'      '#     '####' #    #          



                #########################################################
                #                        -***-                          #
                #          Department of theory and spectroscopy        #
                #                                                       #
                #                      Frank Neese                      #
                #                                                       #
                #     Directorship, Architecture, Infrastructure        #
                #                    SHARK, DRIVERS                     #
                #        Core code/Algorithms in most modules           #
                #                                                       #
                #        Max Planck Institute fuer Kohlenforschung      #
                #                Kaiser Wilhelm Platz 1                 #
                #                 D-45470 Muelheim/Ruhr                 #
                #                      Germany                          #
                #                                                       #
                #                  All rights reserved                  #
                #                        -***-                          #
                #########################################################


                         Program Version 6.1.0  -  RELEASE   -
                                (GIT: $679e74b$)
                          ($2025-06-10 18:02:51 +0200$)


 With contributions from (in alphabetic order):
[Max-Planck-Institut fuer Kohlenforschung]                               
  Daniel Aravena         : Magnetic Suceptibility                        
  Michael Atanasov       : Ab Initio Ligand Field Theory (pilot matlab implementation)
  Alexander A. Auer      : GIAO ZORA, VPT2 properties, NMR spectrum      
  Ute Becker             : All parallelization in ORCA, NUMFREQ, NUMCALC 
  Giovanni Bistoni       : ED, misc. LED, open-shell LED, HFLD           
  Dmytro Bykov           : pre 5.0 version of the SCF Hessian            
  Marcos Casanova-Páez   : Triplet and SCS-CIS(D). UHF-(DLPNO)-IP/EA/STEOM-CCSD. UHF-CVS-IP/STEOM-CCSD   
  Vijay G. Chilkuri      : MRCI spin determinant printing, contributions to CSF-ICE 
  Pauline Colinet        : FMM embedding                                 
  Dipayan Datta          : RHF DLPNO-CCSD density                        
  Achintya Kumar Dutta   : EOM-CC, STEOM-CC                              
  Nicolas Foglia         : Exact transition moments, OPA infrastructure, MCD improvements    
  Dmitry Ganyushin       : Spin-Orbit,Spin-Spin,Magnetic field MRCI      
  Miquel Garcia-Rates    : C-PCM and meta-GGA Hessian, CCSD/C-PCM, Gaussian charge scheme 
  Tiago L. C. Gouveia    : GS-ROHF, GS-ROCIS                             
  Yang Guo               : DLPNO-NEVPT2, F12-NEVPT2, CIM, IAO-localization        
  Andreas Hansen         : Spin unrestricted coupled pair/coupled cluster methods 
  Ingolf Harden          : AUTO-CI MPn and infrastructure                
  Benjamin Helmich-Paris : MC-RPA, TRAH-(SCF,CASSCF), AVAS, COSX integrals, SCF dyn. polar., MC-PDFT, srDFT 
  Lee Huntington         : MR-EOM, pCC                                   
  Robert Izsak           : Overlap fitted RIJCOSX, COSX-SCS-MP3, EOM     
  Riya Kayal             : Wick's Theorem for AUTO-CI, AUTO-CI UHF-CCSDT 
  Emily Kempfer          : AUTO-CI RHF CISDT and CCSDT, approximate NEVPT4
  Christian Kollmar      : KDIIS, OOCD, Brueckner-CCSD(T), CCSD density, CASPT2, CASPT2-K, improved NEVPT2 
  Axel Koslowski         : Symmetry handling                             
  Simone Kossmann        : meta-GGA functionals, TD-DFT gradient, OOMP2, (MP2 Hessian; deprecated post 5.0) 
  Lucas Lang             : DCDCAS, Hyperfine gauge corrections, ICE-SOC+SSC
  Marvin Lechner         : AUTO-CI (C++ implementation), FIC-MRCC        
  Spencer Leger          : CASSCF response                               
  Dagmar Lenk            : GEPOL surface, SMD, ORCA-2-JSON               
  Dimitrios Liakos       : Extrapolation schemes; Compound Job, Property file
  Dimitrios Manganas     : Further ROCIS development; embedding schemes. LFT, Crystal Embedding 
  Dimitrios Pantazis     : SARC Basis sets                               
  Anastasios Papadopoulos: AUTO-CI, single reference methods and gradients 
  Taras Petrenko         : pre 6.0 DFT Hessian and TD-DFT gradient,  ECA, NRVS 
  Petra Pikulova         : Analytic Raman intensities                    
  Peter Pinski           : DLPNO-MP2, DLPNO-MP2 Gradient                 
  Shashank Vittal Rao    : ES-AILFT, MagRelax                            
  Christoph Reimann      : Effective Core Potentials                     
  Marius Retegan         : Local ZFS, SOC                                
  Christoph Riplinger    : Optimizer, TS searches, QM/MM, DLPNO-CCSD(T), (RO)-DLPNO pert. Triples 
  Michael Roemelt        : Original ROCIS implementation, recursive CI coupling coefficients
  Masaaki Saitow         : Open-shell DLPNO-CCSD energy and density      
  Barbara Sandhoefer     : DKH picture change effects                    
  Yorick L. A. Schmerwitz: GMF and freeze-and-release deltaSCF, NEB S-IDPP initial path                    
  Kantharuban Sivalingam : CASSCF convergence/infrastructure, NEVPT2, NEVPT3, NEVPT4(SD), FIC-MRCI and CEPA variants
  Bernardo de Souza      : ESD, SOC TD-DFT                               
  Georgi L. Stoychev     : AutoAux, RI-MP2 NMR, DLPNO-MP2 response, X2C  
  Van Anh Tran           : RI-MP2 g-tensors                              
  Willem Van den Heuvel  : Paramagnetic NMR                              
  Zikuan Wang            : NOTCH, Electric field optimization            
  Frank Wennmohs         : Technical directorship and infrastructure     
  Hang Xu                : AUTO-CI-Response properties                   
                                                                         
[FACCTs GmbH]                                                            
  Markus Bursch, Nicolas Foglia, Miquel Garcia-Rates, Ingolf Harden, Hagen Neugebauer, Anastasios Papadopoulos, 
  Christoph Riplinger, Bernardo de Souza, Georgi L. Stoychev                                                    
                                                                 
  APM, various basis sets, CI-OPT, improved COSX, DLPNO-Multilevel,           
  DOCKER, DRACO, updates on ESD, Fragmentator, GOAT, IRC, LR-CPCM, L-BFGS, MBIS, meta-GGA TD-DFT gradient, ML-optimized integration grids, 
  MM, NACMEs, nearIR, NEB, NEB-TS, NL-DFT gradient (VV10), 2- and 3-layer-ONIOM, interface openCOSMO-RS, QMMM,   
  Crystal-QMMM, RESP, rigid body optimization, SF, symmetry and pop. for TD-DFT, various functionals, SOLVATOR                                   
                                                                         
[Other institutions]                                                     
  V. Asgeirsson          : NEB                                           
  Christoph Bannwarth    : sTDA-DFT, sTD-DFT, PBEh-3c, B97-3c, D3        
  Giovanni Bistoni       : ETS/NOCV, ADLD/ADEX, COVALED                  
  Martin Brehm           : Molecular dynamics                            
  Ronald Cardenas        : ETS/NOCV                                      
  Martina Colucci        : COVALED                                       
  Sebastian Ehlert       : rSCAN, r2SCAN, r2SCAN-3c, D4, dhf basis sets  
  Marvin Friede          : D4 for Fr, Ra, Ac-Lr                          
  Lars Goerigk           : TD-DFT with DH, B97 family of functionals     
  Stefan Grimme          : VdW corrections, initial TS optimization, DFT functionals, gCP, sTDA/sTD-DF 
  Waldemar Hujo          : DFT-NL                                        
  H. Jonsson             : NEB                                           
  Holger Kruse           : gCP                                           
  Marcel Mueller         : wB97X-3c, vDZP basis set                      
  Hagen Neugebauer       : wr2SCAN, Native XTB                           
  Gianluca Regni         : ADLD/ADEX                                     
  Tobias Risthaus        : pre 6.0 range-separated hybrid DFT and stability analysis
  Lukas Wittmann         : regularized MP2, r2SCAN double-hybrids, wr2SCAN        
                                                                         
We gratefully acknowledge several colleagues who have allowed us to      
interface, adapt or use parts of their codes:                            
  Ed Valeev, F. Pavosevic, A. Kumar             : LibInt (2-el integral package), F12 methods 
  Garnet Chan, S. Sharma, J. Yang, R. Olivares  : DMRG                   
  Ulf Ekstrom                                   : XCFun DFT Library      
  Mihaly Kallay                                 : mrcc  (arbitrary order and MRCC methods)
  Frank Weinhold                                : gennbo (NPA and NBO analysis)           
  Simon Mueller                                 : openCOSMO-RS                            
  Christopher J. Cramer and Donald G. Truhlar   : smd solvation model                     
  S Lehtola, MJT Oliveira, MAL Marques          : LibXC Library                           
  Liviu Ungur et al                             : ANISO software                          


 Your calculation uses the libint2 library for the computation of 2-el integrals
 For citations please refer to: http://libint.valeyev.net

 Your ORCA version has been built with support for libXC version: 7.0.0
 For citations please refer to: https://libxc.gitlab.io

 This ORCA versions uses:
   CBLAS   interface :  Fast vector & matrix operations
   LAPACKE interface :  Fast linear algebra routines
   SCALAPACK package :  Parallel linear algebra routines
   Shared memory     :  Shared parallel matrices
   BLAS/LAPACK       :  OpenBLAS 0.3.29  USE64BITINT DYNAMIC_ARCH NO_AFFINITY Cooperlake SINGLE_THREADED
        Core in use  :  Cooperlake
   Copyright (c) 2011-2014, The OpenBLAS Project


  ***********************************
  * Starting time: Fri Feb 27 18:21:42 2026
  * Host name:     chpc-cn074.rc.cuhk.edu.hk
  * Process ID:    1043291
  * Working dir.:  /ss02/scratch/s1/xlzhang/jingyi/L2_ts1_opt_pka_HA
  ***********************************

Using LibXC functional ID 268 : Minnesota MN15 hybrid exchange functional
[ 1]  H. S. Yu, X. He, S. L. Li, and D. G. Truhlar.,  Chem. Sci. 7, 5032-5051 (2016)
Using LibXC functional ID 269 : Minnesota MN15 correlation functional
[ 1]  H. S. Yu, X. He, S. L. Li, and D. G. Truhlar.,  Chem. Sci. 7, 5032-5051 (2016)
Using LibXC functional ID 268 : Minnesota MN15 hybrid exchange functional
[ 1]  H. S. Yu, X. He, S. L. Li, and D. G. Truhlar.,  Chem. Sci. 7, 5032-5051 (2016)
Using LibXC functional ID 269 : Minnesota MN15 correlation functional
[ 1]  H. S. Yu, X. He, S. L. Li, and D. G. Truhlar.,  Chem. Sci. 7, 5032-5051 (2016)
NOTE: MaxCore=2109 MB was set to SCF,MP2,MDCI,CIPSI,MRCI,RASCI and CIS
      => If you want to overwrite this, your respective input block should be placed after the MaxCore statement
Your calculation utilizes LibXC
by S. Lehtola, C. Steigemann, M. J. T. Oliveira & M. A. L. Marques
Please cite in your paper:
Lehtola, S.; Steigemann, C.; Oliveira, M.J.T.; Marques, M. A. L. Software X, 7, (2018), 1.
   

Warning: RI is on but no J-basis has been assigned. Assigning Def2/J (nothing to worry about!)
================================================================================

cite the ECPs for Pd [Def2-ECP] as follows:
Ce-Yb(ecp-28): M. Dolg, H. Stoll, H.Preuss, J. Chem. Phys., 1989, 90, 1730-1734.
Y-Cd(ecp-28), Hf-Hg(ecp-46): D. Andrae,U. Haeussermann, M. Dolg, H. Stoll, H. Preuss, Theor. Chim. Acta, 1990, 77, 123-141.
In-Sb(ecp-28), Tl-Bi(ecp-46): B. Metz, H. Stoll, M. Dolg, J. Chem. Phys., 2000, 113, 2563-2569.
Te-Xe(ecp-28), Po-Rn(ecp-46): K. A. Peterson, D. Figgen, E. Goll, H. Stoll, M. Dolg, J. Chem. Phys., 2003, 119, 11113-11123.
Rb(ecp-28), Cs(ecp-46): T. Leininger, A. Nicklass, W. Kuechle, H. Stoll, M. Dolg, A. Bergner, Chem. Phys. Lett., 1996, 255, 274-280.
Sr(ecp-28), Ba(ecp-46): M. Kaupp, P. V. Schleyer, H. Stoll and H. Preuss, J. Chem. Phys., 1991, 94, 1360-1366.
La(ecp-46): M. Dolg, H. Stoll, A. Savin, H. Preuss, Theor. Chim. Acta, 1989, 75, 173-194.
Lu(ecp-28): X. Cao, M. Dolg, J. Chem. Phys., 2001, 115, 7348-7355.

ECP parameters for Pd [Def2-ECP] have been obtained from:
TURBOMOLE (7.0.2)

----- Orbital basis set information -----
Your calculation utilizes the basis: def2-SVP
   F. Weigend and R. Ahlrichs, Phys. Chem. Chem. Phys. 7, 3297 (2005).

----- AuxJ basis set information -----
Your calculation utilizes the auxiliary basis: def2/J
   H-Rn: F. Weigend, Phys. Chem. Chem. Phys. 8, 1057 (2006).
   Fr-Lr: K. Eichkorn, F. Weigend, O. Treutler, R. Ahlrichs; Theor. Chem. Acc. 97, 119 (1997).

================================================================================
                                        WARNINGS
                       Please study these warnings very carefully!
================================================================================

WARNING: Old DensityContainer found on disk!
         Will remove this file - 
         If you want to keep old densities, please start your calculation with a different basename. 


WARNING: Geometry Optimization
  ===> : Switching off AutoStart
         For restart on a previous wavefunction, please use MOREAD

================================================================================
                                       INPUT FILE
================================================================================
NAME = /users/s1155246976/scratch/L2_ts1_opt_pka_HA/L2_ts1_opt_pka_HA.inp
|  1> ! Opt Freq LibXC(MN15) def2-svp defgrid2
|  2> # Number of processors
|  3> %pal nprocs 64 end
|  4> # Memory per core
|  5> %maxcore 2109
|  6> * xyz 0 1
|  7> C        1.9722684200   -0.3763887000    0.4864138900
|  8> C        1.3610768900   -0.2125014000    1.9013691100
|  9> H        1.7438340900    0.6781713900    2.3542475800
| 10> H        0.2960688200   -0.1440214500    1.8241142700
| 11> C        1.4036305900   -1.6135254900   -0.1727158100
| 12> O        0.4694430000   -1.5560310000   -0.9679360000
| 13> O       -1.7050650000    2.3086320000   -0.5148170000
| 14> O        1.9479069500   -2.7551078100    0.1766430400
| 15> H        1.4715549700   -3.4860292500   -0.2615014800
| 16> C       -3.4432570000    1.6119300000    1.5049550000
| 17> C       -2.9349650000    0.2848520000    0.8866130000
| 18> C       -4.0720180000   -0.5495220000    0.3028920000
| 19> C       -4.4306040000    2.4064130000    0.6576430000
| 20> H       -2.1685300000    1.1257120000   -0.0205180000
| 21> H       -2.4873500000   -0.2597210000    1.7376750000
| 22> H       -3.9425260000    1.3250120000    2.4475830000
| 23> H       -2.5887940000    2.2447600000    1.7878560000
| 24> H       -4.0020170000    2.6827700000   -0.3149520000
| 25> H       -4.7134660000    3.3354870000    1.1742270000
| 26> C       -3.6538680000   -1.9940840000    0.0641280000
| 27> O       -4.4473990000   -2.9088520000    0.0278870000
| 28> O       -2.3584820000   -2.1364440000   -0.1063810000
| 29> Pd      -1.2339070000   -0.5431100000   -0.1584180000
| 30> H       -4.4054070000   -0.1363560000   -0.6642310000
| 31> H       -4.9558920000   -0.5447690000    0.9620380000
| 32> H       -5.3550310000    1.8372160000    0.4806590000
| 33> N        0.0452378100    0.9465723100   -0.4134379200
| 34> C       -0.3767188500    2.2192775600   -0.5443428200
| 35> C        1.3741605300    0.7298564800   -0.4633213400
| 36> C        0.4925484000    3.3102584700   -0.7272110900
| 37> C        2.3217691800    1.7542561200   -0.6427313900
| 38> C        1.8663943000    3.0670594600   -0.7766408800
| 39> H        0.0927159700    4.3272446700   -0.8283163300
| 40> H        3.3932335700    1.5192108700   -0.6756544300
| 41> H        2.5763982300    3.8944023400   -0.9172827000
| 42> C        3.4957418000   -0.5617567800    0.6139582200
| 43> H        3.9129113000   -0.7603526000   -0.3511476300
| 44> H        3.9312645100    0.3299019400    1.0141640500
| 45> H        3.7015663500   -1.3836143400    1.2674766900
| 46> H        1.6214095400   -1.0585193200    2.5025185000
| 47> *
| 48> 
| 49>                          ****END OF INPUT****
================================================================================

                       *****************************
                       * Geometry Optimization Run *
                       *****************************

Geometry optimization settings:
Update method            Update   .... BFGS
Choice of coordinates    CoordSys .... (2022) Redundant Internals
Initial Hessian          InHess   .... Almloef's Model
Max. no of cycles        MaxIter  .... 120

Convergence Tolerances:
Energy Change            TolE     ....  5.0000e-06 Eh
Max. Gradient            TolMAXG  ....  3.0000e-04 Eh/bohr
RMS Gradient             TolRMSG  ....  1.0000e-04 Eh/bohr
Max. Displacement        TolMAXD  ....  4.0000e-03 bohr
RMS Displacement         TolRMSD  ....  2.0000e-03 bohr
Strict Convergence                .... False

------------------------------------------------------------------------------
                        ORCA OPTIMIZATION COORDINATE SETUP
------------------------------------------------------------------------------

The optimization will be done in redundant internal coordinates (2022)
Making redundant internal coordinates   ...  (2022 redundants) done
Evaluating the initial hessian          ...  (Almloef) done
Evaluating the coordinates              ...  done
Calculating the B-matrix                .... done
Calculating the G-matrix                .... done
The number of degrees of freedom        ....  227

    -----------------------------------------------------------------
                    Redundant Internal Coordinates


    -----------------------------------------------------------------
         Definition                    Initial Value    Approx d2E/dq
    -----------------------------------------------------------------
      1. B(C   1,C   0)                  1.5500         0.347106   
      2. B(H   2,C   1)                  1.0700         0.387554   
      3. B(H   3,C   1)                  1.0700         0.387554   
      4. B(C   4,C   0)                  1.5127         0.398065   
      5. B(O   5,C   4)                  1.2282         1.014085   
      6. B(O   7,C   4)                  1.3121         0.745119   
      7. B(H   8,O   7)                  0.9763         0.489766   
      8. B(C  10,C   9)                  1.5498         0.347381   
      9. B(C  11,C  10)                  1.5264         0.378592   
     10. B(C  12,C   9)                  1.5245         0.381248   
     11. B(H  13,O   6)                  1.3632         0.118200   
     12. B(H  14,C  10)                  1.1051         0.340680   
     13. B(H  15,C   9)                  1.1046         0.341296   
     14. B(H  16,C   9)                  1.1003         0.346756   
     15. B(H  17,C  12)                  1.0982         0.349439   
     16. B(H  18,C  12)                  1.1000         0.347083   
     17. B(C  19,C  11)                  1.5227         0.383728   
     18. B(O  20,C  19)                  1.2115         1.077985   
     19. B(O  21,C  19)                  1.3143         0.739030   
     20. B(Pd 22,O  21)                  1.9509         0.721253   
     21. B(Pd 22,H  13)                  1.9177         0.174195   
     22. B(Pd 22,C  10)                  2.1613         0.371798   
     23. B(Pd 22,O   5)                  2.1407         0.359134   
     24. B(H  23,C  11)                  1.1033         0.342980   
     25. B(H  24,C  11)                  1.1026         0.343810   
     26. B(H  25,C  12)                  1.0999         0.347184   
     27. B(N  26,Pd 22)                  1.9800         0.648176   
     28. B(C  27,N  26)                  1.3472         0.654865   
     29. B(C  27,O   6)                  1.3317         0.693312   
     30. B(C  28,N  26)                  1.3474         0.654394   
     31. B(C  28,C   0)                  1.5759         0.315590   
     32. B(C  29,C  27)                  1.4069         0.587233   
     33. B(C  30,C  28)                  1.4070         0.587050   
     34. B(C  31,C  30)                  1.3960         0.611228   
     35. B(C  31,C  29)                  1.3961         0.610994   
     36. B(H  32,C  29)                  1.0974         0.350406   
     37. B(H  33,C  30)                  1.0974         0.350396   
     38. B(H  34,C  31)                  1.0993         0.348051   
     39. B(C  35,C   0)                  1.5400         0.360100   
     40. B(H  36,C  35)                  1.0700         0.387554   
     41. B(H  37,C  35)                  1.0700         0.387554   
     42. B(H  38,C  35)                  1.0700         0.387554   
     43. B(H  39,C   1)                  1.0700         0.387554   
     44. A(C   1,C   0,C   4)          109.6339         0.362732   
     45. A(C  28,C   0,C  35)          120.6549         0.350888   
     46. A(C   4,C   0,C  28)           99.7197         0.356897   
     47. A(C   1,C   0,C  28)          109.0426         0.348719   
     48. A(C   4,C   0,C  35)          108.0302         0.365018   
     49. A(C   1,C   0,C  35)          109.0993         0.356592   
     50. A(C   0,C   1,H   3)          109.4712         0.324318   
     51. A(C   0,C   1,H  39)          109.4712         0.324318   
     52. A(H   2,C   1,H   3)          109.4712         0.297665   
     53. A(H   2,C   1,H  39)          109.4712         0.297665   
     54. A(H   3,C   1,H  39)          109.4712         0.297665   
     55. A(C   0,C   1,H   2)          109.4712         0.324318   
     56. A(C   0,C   4,O   7)          116.0790         0.411721   
     57. A(C   0,C   4,O   5)          121.9899         0.435037   
     58. A(O   5,C   4,O   7)          121.9155         0.484512   
     59. A(C   4,O   5,Pd 22)          112.4906         0.477169   
     60. A(H  13,O   6,C  27)          106.7944         0.295185   
     61. A(C   4,O   7,H   8)          109.2384         0.378118   
     62. A(C  10,C   9,H  16)          109.9005         0.318509   
     63. A(C  12,C   9,H  15)          108.4779         0.322552   
     64. A(C  10,C   9,H  15)          105.4442         0.317686   
     65. A(C  10,C   9,C  12)          115.9077         0.360119   
     66. A(H  15,C   9,H  16)          106.3193         0.286707   
     67. A(C  12,C   9,H  16)          110.2511         0.323392   
     68. A(H  14,C  10,Pd 22)           82.2297         0.357098   
     69. A(C  11,C  10,Pd 22)          101.0688         0.406471   
     70. A(C   9,C  10,Pd 22)          141.1770         0.400349   
     71. A(C  11,C  10,H  14)          109.0793         0.322087   
     72. A(C   9,C  10,H  14)          104.3324         0.317592   
     73. A(C   9,C  10,C  11)          112.1075         0.359691   
     74. A(C  10,C  11,C  19)          111.9616         0.365856   
     75. A(C  19,C  11,H  24)          108.5398         0.323284   
     76. A(H  23,C  11,H  24)          106.2715         0.286546   
     77. A(C  10,C  11,H  24)          111.4808         0.322570   
     78. A(C  19,C  11,H  23)          107.5061         0.323156   
     79. A(C  10,C  11,H  23)          110.8321         0.322443   
     80. A(H  18,C  12,H  25)          107.2482         0.287517   
     81. A(H  17,C  12,H  25)          108.4041         0.287821   
     82. A(C   9,C  12,H  25)          111.3501         0.323458   
     83. A(H  17,C  12,H  18)          107.6812         0.287808   
     84. A(C   9,C  12,H  18)          110.2241         0.323442   
     85. A(C   9,C  12,H  17)          111.7546         0.323802   
     86. A(O   6,H  13,Pd 22)          124.2880         0.248306   
     87. A(O  20,C  19,O  21)          124.0485         0.489276   
     88. A(C  11,C  19,O  21)          113.1888         0.408459   
     89. A(C  11,C  19,O  20)          122.7607         0.436955   
     90. A(C  19,O  21,Pd 22)          118.8906         0.512118   
     91. A(O   5,Pd 22,H  13)          145.7663         0.364179   
     92. A(O   5,Pd 22,C  10)          172.0355         0.449191   
     93. A(O  21,Pd 22,N  26)          172.0103         0.564522   
     94. A(H  13,Pd 22,N  26)           70.6942         0.403526   
     95. A(C  10,Pd 22,N  26)          106.4106         0.500694   
     96. A(O   5,Pd 22,N  26)           78.0680         0.495096   
     97. A(H  13,Pd 22,O  21)          115.3324         0.411223   
     98. A(C  10,Pd 22,O  21)           81.1579         0.510769   
     99. A(O   5,Pd 22,O  21)           94.7212         0.505034   
    100. A(C  10,Pd 22,H  13)           41.2596         0.367972   
    101. A(C  27,N  26,C  28)          117.2105         0.436865   
    102. A(Pd 22,N  26,C  28)          121.3947         0.490795   
    103. A(Pd 22,N  26,C  27)          121.3947         0.490860   
    104. A(N  26,C  27,C  29)          123.4828         0.431259   
    105. A(O   6,C  27,C  29)          124.5534         0.435707   
    106. A(O   6,C  27,N  26)          111.9415         0.441443   
    107. A(N  26,C  28,C  30)          123.4969         0.431179   
    108. A(C   0,C  28,C  30)          109.4102         0.381521   
    109. A(C   0,C  28,N  26)          117.7050         0.386333   
    110. A(C  27,C  29,C  31)          118.5252         0.428724   
    111. A(C  31,C  29,H  32)          121.1114         0.350417   
    112. A(C  27,C  29,H  32)          120.3635         0.348080   
    113. A(C  28,C  30,C  31)          118.5054         0.428730   
    114. A(C  31,C  30,H  33)          121.1328         0.350438   
    115. A(C  28,C  30,H  33)          120.3618         0.348060   
    116. A(C  29,C  31,C  30)          118.7792         0.431818   
    117. A(C  30,C  31,H  34)          120.6219         0.350041   
    118. A(C  29,C  31,H  34)          120.5988         0.350018   
    119. A(H  37,C  35,H  38)          109.4712         0.297665   
    120. A(H  36,C  35,H  38)          109.4712         0.297665   
    121. A(C   0,C  35,H  38)          109.4712         0.326284   
    122. A(H  36,C  35,H  37)          109.4713         0.297665   
    123. A(C   0,C  35,H  37)          109.4712         0.326284   
    124. A(C   0,C  35,H  36)          109.4712         0.326284   
    125. D(H   2,C   1,C   0,C  28)    -70.1759         0.010000   
    126. D(H   3,C   1,C   0,C  28)     49.8241         0.010000   
    127. D(H   3,C   1,C   0,C   4)    -58.4017         0.010000   
    128. D(H   3,C   1,C   0,C  35)   -176.5204         0.010000   
    129. D(H   2,C   1,C   0,C  35)     63.4796         0.010000   
    130. D(H   2,C   1,C   0,C   4)   -178.4017         0.010000   
    131. D(O   5,C   4,C   0,C  35)   -143.4352         0.011765   
    132. D(O   5,C   4,C   0,C   1)     97.7834         0.011765   
    133. D(O   7,C   4,C   0,C   1)    -80.8029         0.011765   
    134. D(O   5,C   4,C   0,C  28)    -16.5826         0.011765   
    135. D(O   7,C   4,C   0,C  28)    164.8312         0.011765   
    136. D(Pd 22,O   5,C   4,C   0)    -54.4794         0.084605   
    137. D(Pd 22,O   5,C   4,O   7)    124.0246         0.084605   
    138. D(H   8,O   7,C   4,O   5)     -2.1422         0.042108   
    139. D(H   8,O   7,C   4,C   0)    176.4452         0.042108   
    140. D(H  14,C  10,C   9,H  16)     69.8784         0.010000   
    141. D(H  14,C  10,C   9,C  12)   -164.3125         0.010000   
    142. D(C  11,C  10,C   9,H  16)   -172.2212         0.010000   
    143. D(C  11,C  10,C   9,C  12)    -46.4121         0.010000   
    144. D(H  14,C  10,C   9,H  15)    -44.3292         0.010000   
    145. D(C  11,C  10,C   9,H  15)     73.5712         0.010000   
    146. D(C  19,C  11,C  10,C   9)   -163.5870         0.011428   
    147. D(H  23,C  11,C  10,C   9)     76.3820         0.011428   
    148. D(C  19,C  11,C  10,Pd 22)     36.9712         0.011428   
    149. D(H  23,C  11,C  10,H  14)   -168.5799         0.011428   
    150. D(C  19,C  11,C  10,H  14)    -48.5490         0.011428   
    151. D(H  23,C  11,C  10,Pd 22)    -83.0598         0.011428   
    152. D(H  18,C  12,C   9,C  10)   -178.9012         0.011580   
    153. D(H  17,C  12,C   9,H  16)     66.4330         0.011580   
    154. D(H  17,C  12,C   9,C  10)    -59.1978         0.011580   
    155. D(H  17,C  12,C   9,H  15)   -177.5223         0.011580   
    156. D(H  18,C  12,C   9,H  16)    -53.2703         0.011580   
    157. D(H  18,C  12,C   9,H  15)     62.7744         0.011580   
    158. D(Pd 22,H  13,O   6,C  27)    -26.3305         0.010000   
    159. D(O  21,C  19,C  11,H  23)     96.9602         0.010975   
    160. D(O  21,C  19,C  11,C  10)    -24.9960         0.010975   
    161. D(O  20,C  19,C  11,H  24)     32.0233         0.010975   
    162. D(O  20,C  19,C  11,H  23)    -82.5375         0.010975   
    163. D(O  20,C  19,C  11,C  10)    155.5064         0.010975   
    164. D(Pd 22,O  21,C  19,O  20)    175.2064         0.041350   
    165. D(Pd 22,O  21,C  19,C  11)     -4.2837         0.041350   
    166. D(N  26,Pd 22,O  21,C  19)   -140.2072         0.010000   
    167. D(C  10,Pd 22,O  21,C  19)     21.3638         0.010000   
    168. D(O   5,Pd 22,O  21,C  19)   -165.5014         0.010000   
    169. D(N  26,Pd 22,H  13,O   6)     19.9572         0.010000   
    170. D(C  10,Pd 22,H  13,O   6)    168.5234         0.010000   
    171. D(O   5,Pd 22,H  13,O   6)     -5.3242         0.010000   
    172. D(O  21,Pd 22,C  10,C   9)   -179.1689         0.010000   
    173. D(H  13,Pd 22,C  10,H  14)   -135.8994         0.010000   
    174. D(H  13,Pd 22,C  10,C  11)    116.0736         0.010000   
    175. D(H  13,Pd 22,C  10,C   9)    -32.6643         0.010000   
    176. D(O   5,Pd 22,C  10,H  14)     18.3064         0.010000   
    177. D(O   5,Pd 22,C  10,C  11)    -89.7206         0.010000   
    178. D(O  21,Pd 22,H  13,O   6)   -154.3682         0.010000   
    179. D(O   5,Pd 22,C  10,C   9)    121.5415         0.010000   
    180. D(N  26,Pd 22,O   5,C   4)     71.0412         0.010000   
    181. D(O  21,Pd 22,O   5,C   4)   -112.4387         0.010000   
    182. D(H  13,Pd 22,O  21,C  19)     -2.3808         0.010000   
    183. D(H  13,Pd 22,O   5,C   4)     95.3686         0.010000   
    184. D(C  10,Pd 22,O   5,C   4)    -53.9614         0.010000   
    185. D(C  27,N  26,Pd 22,H  13)     -9.0627         0.010000   
    186. D(C  27,N  26,Pd 22,C  10)    -30.0726         0.010000   
    187. D(C  27,N  26,Pd 22,O   5)    156.7224         0.010000   
    188. D(C  28,N  26,Pd 22,C  10)    149.9274         0.010000   
    189. D(C  28,N  26,Pd 22,O   5)    -23.2776         0.010000   
    190. D(C  27,N  26,Pd 22,O  21)    130.9232         0.010000   
    191. D(C  29,C  27,N  26,C  28)     -0.0010         0.035044   
    192. D(C  29,C  27,N  26,Pd 22)    179.9990         0.035044   
    193. D(O   6,C  27,N  26,C  28)    178.3518         0.035044   
    194. D(O   6,C  27,N  26,Pd 22)     -1.6482         0.035044   
    195. D(C  29,C  27,O   6,H  13)   -166.3497         0.035931   
    196. D(N  26,C  27,O   6,H  13)     15.3184         0.035931   
    197. D(C  30,C  28,N  26,C  27)     -0.0067         0.034989   
    198. D(C  30,C  28,N  26,Pd 22)    179.9933         0.034989   
    199. D(C   0,C  28,N  26,C  27)    142.8996         0.034989   
    200. D(C   0,C  28,N  26,Pd 22)    -37.1004         0.034989   
    201. D(C  30,C  28,C   0,C   4)   -142.4434         0.010000   
    202. D(C  30,C  28,C   0,C   1)    102.7373         0.010000   
    203. D(N  26,C  28,C   0,C  35)   -172.4063         0.010000   
    204. D(N  26,C  28,C   0,C   4)     69.7826         0.010000   
    205. D(N  26,C  28,C   0,C   1)    -45.0367         0.010000   
    206. D(H  32,C  29,C  27,N  26)    179.9941         0.023720   
    207. D(H  32,C  29,C  27,O   6)      1.8493         0.023720   
    208. D(C  31,C  29,C  27,N  26)      0.0100         0.023720   
    209. D(C  31,C  29,C  27,O   6)   -178.1348         0.023720   
    210. D(H  33,C  30,C  28,N  26)   -179.9962         0.023705   
    211. D(H  33,C  30,C  28,C   0)     34.4861         0.023705   
    212. D(C  31,C  30,C  28,N  26)      0.0051         0.023705   
    213. D(C  31,C  30,C  28,C   0)   -145.5125         0.023705   
    214. D(H  34,C  31,C  30,H  33)     -0.0632         0.025808   
    215. D(H  34,C  31,C  30,C  28)    179.9354         0.025808   
    216. D(C  29,C  31,C  30,H  33)   -179.9944         0.025808   
    217. D(C  29,C  31,C  30,C  28)      0.0043         0.025808   
    218. D(H  34,C  31,C  29,H  32)      0.0736         0.025788   
    219. D(H  34,C  31,C  29,C  27)   -179.9425         0.025788   
    220. D(C  30,C  31,C  29,H  32)   -179.9952         0.025788   
    221. D(C  30,C  31,C  29,C  27)     -0.0113         0.025788   
    222. D(H  37,C  35,C   0,C  28)     62.4576         0.010403   
    223. D(H  37,C  35,C   0,C   4)    175.9927         0.010403   
    224. D(H  37,C  35,C   0,C   1)    -64.8863         0.010403   
    225. D(H  36,C  35,C   0,C  28)    -57.5424         0.010403   
    226. D(H  36,C  35,C   0,C   4)     55.9927         0.010403   
    227. D(H  36,C  35,C   0,C   1)    175.1137         0.010403   
    -----------------------------------------------------------------

Number of atoms                         .... 40
Number of degrees of freedom            .... 227


         *************************************************************
         *                GEOMETRY OPTIMIZATION CYCLE   1            *
         *************************************************************
---------------------------------
CARTESIAN COORDINATES (ANGSTROEM)
---------------------------------
  C      1.972268   -0.376389    0.486414
  C      1.361077   -0.212501    1.901369
  H      1.743834    0.678171    2.354248
  H      0.296069   -0.144021    1.824114
  C      1.403631   -1.613525   -0.172716
  O      0.469443   -1.556031   -0.967936
  O     -1.705065    2.308632   -0.514817
  O      1.947907   -2.755108    0.176643
  H      1.471555   -3.486029   -0.261501
  C     -3.443257    1.611930    1.504955
  C     -2.934965    0.284852    0.886613
  C     -4.072018   -0.549522    0.302892
  C     -4.430604    2.406413    0.657643
  H     -2.168530    1.125712   -0.020518
  H     -2.487350   -0.259721    1.737675
  H     -3.942526    1.325012    2.447583
  H     -2.588794    2.244760    1.787856
  H     -4.002017    2.682770   -0.314952
  H     -4.713466    3.335487    1.174227
  C     -3.653868   -1.994084    0.064128
  O     -4.447399   -2.908852    0.027887
  O     -2.358482   -2.136444   -0.106381
  Pd    -1.233907   -0.543110   -0.158418
  H     -4.405407   -0.136356   -0.664231
  H     -4.955892   -0.544769    0.962038
  H     -5.355031    1.837216    0.480659
  N      0.045238    0.946572   -0.413438
  C     -0.376719    2.219278   -0.544343
  C      1.374161    0.729856   -0.463321
  C      0.492548    3.310258   -0.727211
  C      2.321769    1.754256   -0.642731
  C      1.866394    3.067059   -0.776641
  H      0.092716    4.327245   -0.828316
  H      3.393234    1.519211   -0.675654
  H      2.576398    3.894402   -0.917283
  C      3.495742   -0.561757    0.613958
  H      3.912911   -0.760353   -0.351148
  H      3.931265    0.329902    1.014164
  H      3.701566   -1.383614    1.267477
  H      1.621410   -1.058519    2.502518

----------------------------
CARTESIAN COORDINATES (A.U.)
----------------------------
  NO LB      ZA    FRAG     MASS         X           Y           Z
   0 C     6.0000    0    12.011    3.727047   -0.711272    0.919189
   1 C     6.0000    0    12.011    2.572063   -0.401569    3.593067
   2 H     1.0000    0     1.008    3.295369    1.281558    4.448883
   3 H     1.0000    0     1.008    0.559489   -0.272161    3.447076
   4 C     6.0000    0    12.011    2.652477   -3.049121   -0.326386
   5 O     8.0000    0    15.999    0.887119   -2.940472   -1.829134
   6 O     8.0000    0    15.999   -3.222106    4.362682   -0.972863
   7 O     8.0000    0    15.999    3.681011   -5.206399    0.333807
   8 H     1.0000    0     1.008    2.780836   -6.587641   -0.494166
   9 C     6.0000    0    12.011   -6.506813    3.046106    2.843953
  10 C     6.0000    0    12.011   -5.546280    0.538292    1.675456
  11 C     6.0000    0    12.011   -7.694999   -1.038446    0.572383
  12 C     6.0000    0    12.011   -8.372628    4.547462    1.242765
  13 H     1.0000    0     1.008   -4.097928    2.127287   -0.038773
  14 H     1.0000    0     1.008   -4.700410   -0.490802    3.283730
  15 H     1.0000    0     1.008   -7.450294    2.503910    4.625262
  16 H     1.0000    0     1.008   -4.892112    4.241982    3.378558
  17 H     1.0000    0     1.008   -7.562716    5.069701   -0.595173
  18 H     1.0000    0     1.008   -8.907160    6.303157    2.218967
  19 C     6.0000    0    12.011   -6.904810   -3.768273    0.121184
  20 O     8.0000    0    15.999   -8.404366   -5.496934    0.052699
  21 O     8.0000    0    15.999   -4.456885   -4.037294   -0.201031
  22 Pd   18.0000*   0   106.400   -2.331746   -1.026329   -0.299367
  23 H     1.0000    0     1.008   -8.325013   -0.257675   -1.255215
  24 H     1.0000    0     1.008   -9.365279   -1.029464    1.817988
  25 H     1.0000    0     1.008  -10.119542    3.471835    0.908314
  26 N     7.0000    0    14.007    0.085487    1.788762   -0.781284
  27 C     6.0000    0    12.011   -0.711895    4.193827   -1.028659
  28 C     6.0000    0    12.011    2.596787    1.379229   -0.875550
  29 C     6.0000    0    12.011    0.930782    6.255482   -1.374230
  30 C     6.0000    0    12.011    4.387508    3.315064   -1.214586
  31 C     6.0000    0    12.011    3.526974    5.795902   -1.467639
  32 H     1.0000    0     1.008    0.175208    8.177307   -1.565291
  33 H     1.0000    0     1.008    6.412282    2.870892   -1.276802
  34 H     1.0000    0     1.008    4.868687    7.359354   -1.733413
  35 C     6.0000    0    12.011    6.605995   -1.061566    1.160213
  36 H     1.0000    0     1.008    7.394331   -1.436858   -0.663573
  37 H     1.0000    0     1.008    7.429013    0.623424    1.916492
  38 H     1.0000    0     1.008    6.994947   -2.614652    2.395184
  39 H     1.0000    0     1.008    3.064020   -2.000312    4.729075
* core charge reduced due to ECP

--------------------------------
INTERNAL COORDINATES (ANGSTROEM)
--------------------------------
 C      0   0   0     0.000000000000     0.00000000     0.00000000
 C      1   0   0     1.550004002592     0.00000000     0.00000000
 H      2   1   0     1.070000000742   109.47122041     0.00000000
 H      2   1   3     1.070000001411   109.47122082   119.99999987
 C      1   2   3     1.512715564903   109.63385423   181.59828446
 O      5   1   2     1.228164166663   121.98987931    97.78340827
 O      4   2   1     3.935815671132   126.07607602   308.31171667
 O      5   1   2     1.312058899389   116.07896751   279.19713716
 H      8   5   1     0.976282736049   109.23844583   176.44524492
 C      7   4   2     2.754302822431    74.18414032   202.29678354
 C     10   7   4     1.549788244991    73.56302670   305.84384523
 C     11  10   7     1.526368141218   112.10751114   240.73166350
 C     10   7   4     1.524465467317    82.49122226   185.95190983
 H      7   4   2     1.363242837511    54.31322238   156.10239050
 H     11  10   7     1.105090705959   104.33238955   122.83126606
 H     10   7   4     1.104599031083   167.61644616    33.03585838
 H     10   7   4     1.100278966022    63.44683400    68.81187593
 H     13  10   7     1.098180787504   111.75455889     8.38666197
 H     13  10   7     1.100022016860   110.22411484   248.68331414
 C     12  11  10     1.522700575307   111.96162729   196.41298327
 O     20  12  11     1.211530169606   122.76066169   155.50639974
 O     20  12  11     1.314292424720   113.18876455   335.00401645
 Pd    14   7   4     1.917681785337   124.28798460   308.60664421
 H     12  11  10     1.103259382922   110.83214069    76.38199586
 H     12  11  10     1.102601146472   111.48082582   318.22407788
 H     13  10   7     1.099942652775   111.35006749   129.78322334
 N     23  14   7     1.979999997291    70.69419978    19.95723485
 C      7   4   2     1.331675442521    57.60124241     4.80799643
 C     27  23  14     1.347401091842   121.39472674   170.93732069
 C     28   7   4     1.406877998293   124.55339045   217.69798809
 C     29  27  23     1.406962949771   123.49687321   179.99328395
 C     31  29  27     1.395976590908   118.50535506     0.00000000
 H     30  28   7     1.097428436221   120.36345490     1.84925483
 H     31  29  27     1.097436164498   120.36184320   180.00375914
 H     32  31  29     1.099264273610   120.62194048   179.93544317
 C      1   2   3     1.540000006742   109.09931008    63.47963913
 H     36   1   2     1.069999996802   109.47120247   175.11369614
 H     36   1   2     1.070000004787   109.47120231   295.11371003
 H     36   1   2     1.069999992964   109.47123136    55.11370277
 H      2   1   3     1.069999999399   109.47122076   240.00000034

---------------------------
INTERNAL COORDINATES (A.U.)
---------------------------
 C      0   0   0     0.000000000000     0.00000000     0.00000000
 C      1   0   0     2.929083071380     0.00000000     0.00000000
 H      2   1   0     2.022006964698   109.47122041     0.00000000
 H      2   1   3     2.022006965963   109.47122082   119.99999987
 C      1   2   3     2.858618136187   109.63385423   181.59828446
 O      5   1   2     2.320893922488   121.98987931    97.78340827
 O      4   2   1     7.437613732035   126.07607602   308.31171667
 O      5   1   2     2.479431991419   116.07896751   279.19713716
 H      8   5   1     1.844907000408   109.23844583   176.44524492
 C      7   4   2     5.204878024281    74.18414032   202.29678354
 C     10   7   4     2.928675348603    73.56302670   305.84384523
 C     11  10   7     2.884417766445   112.10751114   240.73166350
 C     10   7   4     2.880822233849    82.49122226   185.95190983
 H      7   4   2     2.576155616926    54.31322238   156.10239050
 H     11  10   7     2.088318787405   104.33238955   122.83126606
 H     10   7   4     2.087389656541   167.61644616    33.03585838
 H     10   7   4     2.079225916695    63.44683400    68.81187593
 H     13  10   7     2.075260933917   111.75455889     8.38666197
 H     13  10   7     2.078740353148   110.22411484   248.68331414
 C     12  11  10     2.877487071294   111.96162729   196.41298327
 O     20  12  11     2.289460223539   122.76066169   155.50639974
 O     20  12  11     2.483652742609   113.18876455   335.00401645
 Pd    14   7   4     3.623893386296   124.28798460   308.60664421
 H     12  11  10     2.084858088402   110.83214069    76.38199586
 H     12  11  10     2.083614201779   111.48082582   318.22407788
 H     13  10   7     2.078590376764   111.35006749   129.78322334
 N     23  14   7     3.741657740045    70.69419978    19.95723485
 C      7   4   2     2.516501885634    57.60124241     4.80799643
 C     27  23  14     2.546219056127   121.39472674   170.93732069
 C     28   7   4     2.658614120612   124.55339045   217.69798809
 C     29  27  23     2.658774655641   123.49687321   179.99328395
 C     31  29  27     2.638013446181   118.50535506     0.00000000
 H     30  28   7     2.073839196034   120.36345490     1.84925483
 H     31  29  27     2.073853800363   120.36184320   180.00375914
 H     32  31  29     2.077308425927   120.62194048   179.93544317
 C      1   2   3     2.910178258980   109.09931008    63.47963913
 H     36   1   2     2.022006957252   109.47120247   175.11369614
 H     36   1   2     2.022006972341   109.47120231   295.11371003
 H     36   1   2     2.022006950000   109.47123136    55.11370277
 H      2   1   3     2.022006962161   109.47122076   240.00000034

---------------------
BASIS SET INFORMATION
---------------------
There are 5 groups of distinct atoms

 Group   1 Type C   : 7s4p1d contracted to 3s2p1d pattern {511/31/1}
 Group   2 Type H   : 4s1p contracted to 2s1p pattern {31/1}
 Group   3 Type O   : 7s4p1d contracted to 3s2p1d pattern {511/31/1}
 Group   4 Type Pd  : 7s6p5d1f contracted to 5s3p2d1f pattern {31111/411/41/1}
 Group   5 Type N   : 7s4p1d contracted to 3s2p1d pattern {511/31/1}

Atom   0C    basis set group =>   1
Atom   1C    basis set group =>   1
Atom   2H    basis set group =>   2
Atom   3H    basis set group =>   2
Atom   4C    basis set group =>   1
Atom   5O    basis set group =>   3
Atom   6O    basis set group =>   3
Atom   7O    basis set group =>   3
Atom   8H    basis set group =>   2
Atom   9C    basis set group =>   1
Atom  10C    basis set group =>   1
Atom  11C    basis set group =>   1
Atom  12C    basis set group =>   1
Atom  13H    basis set group =>   2
Atom  14H    basis set group =>   2
Atom  15H    basis set group =>   2
Atom  16H    basis set group =>   2
Atom  17H    basis set group =>   2
Atom  18H    basis set group =>   2
Atom  19C    basis set group =>   1
Atom  20O    basis set group =>   3
Atom  21O    basis set group =>   3
Atom  22Pd   basis set group =>   4
Atom  23H    basis set group =>   2
Atom  24H    basis set group =>   2
Atom  25H    basis set group =>   2
Atom  26N    basis set group =>   5
Atom  27C    basis set group =>   1
Atom  28C    basis set group =>   1
Atom  29C    basis set group =>   1
Atom  30C    basis set group =>   1
Atom  31C    basis set group =>   1
Atom  32H    basis set group =>   2
Atom  33H    basis set group =>   2
Atom  34H    basis set group =>   2
Atom  35C    basis set group =>   1
Atom  36H    basis set group =>   2
Atom  37H    basis set group =>   2
Atom  38H    basis set group =>   2
Atom  39H    basis set group =>   2
---------------------------------
AUXILIARY/J BASIS SET INFORMATION
---------------------------------
There are 5 groups of distinct atoms

 Group   1 Type C   : 12s5p4d2f1g contracted to 6s4p3d1f1g pattern {711111/2111/211/2/1}
 Group   2 Type H   : 5s2p1d contracted to 3s1p1d pattern {311/2/1}
 Group   3 Type O   : 12s5p4d2f1g contracted to 6s4p3d1f1g pattern {711111/2111/211/2/1}
 Group   4 Type Pd  : 11s5p5d3f3g contracted to 8s5p5d2f3g pattern {41111111/11111/11111/21/111}
 Group   5 Type N   : 12s5p4d2f1g contracted to 6s4p3d1f1g pattern {711111/2111/211/2/1}

Atom   0C    basis set group =>   1
Atom   1C    basis set group =>   1
Atom   2H    basis set group =>   2
Atom   3H    basis set group =>   2
Atom   4C    basis set group =>   1
Atom   5O    basis set group =>   3
Atom   6O    basis set group =>   3
Atom   7O    basis set group =>   3
Atom   8H    basis set group =>   2
Atom   9C    basis set group =>   1
Atom  10C    basis set group =>   1
Atom  11C    basis set group =>   1
Atom  12C    basis set group =>   1
Atom  13H    basis set group =>   2
Atom  14H    basis set group =>   2
Atom  15H    basis set group =>   2
Atom  16H    basis set group =>   2
Atom  17H    basis set group =>   2
Atom  18H    basis set group =>   2
Atom  19C    basis set group =>   1
Atom  20O    basis set group =>   3
Atom  21O    basis set group =>   3
Atom  22Pd   basis set group =>   4
Atom  23H    basis set group =>   2
Atom  24H    basis set group =>   2
Atom  25H    basis set group =>   2
Atom  26N    basis set group =>   5
Atom  27C    basis set group =>   1
Atom  28C    basis set group =>   1
Atom  29C    basis set group =>   1
Atom  30C    basis set group =>   1
Atom  31C    basis set group =>   1
Atom  32H    basis set group =>   2
Atom  33H    basis set group =>   2
Atom  34H    basis set group =>   2
Atom  35C    basis set group =>   1
Atom  36H    basis set group =>   2
Atom  37H    basis set group =>   2
Atom  38H    basis set group =>   2
Atom  39H    basis set group =>   2
-------------------------
ECP PARAMETER INFORMATION
-------------------------

 Group 1, Type Pd ECP Def2-ECP (replacing 28 core electrons, lmax=3)

Atom  22Pd   ECP group =>   1



           ************************************************************
           *        Program running with 64 parallel MPI-processes    *
           *              working on a common directory               *
           ************************************************************
------------------------------------------------------------------------------
                             ORCA STARTUP CALCULATIONS
                           -- RI-GTO INTEGRALS CHOSEN --
------------------------------------------------------------------------------
------------------------------------------------------------------------------
                   ___                                                        
                  /   \      - P O W E R E D   B Y -                         
                 /     \                                                     
                 |  |  |   _    _      __       _____    __    __             
                 |  |  |  | |  | |    /  \     |  _  \  |  |  /  |          
                  \  \/   | |  | |   /    \    | | | |  |  | /  /          
                 / \  \   | |__| |  /  /\  \   | |_| |  |  |/  /          
                |  |  |   |  __  | /  /__\  \  |    /   |      \           
                |  |  |   | |  | | |   __   |  |    \   |  |\   \          
                \     /   | |  | | |  |  |  |  | |\  \  |  | \   \       
                 \___/    |_|  |_| |__|  |__|  |_| \__\ |__|  \__/        
                                                                              
                      - O R C A' S   B I G   F R I E N D -                    
                                      &                                       
                       - I N T E G R A L  F E E D E R -                       
                                                                              
 v1 FN, 2020, v2 2021, v3 2022-2024                                           
------------------------------------------------------------------------------


----------------------
SHARK INTEGRAL PACKAGE
----------------------

Number of atoms                             ...     40
Number of basis functions                   ...    406
Number of shells                            ...    188
Maximum angular momentum                    ...      3
Integral batch strategy                     ... SHARK/LIBINT Hybrid
RI-J (if used) integral strategy            ... SPLIT-RIJ (Revised 2003 algorithm where possible)
Printlevel                                  ...      1
Contraction scheme used                     ... SEGMENTED contraction
Prescreening option                         ... SCHWARTZ
   Thresh                                   ... 2.500e-11
   Tcut                                     ... 2.500e-12
   Tpresel                                  ... 2.500e-12 
Coulomb Range Separation                    ... NOT USED
Exchange Range Separation                   ... NOT USED
Multipole approximations                    ... NOT USED
Finite Nucleus Model                        ... NOT USED
CABS basis                                  ... NOT available
Auxiliary Coulomb fitting basis             ... AVAILABLE
   # of basis functions in Aux-J            ...   1278
   # of shells in Aux-J                     ...    418
   Maximum angular momentum in Aux-J        ...      4
Auxiliary J/K fitting basis                 ... NOT available
Auxiliary Correlation fitting basis         ... NOT available
Auxiliary 'external' fitting basis          ... NOT available

Checking pre-screening integrals            ... done (  0.0 sec) Dimension = 188
   => SHARK Basis and OBASIS are compatible. Storing Pre-screening
Shell pair information
Shell pair cut-off parameter TPreSel        ...   2.5e-12
Total number of shell pairs                 ...     17766
Shell pairs after pre-screening             ...     13792
Total number of primitive shell pairs       ...     63167
Primitive shell pairs kept                  ...     31883
          la=0 lb=0:   4253 shell pairs
          la=1 lb=0:   5025 shell pairs
          la=1 lb=1:   1541 shell pairs
          la=2 lb=0:   1661 shell pairs
          la=2 lb=1:    991 shell pairs
          la=2 lb=2:    161 shell pairs
          la=3 lb=0:     85 shell pairs
          la=3 lb=1:     54 shell pairs
          la=3 lb=2:     20 shell pairs
          la=3 lb=3:      1 shell pairs

Checking whether 4 symmetric matrices of dimension 406 fit in memory
:Max Core in MB      =   2109.00
 MB in use           =     20.51
 MB left             =   2088.49
 MB needed           =      2.52
 Data fit in memory  = YES
Calculating RI/J V-Matrix + Cholesky decomp.... done (  0.9 sec)
Calculating Nuclear repulsion               ... done (  0.0 sec) ENN=   2073.665521689620 Eh

Diagonalization of the overlap matrix:
Smallest eigenvalue                        ... 5.545e-04
Time for diagonalization                   ...    0.037 sec
Threshold for overlap eigenvalues          ... 1.000e-07
Number of eigenvalues below threshold      ... 0
Time for construction of square roots      ...    0.044 sec
Total time needed                          ...    0.088 sec

-------------------
DFT GRID GENERATION
-------------------

General Integration Accuracy     IntAcc      ... 4.388
Radial Grid Type                 RadialGrid  ... OptM3 with GC (2021)
Angular Grid (max. ang.)         AngularGrid ... 4 (Lebedev-302)
Angular grid pruning method      GridPruning ... 4 (adaptive)
Weight generation scheme         WeightScheme... mBecke (2022)
Basis function cutoff            BFCut       ... 1.0000e-11
Integration weight cutoff        WCut        ... 1.0000e-14
Partially contracted basis set               ... off
Rotationally invariant grid construction     ... off
Angular grids for H and He will be reduced by one unit

Total number of grid points                  ...   188767
Total number of batches                      ...     2969
Average number of points per batch           ...       63
Average number of grid points per atom       ...     4719

--------------------
COSX GRID GENERATION
--------------------

GRIDX 1
-------
General Integration Accuracy     IntAcc      ... 3.816
Radial Grid Type                 RadialGrid  ... OptM3 with GC (2021)
Angular Grid (max. ang.)         AngularGrid ... 1 (Lebedev-50)
Angular grid pruning method      GridPruning ... 4 (adaptive)
Weight generation scheme         WeightScheme... mBecke (2022)
Basis function cutoff            BFCut       ... 1.0000e-11
Integration weight cutoff        WCut        ... 1.0000e-14
Partially contracted basis set               ... on
Rotationally invariant grid construction     ... off
Angular grids for H and He will be reduced by one unit

Total number of grid points                  ...    27244
Total number of batches                      ...      233
Average number of points per batch           ...      116
Average number of grid points per atom       ...      681
UseSFitting                                  ... on

GRIDX 2
-------
General Integration Accuracy     IntAcc      ... 4.020
Radial Grid Type                 RadialGrid  ... OptM3 with GC (2021)
Angular Grid (max. ang.)         AngularGrid ... 2 (Lebedev-110)
Angular grid pruning method      GridPruning ... 4 (adaptive)
Weight generation scheme         WeightScheme... mBecke (2022)
Basis function cutoff            BFCut       ... 1.0000e-11
Integration weight cutoff        WCut        ... 1.0000e-14
Partially contracted basis set               ... on
Rotationally invariant grid construction     ... off
Angular grids for H and He will be reduced by one unit

Total number of grid points                  ...    53342
Total number of batches                      ...      439
Average number of points per batch           ...      121
Average number of grid points per atom       ...     1334
UseSFitting                                  ... on

GRIDX 3
-------
General Integration Accuracy     IntAcc      ... 4.338
Radial Grid Type                 RadialGrid  ... OptM3 with GC (2021)
Angular Grid (max. ang.)         AngularGrid ... 3 (Lebedev-194)
Angular grid pruning method      GridPruning ... 4 (adaptive)
Weight generation scheme         WeightScheme... mBecke (2022)
Basis function cutoff            BFCut       ... 1.0000e-11
Integration weight cutoff        WCut        ... 1.0000e-14
Partially contracted basis set               ... on
Rotationally invariant grid construction     ... off
Angular grids for H and He will be reduced by one unit

Total number of grid points                  ...   111167
Total number of batches                      ...      889
Average number of points per batch           ...      125
Average number of grid points per atom       ...     2779
UseSFitting                                  ... on
Grids setup in   3.1 sec
Initializing property integral containers    ... done (  0.1 sec)

SHARK setup successfully completed in   7.0 seconds

Maximum memory used throughout the entire STARTUP-calculation: 53.4 MB


           ************************************************************
           *        Program running with 64 parallel MPI-processes    *
           *              working on a common directory               *
           ************************************************************
-------------------------------------------------------------------------------
                                 ORCA GUESS
                   Start orbitals & Density for SCF / CASSCF
-------------------------------------------------------------------------------

------------
SCF SETTINGS
------------
Hamiltonian:
 Density Functional     Method          .... DFT(GTOs)
  Functional kind                       .... Exchange
  Functional name                       .... Minnesota MN15 hybrid exchange functional
  Functional family                     .... Hybrid MGGA
  Functional refs                              
    [ 0] H. S. Yu, X. He, S. L. Li, and D. G. Truhlar.,  Chem. Sci. 7, 5032-5051 (2016), doi: 10.1039/C6SC00705H
  Fraction of HF Exchange               .... 0.4400
  Functional external parameters        .... 41
    Parameter  0 _CC000     =  7.385224e-02 : CC000               
    Parameter  1 _CC001     = -8.399762e-01 : CC001               
    Parameter  2 _CC002     = -3.082660e+00 : CC002               
    Parameter  3 _CC003     = -1.028813e+00 : CC003               
    Parameter  4 _CC004     = -8.116973e-01 : CC004               
    Parameter  5 _CC005     = -6.340439e-02 : CC005               
    Parameter  6 _CC010     =  2.548055e+00 : CC010               
    Parameter  7 _CC011     = -5.031579e+00 : CC011               
    Parameter  8 _CC012     =  3.170216e-01 : CC012               
    Parameter  9 _CC013     =  2.981868e+00 : CC013               
    Parameter 10 _CC014     = -7.495037e-01 : CC014               
    Parameter 11 _CC020     =  2.318257e-01 : CC020               
    Parameter 12 _CC021     =  1.261961e+00 : CC021               
    Parameter 13 _CC022     =  1.665921e+00 : CC022               
    Parameter 14 _CC023     =  7.483305e+00 : CC023               
    Parameter 15 _CC030     = -2.544246e+00 : CC030               
    Parameter 16 _CC031     =  1.384720e+00 : CC031               
    Parameter 17 _CC032     =  6.902570e+00 : CC032               
    Parameter 18 _CC100     =  1.657399e+00 : CC100               
    Parameter 19 _CC101     =  2.985267e+00 : CC101               
    Parameter 20 _CC102     =  6.893913e+00 : CC102               
    Parameter 21 _CC103     =  2.489814e+00 : CC103               
    Parameter 22 _CC104     =  1.454725e+00 : CC104               
    Parameter 23 _CC110     = -5.054324e+00 : CC110               
    Parameter 24 _CC111     =  2.352733e+00 : CC111               
    Parameter 25 _CC112     =  1.299104e+00 : CC112               
    Parameter 26 _CC113     =  1.203168e+00 : CC113               
    Parameter 27 _CC120     =  1.215959e-01 : CC120               
    Parameter 28 _CC121     =  8.048348e+00 : CC121               
    Parameter 29 _CC122     =  2.191204e+01 : CC122               
    Parameter 30 _CC200     = -1.852336e+00 : CC200               
    Parameter 31 _CC201     = -3.472274e+00 : CC201               
    Parameter 32 _CC202     = -1.564591e+00 : CC202               
    Parameter 33 _CC203     = -2.295788e+00 : CC203               
    Parameter 34 _CC210     =  3.666483e+00 : CC210               
    Parameter 35 _CC211     =  1.087075e+01 : CC211               
    Parameter 36 _CC212     =  9.696691e+00 : CC212               
    Parameter 37 _CC300     =  6.307011e-01 : CC300               
    Parameter 38 _CC301     = -5.058252e-01 : CC301               
    Parameter 39 _CC302     = -3.562355e+00 : CC302               
    Parameter 40 _ax        =  4.400000e-01 : exact exchange      
  Functional kind                       .... Correlation
  Functional name                       .... Minnesota MN15 correlation functional
  Functional family                     .... MGGA
  Functional refs                              
    [ 0] H. S. Yu, X. He, S. L. Li, and D. G. Truhlar.,  Chem. Sci. 7, 5032-5051 (2016), doi: 10.1039/C6SC00705H
  Functional external parameters        .... 24
    Parameter  0 _a0        =  1.093251e+00 : a0                  
    Parameter  1 _a1        = -2.697350e-01 : a1                  
    Parameter  2 _a2        =  6.368998e+00 : a2                  
    Parameter  3 _a3        = -2.453371e-01 : a3                  
    Parameter  4 _a4        = -1.587103e+00 : a4                  
    Parameter  5 _a5        =  1.246989e-01 : a5                  
    Parameter  6 _a6        =  1.605820e+00 : a6                  
    Parameter  7 _a7        =  4.662060e-01 : a7                  
    Parameter  8 _a8        =  3.484979e+00 : a8                  
    Parameter  9 _a9        =  0.000000e+00 : a9                  
    Parameter 10 _a10       =  0.000000e+00 : a10                 
    Parameter 11 _a11       =  0.000000e+00 : a11                 
    Parameter 12 _b0        =  1.427425e+00 : b0                  
    Parameter 13 _b1        = -3.578837e+00 : b1                  
    Parameter 14 _b2        =  7.398728e+00 : b2                  
    Parameter 15 _b3        =  3.927811e+00 : b3                  
    Parameter 16 _b4        =  2.789805e+00 : b4                  
    Parameter 17 _b5        =  4.988320e+00 : b5                  
    Parameter 18 _b6        =  3.079464e+00 : b6                  
    Parameter 19 _b7        =  3.521637e+00 : b7                  
    Parameter 20 _b8        =  4.769672e+00 : b8                  
    Parameter 21 _b9        =  0.000000e+00 : b9                  
    Parameter 22 _b10       =  0.000000e+00 : b10                 
    Parameter 23 _b11       =  0.000000e+00 : b11                 
 Gradients option       PostSCFGGA      .... off
 Hybrid DFT is turned on
   Fraction HF Exchange ScalHFX         ....  0.440000
   Scaling of DF-GGA-X  ScalDFX         ....  1.000000
   Scaling of DF-GGA-C  ScalDFC         ....  1.000000
   Scaling of DF-LDA-C  ScalLDAC        ....  1.000000
   Perturbative correction              ....  0.000000
 RI-approximation to the Coulomb term is turned on
   Number of AuxJ basis functions       .... 1278
   RIJ-COSX (HFX calculated with COS-X)).... on


General Settings:
 Integral files         IntName         .... /users/s1155246976/scratch/L2_ts1_opt_pka_HA/L2_ts1_opt_pka_HA
 Hartree-Fock type      HFTyp           .... RHF
 Total Charge           Charge          ....    0
 Multiplicity           Mult            ....    1
 Number of Electrons    NEL             ....  168
 Basis Dimension        Dim             ....  406
 Nuclear Repulsion      ENuc            ....   2073.6655216896 Eh

Convergence Acceleration:
 AO-DIIS                CNVDIIS         .... on
   Start iteration      DIISMaxIt       ....    12
   Startup error        DIISStart       ....  0.200000
   # of expansion vecs  DIISMaxEq       ....     5
   Bias factor          DIISBfac        ....   1.050
   Max. coefficient     DIISMaxC        ....  10.000
 MO-DIIS                CNVKDIIS        .... off
 Trust-Rad. Augm. Hess. CNVTRAH         .... auto
   Auto Start mean grad. ratio tolernc. ....  1.125000
   Auto Start start iteration           ....    50
   Auto Start num. interpolation iter.  ....    10
   Max. Number of Micro iterations      ....    24
   Max. Number of Macro iterations      .... Maxiter - #DIIS iter
   Number of Davidson start vectors     ....     2
   Converg. threshold    (grad. norm)   ....   1.000e-05
   Grad. Scal. Fac. for Micro threshold ....   0.100
   Minimum threshold for Micro iter.    ....   1.000e-02
   NR start threshold (gradient norm)   ....   1.000e-04
   Initial trust radius                 ....   0.400
   Minimum AH scaling param. (alpha)    ....   1.000
   Maximum AH scaling param. (alpha)    .... 1000.000
   Quad. conv. algorithm                .... NR
   White noise on init. David. guess    .... on
   Maximum white noise                  ....   0.010
   Pseudo random numbers                .... off
   Inactive MOs                         .... canonical
   Orbital update algorithm             .... Taylor
   Preconditioner                       .... Diag
   Full preconditioner red. dimension   ....   250
 SOSCF                 CNVSOSCF           .... on
   Start iteration     SOSCFMaxIt         ....   150
   Startup grad/error  SOSCFStart         ....  0.003300
   Hessian update      SOSCFHessUp        .... L-BFGS
   Autom. constraints  SOSCFAutoConstrain .... off
 Level Shifting         CNVShift        .... on
   Level shift para.    LevelShift      ....    0.2500
   Turn off err/grad.   ShiftErr        ....    0.0010
 Zerner damping         CNVZerner       .... off
 Static damping         CNVDamp         .... on
   Fraction old density DampFac         ....    0.7000
   Max. Damping (<1)    DampMax         ....    0.9800
   Min. Damping (>=0)   DampMin         ....    0.0000
   Turn off err/grad.   DampErr         ....    0.1000

SCF Procedure:
 Maximum # iterations   MaxIter         ....   125
 SCF integral mode      SCFMode         .... Direct
   Integral package                     .... SHARK and LIBINT hybrid scheme
 Reset frequency        DirectResetFreq ....    20
 Integral Threshold     Thresh          ....  2.500e-11 Eh
 Primitive CutOff       TCut            ....  2.500e-12 Eh

Convergence Tolerance:
 Convergence Check Mode ConvCheckMode   .... Total+1el-Energy
 Convergence forced     ConvForced      .... 0
 Energy Change          TolE            ....  1.000e-08 Eh
 1-El. energy change                    ....  1.000e-05 Eh
 Orbital Gradient       TolG            ....  1.000e-05
 Orbital Rotation angle TolX            ....  1.000e-05
 DIIS Error             TolErr          ....  5.000e-07

------------------------------
INITIAL GUESS: MODEL POTENTIAL
------------------------------
Loading Hartree-Fock densities                     ... done
Atomic calculation to generate a density for atom 22 (Pd with ECP)
  Multiplicity assumed   :    3
  Atomic configuration   : 1s2 2s2 2p6 3s2 3p6 4s2 3d10 4p6 5s2 4d8 
  Number of open shells  : 1
  Command: /project/xlzhang/shared/bin/orca_6_1_0/orca /users/s1155246976/scratch/L2_ts1_opt_pka_HA/L2_ts1_opt_pka_HA_atom46.inp "" > /users/s1155246976/scratch/L2_ts1_opt_pka_HA/L2_ts1_opt_pka_HA_atom46.out
Returned from the atomic calculation with res=0
Calculating cut-offs                               ... done
Initializing the effective Hamiltonian             ... done
Setting up the integral package (SHARK)            ... done
Starting the Coulomb interaction                   ... done (   0.8 sec)
Making the grid                                    ... done (   0.3 sec)
Mapping shells                                     ... done
Starting the XC term evaluation                    ... done (   0.1 sec)
  promolecular density results
     # of electrons  =    195.990052785
     EX              =   -263.189141749
     EC              =     -7.526448312
     EX+EC           =   -270.715590061
Transforming the Hamiltonian                       ... done (   0.1 sec)
Diagonalizing the Hamiltonian                      ... done (   0.0 sec)
Back transforming the eigenvectors                 ... done (   0.0 sec)
Now organizing SCF variables                       ... done
                      ------------------
                      INITIAL GUESS DONE (   7.7 sec)
                      ------------------
             **** ENERGY FILE WAS UPDATED (/users/s1155246976/scratch/L2_ts1_opt_pka_HA/L2_ts1_opt_pka_HA.en.tmp) ****
Finished Guess after   9.8 sec
Maximum memory used throughout the entire GUESS-calculation: 26.1 MB


           ************************************************************
           *        Program running with 64 parallel MPI-processes    *
           *              working on a common directory               *
           ************************************************************

-------------------------------------------------------------------------------------------
                                      ORCA LEAN-SCF
                              memory conserving SCF solver
-------------------------------------------------------------------------------------------

----------------------------------------D-I-I-S--------------------------------------------
Iteration    Energy (Eh)           Delta-E    RMSDP     MaxDP     DIISErr   Damp  Time(sec)
-------------------------------------------------------------------------------------------
               ***  Starting incremental Fock matrix formation  ***
    1    -1100.9473902567115147     0.00e+00  1.99e-02  1.59e-01  4.70e-01  0.700   3.6
    2    -1101.1957906347761309    -2.48e-01  1.38e-02  1.22e-01  3.20e-01  0.700   2.1
    3    -1101.3021235867140604    -1.06e-01  6.98e-03  5.91e-02  2.17e-01  0.700   1.0
                               ***Turning on AO-DIIS***
    4    -1101.3640366663044006    -6.19e-02  3.18e-03  2.20e-02  1.49e-01  0.700   0.9
    5    -1101.4071911000200998    -4.32e-02  1.99e-03  1.28e-02  1.04e-01  0.700   2.6
    6    -1101.4371135539136048    -2.99e-02  1.39e-03  9.24e-03  7.30e-02  0.700   1.3
    7    -1101.4580562136079607    -2.09e-02  3.35e-03  2.21e-02  5.12e-02  0.000   1.2
                              *** Initializing SOSCF ***
---------------------------------------S-O-S-C-F--------------------------------------
Iteration    Energy (Eh)           Delta-E    RMSDP     MaxDP     MaxGrad    Time(sec)
--------------------------------------------------------------------------------------
    8    -1101.5070061020373942    -4.89e-02  2.38e-04  1.21e-03  5.73e-04     1.3
               *** Restarting incremental Fock matrix formation ***
    9    -1101.5069037485977788     1.02e-04  2.58e-04  1.70e-03  3.56e-04     2.6
   10    -1101.5069109035966903    -7.15e-06  1.89e-04  1.48e-03  1.13e-04     1.0
   11    -1101.5069115257210797    -6.22e-07  7.97e-05  5.68e-04  9.13e-05     1.2
   12    -1101.5069124541105339    -9.28e-07  5.44e-05  4.23e-04  5.19e-05     1.0
   13    -1101.5069125097884353    -5.57e-08  2.95e-05  1.83e-04  4.56e-05     1.0
   14    -1101.5069126600606069    -1.50e-07  1.66e-05  9.09e-05  2.11e-05     1.4
   15    -1101.5069126465491536     1.35e-08  9.87e-06  3.94e-05  1.69e-05     2.4
   16    -1101.5069126827861510    -3.62e-08  2.61e-06  1.23e-05  2.15e-06     1.1
                  *** Gradient check signals convergence ***

               *****************************************************
               *                     SUCCESS                       *
               *           SCF CONVERGED AFTER  16 CYCLES          *
               *****************************************************

Recomputing exchange energy using gridx3       ... done (    0.869 sec)
Old exchange energy                            :    -60.943078959 Eh
New exchange energy                            :    -60.943016142 Eh
Exchange energy change after final integration :      0.000062817 Eh
Total energy after final integration           :  -1101.506849868 Eh
             **** ENERGY FILE WAS UPDATED (/users/s1155246976/scratch/L2_ts1_opt_pka_HA/L2_ts1_opt_pka_HA.en.tmp) ****

----------------
TOTAL SCF ENERGY
----------------

Total Energy       :      -1101.50684986757892 Eh          -29973.52521 eV

Components:
Nuclear Repulsion  :       2073.66552168962016 Eh           56427.30755 eV
Electronic Energy  :      -3175.17243437404613 Eh          -86400.83447 eV
One Electron Energy:      -5678.50213481306218 Eh         -154519.89873 eV
Two Electron Energy:       2503.32970043901605 Eh           68119.06426 eV

Virial components:
Potential Energy   :      -2112.07470400565398 Eh          -57472.47454 eV
Kinetic Energy     :       1010.56785413807484 Eh           27498.94933 eV
Virial Ratio       :          2.08998801550745

DFT components:
N(Alpha)           :       84.000020956953 electrons
N(Beta)            :       84.000020956953 electrons
N(Total)           :      168.000041913906 electrons
E(X)               :      -78.102494353567 Eh       
E(C)               :       -4.958242796923 Eh       
E(XC)              :      -83.060737150490 Eh       

---------------
SCF CONVERGENCE
---------------

  Last Energy change         ...    3.6237e-08  Tolerance :   1.0000e-08
  Last MAX-Density change    ...    1.2329e-05  Tolerance :   1.0000e-07
  Last RMS-Density change    ...    2.6093e-06  Tolerance :   5.0000e-09
  Last DIIS Error            ...    5.7331e-04  Tolerance :   5.0000e-07
  Last Orbital Gradient      ...    2.1534e-06  Tolerance :   1.0000e-05
  Last Orbital Rotation      ...    8.1235e-06  Tolerance :   1.0000e-05


----------------
ORBITAL ENERGIES
----------------

  NO   OCC          E(Eh)            E(eV) 
   0   2.0000     -18.922023      -514.8944 
   1   2.0000     -18.872957      -513.5593 
   2   2.0000     -18.799473      -511.5597 
   3   2.0000     -18.790479      -511.3149 
   4   2.0000     -18.740992      -509.9683 
   5   2.0000     -14.161518      -385.3545 
   6   2.0000     -10.245501      -278.7943 
   7   2.0000     -10.167560      -276.6734 
   8   2.0000     -10.137318      -275.8504 
   9   2.0000     -10.129657      -275.6420 
  10   2.0000     -10.128161      -275.6013 
  11   2.0000     -10.099817      -274.8300 
  12   2.0000     -10.083733      -274.3923 
  13   2.0000     -10.082669      -274.3634 
  14   2.0000     -10.081523      -274.3322 
  15   2.0000     -10.080710      -274.3101 
  16   2.0000     -10.071108      -274.0488 
  17   2.0000     -10.054242      -273.5898 
  18   2.0000     -10.039537      -273.1897 
  19   2.0000     -10.030578      -272.9459 
  20   2.0000      -3.441790       -93.6559 
  21   2.0000      -2.180039       -59.3219 
  22   2.0000      -2.172184       -59.1081 
  23   2.0000      -2.138130       -58.1815 
  24   2.0000      -1.205090       -32.7922 
  25   2.0000      -1.106605       -30.1122 
  26   2.0000      -1.069803       -29.1108 
  27   2.0000      -1.055955       -28.7340 
  28   2.0000      -0.991529       -26.9809 
  29   2.0000      -0.967073       -26.3154 
  30   2.0000      -0.902432       -24.5564 
  31   2.0000      -0.869831       -23.6693 
  32   2.0000      -0.838887       -22.8273 
  33   2.0000      -0.796283       -21.6680 
  34   2.0000      -0.773459       -21.0469 
  35   2.0000      -0.759118       -20.6566 
  36   2.0000      -0.751259       -20.4428 
  37   2.0000      -0.716534       -19.4979 
  38   2.0000      -0.689395       -18.7594 
  39   2.0000      -0.681875       -18.5548 
  40   2.0000      -0.654604       -17.8127 
  41   2.0000      -0.611712       -16.6455 
  42   2.0000      -0.600722       -16.3465 
  43   2.0000      -0.590004       -16.0548 
  44   2.0000      -0.583545       -15.8791 
  45   2.0000      -0.574911       -15.6441 
  46   2.0000      -0.558965       -15.2102 
  47   2.0000      -0.555909       -15.1271 
  48   2.0000      -0.540099       -14.6969 
  49   2.0000      -0.533396       -14.5144 
  50   2.0000      -0.526037       -14.3142 
  51   2.0000      -0.515458       -14.0263 
  52   2.0000      -0.501822       -13.6553 
  53   2.0000      -0.494801       -13.4642 
  54   2.0000      -0.487405       -13.2630 
  55   2.0000      -0.477348       -12.9893 
  56   2.0000      -0.470354       -12.7990 
  57   2.0000      -0.465139       -12.6571 
  58   2.0000      -0.460710       -12.5365 
  59   2.0000      -0.458722       -12.4825 
  60   2.0000      -0.452718       -12.3191 
  61   2.0000      -0.448404       -12.2017 
  62   2.0000      -0.444488       -12.0951 
  63   2.0000      -0.435683       -11.8555 
  64   2.0000      -0.428178       -11.6513 
  65   2.0000      -0.424024       -11.5383 
  66   2.0000      -0.419558       -11.4168 
  67   2.0000      -0.408562       -11.1175 
  68   2.0000      -0.403144       -10.9701 
  69   2.0000      -0.391899       -10.6641 
  70   2.0000      -0.383948       -10.4478 
  71   2.0000      -0.376574       -10.2471 
  72   2.0000      -0.371923       -10.1205 
  73   2.0000      -0.366324        -9.9682 
[...]
 76:   1253.20   0.011262   56.91  0.002804  ( 0.011975 -0.051074  0.007240)
 77:   1290.79   0.002474   12.50  0.000598  (-0.023578  0.000459  0.006482)
 78:   1332.88   0.033082  167.18  0.007745  (-0.078126 -0.027635  0.029631)
 79:   1336.44   0.011331   57.26  0.002646  (-0.032750 -0.036330  0.015921)
 80:   1341.90   0.001797    9.08  0.000418  (-0.017964  0.001649  0.009613)
 81:   1356.08   0.001096    5.54  0.000252  ( 0.001083 -0.004692 -0.015133)
 82:   1370.66   0.003737   18.88  0.000851  (-0.019158 -0.006713  0.020944)
 83:   1373.86   0.025723  129.99  0.005843  ( 0.070342  0.007563 -0.028939)
 84:   1384.98   0.001942    9.81  0.000438  ( 0.012166 -0.012418  0.011630)
 85:   1401.14   0.002170   10.97  0.000483  ( 0.021172  0.005339 -0.002546)
 86:   1406.42   0.000366    1.85  0.000081  ( 0.006250 -0.003011  0.005751)
 87:   1423.67   0.001654    8.36  0.000362  (-0.000248  0.018131  0.005802)
 88:   1425.40   0.001440    7.28  0.000315  ( 0.000374  0.017746  0.000530)
 89:   1429.20   0.000927    4.68  0.000202  ( 0.008615 -0.010763 -0.003502)
 90:   1434.52   0.001921    9.71  0.000418  (-0.016598 -0.011802  0.001734)
 91:   1435.96   0.002416   12.21  0.000525  (-0.018463  0.006719  0.011792)
 92:   1455.20   0.002085   10.54  0.000447  (-0.009428  0.011746 -0.014840)
 93:   1468.21   0.000349    1.76  0.000074  ( 0.006748  0.005354 -0.000151)
 94:   1470.31   0.014176   71.64  0.003009  ( 0.023061  0.047887  0.013552)
 95:   1494.27   0.002375   12.00  0.000496  (-0.019722  0.006893 -0.007714)
 96:   1550.72   0.030772  155.51  0.006192  (-0.069973  0.025390 -0.025527)
 97:   1672.30   0.025112  126.91  0.004686  ( 0.049824 -0.041303  0.022310)
 98:   1703.68   0.026431  133.57  0.004841  ( 0.056169  0.040676 -0.005652)
 99:   1764.87   0.045218  228.51  0.007995  ( 0.043940 -0.033362  0.070368)
100:   1883.55   0.133082  672.54  0.022049  (-0.069078 -0.127716  0.031075)
101:   3045.19   0.002136   10.79  0.000219  ( 0.006314 -0.008931 -0.009961)
102:   3051.55   0.004269   21.57  0.000437  ( 0.000248  0.001384  0.020846)
103:   3065.92   0.003470   17.54  0.000353  (-0.007744  0.000425 -0.017119)
104:   3075.88   0.003590   18.14  0.000364  (-0.018780 -0.002698  0.002053)
105:   3076.33   0.001664    8.41  0.000169  ( 0.004586 -0.002742 -0.011844)
106:   3077.23   0.002589   13.08  0.000263  ( 0.013974  0.001033  0.008136)
107:   3107.84   0.003484   17.60  0.000350  ( 0.016243  0.009269  0.000233)
108:   3132.42   0.003214   16.24  0.000320  ( 0.009212  0.002214 -0.015178)
109:   3143.82   0.006683   33.77  0.000663  ( 0.022967 -0.007772 -0.008687)
110:   3174.76   0.001409    7.12  0.000138  (-0.011568 -0.000838 -0.001982)
111:   3176.27   0.002467   12.47  0.000242  ( 0.007938  0.011590  0.006710)
112:   3181.36   0.002969   15.01  0.000291  (-0.005252 -0.016222 -0.000739)
113:   3186.01   0.001182    5.97  0.000116  ( 0.000176 -0.003905  0.010025)
114:   3197.29   0.000878    4.44  0.000086  ( 0.002347 -0.008945 -0.000473)
115:   3244.29   0.000997    5.04  0.000096  (-0.005678 -0.007872  0.001312)
116:   3276.24   0.000016    0.08  0.000001  ( 0.000879  0.000837 -0.000113)
117:   3281.49   0.000050    0.25  0.000005  (-0.002085  0.000389 -0.000541)
118:   3559.66   0.049741  251.37  0.004361  ( 0.056083  0.033324  0.010238)
119:   3648.25   0.049755  251.44  0.004256  ( 0.043765  0.046045 -0.014846)

* The epsilon (eps) is given for a Dirac delta lineshape.
** The dipole moment derivative (T) already includes vibrational overlap.

The first frequency considered to be a vibration is 6
The total number of vibrations considered is 114


--------------------------
THERMOCHEMISTRY AT 298.15K
--------------------------

Temperature         ...   298.15 K
Pressure            ...     1.00 atm
Total Mass          ...   387.71 AMU
Quasi RRHO          ...     True
Cut-Off Frequency   ...     1.00 cm^-1

Throughout the following assumptions are being made:
  (1) The electronic state is orbitally nondegenerate
  (2) There are no thermally accessible electronically excited states
  (3) Hindered rotations indicated by low frequency modes are not
      treated as such but are treated as vibrations and this may
      cause some error
  (4) All equations used are the standard statistical mechanics
      equations for an ideal gas
  (5) All vibrations are strictly harmonic

freq.      32.22  E(vib)   ...       0.55 
freq.      51.17  E(vib)   ...       0.52 
freq.      57.63  E(vib)   ...       0.51 
freq.      79.46  E(vib)   ...       0.49 
freq.      91.47  E(vib)   ...       0.47 
freq.     108.73  E(vib)   ...       0.45 
freq.     126.45  E(vib)   ...       0.43 
freq.     132.00  E(vib)   ...       0.42 
freq.     150.97  E(vib)   ...       0.40 
freq.     167.70  E(vib)   ...       0.38 
freq.     169.95  E(vib)   ...       0.38 
freq.     196.72  E(vib)   ...       0.36 
freq.     207.41  E(vib)   ...       0.34 
freq.     225.90  E(vib)   ...       0.33 
freq.     234.79  E(vib)   ...       0.32 
freq.     246.90  E(vib)   ...       0.31 
freq.     274.42  E(vib)   ...       0.28 
freq.     275.68  E(vib)   ...       0.28 
freq.     286.12  E(vib)   ...       0.27 
freq.     290.44  E(vib)   ...       0.27 
freq.     300.27  E(vib)   ...       0.26 
freq.     316.24  E(vib)   ...       0.25 
freq.     320.10  E(vib)   ...       0.25 
freq.     346.11  E(vib)   ...       0.23 
freq.     378.66  E(vib)   ...       0.21 
freq.     387.34  E(vib)   ...       0.20 
freq.     402.58  E(vib)   ...       0.19 
freq.     466.25  E(vib)   ...       0.16 
freq.     481.02  E(vib)   ...       0.15 
freq.     501.66  E(vib)   ...       0.14 
freq.     502.72  E(vib)   ...       0.14 
freq.     532.40  E(vib)   ...       0.13 
freq.     563.99  E(vib)   ...       0.11 
freq.     579.69  E(vib)   ...       0.11 
freq.     594.55  E(vib)   ...       0.10 
freq.     599.38  E(vib)   ...       0.10 
freq.     634.63  E(vib)   ...       0.09 
freq.     643.09  E(vib)   ...       0.09 
freq.     693.23  E(vib)   ...       0.07 
freq.     718.81  E(vib)   ...       0.07 
freq.     741.18  E(vib)   ...       0.06 
freq.     763.88  E(vib)   ...       0.06 
freq.     772.03  E(vib)   ...       0.05 
freq.     777.00  E(vib)   ...       0.05 
freq.     833.44  E(vib)   ...       0.04 
freq.     838.48  E(vib)   ...       0.04 
freq.     901.06  E(vib)   ...       0.03 
freq.     913.96  E(vib)   ...       0.03 
freq.     915.22  E(vib)   ...       0.03 
freq.     931.86  E(vib)   ...       0.03 
freq.     943.13  E(vib)   ...       0.03 
freq.     959.90  E(vib)   ...       0.03 
freq.     982.19  E(vib)   ...       0.02 
freq.     992.34  E(vib)   ...       0.02 
freq.     996.44  E(vib)   ...       0.02 
freq.    1003.07  E(vib)   ...       0.02 
freq.    1033.10  E(vib)   ...       0.02 
freq.    1035.59  E(vib)   ...       0.02 
freq.    1084.31  E(vib)   ...       0.02 
freq.    1096.42  E(vib)   ...       0.02 
freq.    1101.75  E(vib)   ...       0.02 
freq.    1131.43  E(vib)   ...       0.01 
freq.    1133.69  E(vib)   ...       0.01 
freq.    1150.87  E(vib)   ...       0.01 
freq.    1186.92  E(vib)   ...       0.01 
freq.    1194.87  E(vib)   ...       0.01 
freq.    1199.99  E(vib)   ...       0.01 
freq.    1229.40  E(vib)   ...       0.01 
freq.    1235.85  E(vib)   ...       0.01 
freq.    1248.60  E(vib)   ...       0.01 
freq.    1253.20  E(vib)   ...       0.01 
freq.    1290.79  E(vib)   ...       0.01 
freq.    1332.88  E(vib)   ...       0.01 
freq.    1336.44  E(vib)   ...       0.01 
freq.    1341.90  E(vib)   ...       0.01 
freq.    1356.08  E(vib)   ...       0.01 
freq.    1370.66  E(vib)   ...       0.01 
freq.    1373.86  E(vib)   ...       0.01 
freq.    1384.98  E(vib)   ...       0.00 
freq.    1401.14  E(vib)   ...       0.00 
freq.    1406.42  E(vib)   ...       0.00 
freq.    1423.67  E(vib)   ...       0.00 
freq.    1425.40  E(vib)   ...       0.00 
freq.    1429.20  E(vib)   ...       0.00 
freq.    1434.52  E(vib)   ...       0.00 
freq.    1435.96  E(vib)   ...       0.00 
freq.    1455.20  E(vib)   ...       0.00 
freq.    1468.21  E(vib)   ...       0.00 
freq.    1470.31  E(vib)   ...       0.00 
freq.    1494.27  E(vib)   ...       0.00 
freq.    1550.72  E(vib)   ...       0.00 
freq.    1672.30  E(vib)   ...       0.00 
freq.    1703.68  E(vib)   ...       0.00 
freq.    1764.87  E(vib)   ...       0.00 
freq.    1883.55  E(vib)   ...       0.00 
freq.    3045.19  E(vib)   ...       0.00 
freq.    3051.55  E(vib)   ...       0.00 
freq.    3065.92  E(vib)   ...       0.00 
freq.    3075.88  E(vib)   ...       0.00 
freq.    3076.33  E(vib)   ...       0.00 
freq.    3077.23  E(vib)   ...       0.00 
freq.    3107.84  E(vib)   ...       0.00 
freq.    3132.42  E(vib)   ...       0.00 
freq.    3143.82  E(vib)   ...       0.00 
freq.    3174.76  E(vib)   ...       0.00 
freq.    3176.27  E(vib)   ...       0.00 
freq.    3181.36  E(vib)   ...       0.00 
freq.    3186.01  E(vib)   ...       0.00 
freq.    3197.29  E(vib)   ...       0.00 
freq.    3244.29  E(vib)   ...       0.00 
freq.    3276.24  E(vib)   ...       0.00 
freq.    3281.49  E(vib)   ...       0.00 
freq.    3559.66  E(vib)   ...       0.00 
freq.    3648.25  E(vib)   ...       0.00 

------------
INNER ENERGY
------------

The inner energy is: U= E(el) + E(ZPE) + E(vib) + E(rot) + E(trans)
    E(el)   - is the total energy from the electronic structure calculation
              = E(kin-el) + E(nuc-el) + E(el-el) + E(nuc-nuc)
    E(ZPE)  - the the zero temperature vibrational energy from the frequency calculation
    E(vib)  - the the finite temperature correction to E(ZPE) due to population
              of excited vibrational states
    E(rot)  - is the rotational thermal energy
    E(trans)- is the translational thermal energy

Summary of contributions to the inner energy U:
Electronic energy                ...  -1101.59892806 Eh
Zero point energy                ...      0.32090009 Eh     201.37 kcal/mol
Thermal vibrational correction   ...      0.01866326 Eh      11.71 kcal/mol
Thermal rotational correction    ...      0.00141627 Eh       0.89 kcal/mol
Thermal translational correction ...      0.00141627 Eh       0.89 kcal/mol
-----------------------------------------------------------------------
Total thermal energy                  -1101.25653217 Eh


Summary of corrections to the electronic energy:
(perhaps to be used in another calculation)
Total thermal correction                  0.02149580 Eh      13.49 kcal/mol
Non-thermal (ZPE) correction              0.32090009 Eh     201.37 kcal/mol
-----------------------------------------------------------------------
Total correction                          0.34239588 Eh     214.86 kcal/mol


--------
ENTHALPY
--------

The enthalpy is H = U + kB*T
                kB is Boltzmann's constant
Total thermal energy              ...  -1101.25653217 Eh 
Thermal Enthalpy correction       ...      0.00094421 Eh       0.59 kcal/mol
-----------------------------------------------------------------------
Total Enthalpy                    ...  -1101.25558796 Eh


Note: Only C1 symmetry has been detected, increase convergence thresholds 
      if your molecule has a higher symmetry. Symmetry factor of 1.0 is   
      used for the rotational entropy correction. 
 

Note: Rotational entropy computed according to Herzberg 
Infrared and Raman Spectra, Chapter V,1, Van Nostrand Reinhold, 1945 
Point Group:  C1, Symmetry Number:   1  
Rotational constants in cm-1:     0.013348     0.008919     0.006127 

Vibrational entropy computed according to the QRRHO of S. Grimme
Chem.Eur.J. 2012 18 9955 using a reference frequency of 100.0 cm-1


-------
ENTROPY
-------

The entropy contributions are T*S = T*(S(el)+S(vib)+S(rot)+S(trans))
     S(el)   - electronic entropy
     S(vib)  - vibrational entropy
     S(rot)  - rotational entropy
     S(trans)- translational entropy
The entropies will be listed as multiplied by the temperature to get
units of energy

Electronic entropy                ...      0.00000000 Eh      0.00 kcal/mol
Vibrational entropy               ...      0.03247289 Eh     20.38 kcal/mol
Rotational entropy                ...      0.01618191 Eh     10.15 kcal/mol
Translational entropy             ...      0.02079041 Eh     13.05 kcal/mol
-----------------------------------------------------------------------
Final entropy term                ...      0.06944521 Eh     43.58 kcal/mol

In case the symmetry of your molecule has not been determined correctly
or in case you have a reason to use a different symmetry number we print 
out the resulting rotational entropy values for sn=1,12:

 non-linear molecules -----------------------------------
|  sn= 1 | S(rot)=       0.01618191 Eh     10.15 kcal/mol|
|  sn= 2 | S(rot)=       0.01552746 Eh      9.74 kcal/mol|
|  sn= 3 | S(rot)=       0.01514463 Eh      9.50 kcal/mol|
|  sn= 4 | S(rot)=       0.01487300 Eh      9.33 kcal/mol|
|  sn= 5 | S(rot)=       0.01466231 Eh      9.20 kcal/mol|
|  sn= 6 | S(rot)=       0.01449017 Eh      9.09 kcal/mol|
|  sn= 7 | S(rot)=       0.01434462 Eh      9.00 kcal/mol|
|  sn= 8 | S(rot)=       0.01421855 Eh      8.92 kcal/mol|
|  sn= 9 | S(rot)=       0.01410734 Eh      8.85 kcal/mol|
|  sn=10 | S(rot)=       0.01400786 Eh      8.79 kcal/mol|
|  sn=11 | S(rot)=       0.01391787 Eh      8.73 kcal/mol|
|  sn=12 | S(rot)=       0.01383571 Eh      8.68 kcal/mol|
 linear molecules ---------------------------------------
|  Dinfh | S(rot)=       0.01013638 Eh      6.36 kcal/mol|
|  Cinfv | S(rot)=       0.01079084 Eh      6.77 kcal/mol|
 --------------------------------------------------------


-------------------
GIBBS FREE ENERGY
-------------------

The Gibbs free energy is G = H - T*S

Total enthalpy                    ...  -1101.25558796 Eh 
Total entropy correction          ...     -0.06944521 Eh    -43.58 kcal/mol
-----------------------------------------------------------------------
Final Gibbs free energy         ...  -1101.32503318 Eh

For completeness - the Gibbs free energy minus the electronic energy
G-E(el)                           ...      0.27389488 Eh    171.87 kcal/mol


Maximum memory used throughout the entire PROP-calculation: 243.7 MB

--------------------------------
SUGGESTED CITATIONS FOR THIS RUN
--------------------------------

Below you find a list of papers that are relevant to this ORCA run
We neither can nor want to force you to cite these papers, but we appreciate if you do
You receive ORCA, which is the product of decades of hard work by many enthusiastic individuals, for free
The only thing we kindly ask in return is that you cite our papers,
We deeply appreciate it, if you show your appreciation for ORCA by not just citing the generic ORCA reference.

Please note that relegating all ORCA citations to the supporting information does *not* help us.
SI sections are not indexed - citations you put there will not count into any citation statistics
But we need these citations in order to attract the funding resources that allow us to do what we are doing

Therefore, if you are a happy ORCA user, please consider citing a few of the papers listed below in the main body of your paper

In addition to the list printed below, the program has created the file /users/s1155246976/scratch/L2_ts1_opt_pka_HA/L2_ts1_opt_pka_HA.bibtex that contains the list in bibtex format
You can import this file easily into all common literature databanks and citation aid programs


List of essential papers. We consider these as the minimum necessary citations

  1. Neese, F.
     Software update: the ORCA program system, version 6.0
     WIRES Comput. Molec. Sci. 2025 15(1), e70019
     doi.org/10.1002/wcms.7019

List of papers to cite with high priority. The work reported in these papers was absolutely
necessary for this run to complete.
Our perspective: the developers of density functionals and basis sets usually get cited in chemistry papers
Good! But without the algorithms to do something with them, the functionals or basis sets would not do anything.
Hence, in our opinion, the algorithm design and method developments papers are equally worthy of getting cited

  1. Neese, F.
     An improvement of the resolution of the identity approximation for the formation of the Coulomb matrix
     J. Comp. Chem. 2003 24(14), 1740-1747
     doi.org/10.1002/jcc.10318
  2. Neese, F.; Wennmohs, F.; Hansen, A.; Becker, U.
     Efficient, approximate and parallel Hartree-Fock and hybrid DFT calculations. A 'chain-of-spheres' algorithm for the Hartree-Fock exchange
     Chem. Phys. 2009 356(1-3), 98-109
     doi.org/10.1016/j.chemphys.2008.10.036
  3. Bykov, D.; Petrenko, T.; Izsak, R.; Kossmann, S.; Becker, U.; Valeev, E.; Neese, F.
     Efficient implementation of the analytic second derivatives of Hartree-Fock and hybrid DFT energies: a detailed analysis of different approximations
     Molec. Phys. 2015 113 , 1961-1977
     doi.org/10.1080/00268976.2015.1025114
  4. Lehtola, S.; Steigemann, C.; Oliveira, M.; Marques, M.
     Recent developments in Libxc - A comprehensive library of functionals for density functional theory
     Software X 2018 7 , 
     doi.org/10.1016/j.softx.2017.11.002
  5. Helmich-Paris, B.; de Souza, B.; Neese, F.; Izsák, R.
     An improved chain of spheres for exchange algorithm
     J. Chem. Phys. 2021 155(10), 104109
     doi.org/10.1063/5.0058766
  6. Neese, F.
     The SHARK Integral Generation and Digestion System
     J. Comp. Chem. 2022 44(3), 381
     doi.org/10.1002/jcc.26942

List of suggested additional citations. These are papers that are important in the 'surrounding' of 
of this run, or papers that preceded the highly important papers. If you like your results we are grateful for a citation.

  1. Izsak, R.; Neese, F.
     An overlap fitted chain of spheres exchange method
     J. Chem. Phys. 2011 135 , 144105
     doi.org/10.1063/1.3646921
  2. Izsak, R.; Hansen, A.; Neese, F.
     The resolution of identity and chain of spheres approximations for the LPNO-CCSD singles Fock term
     Molec. Phys. 2012 110 , 2413-2417
     doi.org/10.1080/00268976.2012.687466
  3. Neese, F.
     The ORCA program system
     WIRES Comput. Molec. Sci. 2012 2(1), 73-78
     doi.org/10.1002/wcms.81
  4. Izsak, R.; Neese, F.; Klopper, W.
     Robust fitting techniques in the chain of spheres approximation to the Fock exchange: The role of the complementary space
     J. Chem. Phys. 2013 139 , 
     doi.org/10.1063/1.4819264
  5. Neese, F.
     Software update: the ORCA program system, version 4.0
     WIRES Comput. Molec. Sci. 2018 8(1), 1-6
     doi.org/10.1002/wcms.1327
  6. Neese, F.; Wennmohs, F.; Becker, U.; Riplinger, C.
     The ORCA quantum chemistry program package
     J. Chem. Phys. 2020 152(22), 224108
     doi.org/10.1063/5.0004608
  7. Neese, F.
     Software update: The ORCA program system—Version 5.0
     WIRES Comput. Molec. Sci. 2022 12(1), e1606
     doi.org/10.1002/wcms.1606

List of optional additional citations

  1. Neese, F.
     Approximate second-order SCF convergence for spin unrestricted wavefunctions
     Chem. Phys. Lett. 2000 325(1-3), 93-98
     doi.org/10.1016/s0009-2614(00)00662-x

Timings for individual modules:

Sum of individual times          ...     3043.185 sec (=  50.720 min)
Startup calculation              ...      374.032 sec (=   6.234 min)  12.3 %
SCF iterations                   ...     1595.976 sec (=  26.600 min)  52.4 %
Property integrals               ...      274.463 sec (=   4.574 min)   9.0 %
SCF Response                     ...      249.336 sec (=   4.156 min)   8.2 %
Property calculations            ...       70.362 sec (=   1.173 min)   2.3 %
SCF Gradient evaluation          ...      477.419 sec (=   7.957 min)  15.7 %
Geometry relaxation              ...        1.597 sec (=   0.027 min)   0.1 %
                             ****ORCA TERMINATED NORMALLY****
TOTAL RUN TIME: 0 days 0 hours 53 minutes 11 seconds 718 msec
