
                                 *****************
                                 * O   R   C   A *
                                 *****************

                                            #,                                       
                                            ###                                      
                                            ####                                     
                                            #####                                    
                                            ######                                   
                                           ########,                                 
                                     ,,################,,,,,                         
                               ,,#################################,,                 
                          ,,##########################################,,             
                       ,#########################################, ''#####,          
                    ,#############################################,,   '####,        
                  ,##################################################,,,,####,       
                ,###########''''           ''''###############################       
              ,#####''   ,,,,##########,,,,          '''####'''          '####       
            ,##' ,,,,###########################,,,                        '##       
           ' ,,###''''                  '''############,,,                           
         ,,##''                                '''############,,,,        ,,,,,,###''
      ,#''                                            '''#######################'''  
     '                                                          ''''####''''         
             ,#######,   #######,   ,#######,      ##                                
            ,#'     '#,  ##    ##  ,#'     '#,    #''#        ,####,    ,#,          
            ##       ##  ##   ,#'  ##            #'  '#       #'       ,# #          
            ##       ##  #######   ##           ,######,      #####,      #          
            '#,     ,#'  ##    ##  '#,     ,#' ,#      #,     #,   #      #          
             '#######'   ##     ##  '#######'  #'      '#     '####' #    #          



                #########################################################
                #                        -***-                          #
                #          Department of theory and spectroscopy        #
                #                                                       #
                #                      Frank Neese                      #
                #                                                       #
                #     Directorship, Architecture, Infrastructure        #
                #                    SHARK, DRIVERS                     #
                #        Core code/Algorithms in most modules           #
                #                                                       #
                #        Max Planck Institute fuer Kohlenforschung      #
                #                Kaiser Wilhelm Platz 1                 #
                #                 D-45470 Muelheim/Ruhr                 #
                #                      Germany                          #
                #                                                       #
                #                  All rights reserved                  #
                #                        -***-                          #
                #########################################################


                         Program Version 6.1.0  -  RELEASE   -
                                (GIT: $679e74b$)
                          ($2025-06-10 18:02:51 +0200$)


 With contributions from (in alphabetic order):
[Max-Planck-Institut fuer Kohlenforschung]                               
  Daniel Aravena         : Magnetic Suceptibility                        
  Michael Atanasov       : Ab Initio Ligand Field Theory (pilot matlab implementation)
  Alexander A. Auer      : GIAO ZORA, VPT2 properties, NMR spectrum      
  Ute Becker             : All parallelization in ORCA, NUMFREQ, NUMCALC 
  Giovanni Bistoni       : ED, misc. LED, open-shell LED, HFLD           
  Dmytro Bykov           : pre 5.0 version of the SCF Hessian            
  Marcos Casanova-Páez   : Triplet and SCS-CIS(D). UHF-(DLPNO)-IP/EA/STEOM-CCSD. UHF-CVS-IP/STEOM-CCSD   
  Vijay G. Chilkuri      : MRCI spin determinant printing, contributions to CSF-ICE 
  Pauline Colinet        : FMM embedding                                 
  Dipayan Datta          : RHF DLPNO-CCSD density                        
  Achintya Kumar Dutta   : EOM-CC, STEOM-CC                              
  Nicolas Foglia         : Exact transition moments, OPA infrastructure, MCD improvements    
  Dmitry Ganyushin       : Spin-Orbit,Spin-Spin,Magnetic field MRCI      
  Miquel Garcia-Rates    : C-PCM and meta-GGA Hessian, CCSD/C-PCM, Gaussian charge scheme 
  Tiago L. C. Gouveia    : GS-ROHF, GS-ROCIS                             
  Yang Guo               : DLPNO-NEVPT2, F12-NEVPT2, CIM, IAO-localization        
  Andreas Hansen         : Spin unrestricted coupled pair/coupled cluster methods 
  Ingolf Harden          : AUTO-CI MPn and infrastructure                
  Benjamin Helmich-Paris : MC-RPA, TRAH-(SCF,CASSCF), AVAS, COSX integrals, SCF dyn. polar., MC-PDFT, srDFT 
  Lee Huntington         : MR-EOM, pCC                                   
  Robert Izsak           : Overlap fitted RIJCOSX, COSX-SCS-MP3, EOM     
  Riya Kayal             : Wick's Theorem for AUTO-CI, AUTO-CI UHF-CCSDT 
  Emily Kempfer          : AUTO-CI RHF CISDT and CCSDT, approximate NEVPT4
  Christian Kollmar      : KDIIS, OOCD, Brueckner-CCSD(T), CCSD density, CASPT2, CASPT2-K, improved NEVPT2 
  Axel Koslowski         : Symmetry handling                             
  Simone Kossmann        : meta-GGA functionals, TD-DFT gradient, OOMP2, (MP2 Hessian; deprecated post 5.0) 
  Lucas Lang             : DCDCAS, Hyperfine gauge corrections, ICE-SOC+SSC
  Marvin Lechner         : AUTO-CI (C++ implementation), FIC-MRCC        
  Spencer Leger          : CASSCF response                               
  Dagmar Lenk            : GEPOL surface, SMD, ORCA-2-JSON               
  Dimitrios Liakos       : Extrapolation schemes; Compound Job, Property file
  Dimitrios Manganas     : Further ROCIS development; embedding schemes. LFT, Crystal Embedding 
  Dimitrios Pantazis     : SARC Basis sets                               
  Anastasios Papadopoulos: AUTO-CI, single reference methods and gradients 
  Taras Petrenko         : pre 6.0 DFT Hessian and TD-DFT gradient,  ECA, NRVS 
  Petra Pikulova         : Analytic Raman intensities                    
  Peter Pinski           : DLPNO-MP2, DLPNO-MP2 Gradient                 
  Shashank Vittal Rao    : ES-AILFT, MagRelax                            
  Christoph Reimann      : Effective Core Potentials                     
  Marius Retegan         : Local ZFS, SOC                                
  Christoph Riplinger    : Optimizer, TS searches, QM/MM, DLPNO-CCSD(T), (RO)-DLPNO pert. Triples 
  Michael Roemelt        : Original ROCIS implementation, recursive CI coupling coefficients
  Masaaki Saitow         : Open-shell DLPNO-CCSD energy and density      
  Barbara Sandhoefer     : DKH picture change effects                    
  Yorick L. A. Schmerwitz: GMF and freeze-and-release deltaSCF, NEB S-IDPP initial path                    
  Kantharuban Sivalingam : CASSCF convergence/infrastructure, NEVPT2, NEVPT3, NEVPT4(SD), FIC-MRCI and CEPA variants
  Bernardo de Souza      : ESD, SOC TD-DFT                               
  Georgi L. Stoychev     : AutoAux, RI-MP2 NMR, DLPNO-MP2 response, X2C  
  Van Anh Tran           : RI-MP2 g-tensors                              
  Willem Van den Heuvel  : Paramagnetic NMR                              
  Zikuan Wang            : NOTCH, Electric field optimization            
  Frank Wennmohs         : Technical directorship and infrastructure     
  Hang Xu                : AUTO-CI-Response properties                   
                                                                         
[FACCTs GmbH]                                                            
  Markus Bursch, Nicolas Foglia, Miquel Garcia-Rates, Ingolf Harden, Hagen Neugebauer, Anastasios Papadopoulos, 
  Christoph Riplinger, Bernardo de Souza, Georgi L. Stoychev                                                    
                                                                 
  APM, various basis sets, CI-OPT, improved COSX, DLPNO-Multilevel,           
  DOCKER, DRACO, updates on ESD, Fragmentator, GOAT, IRC, LR-CPCM, L-BFGS, MBIS, meta-GGA TD-DFT gradient, ML-optimized integration grids, 
  MM, NACMEs, nearIR, NEB, NEB-TS, NL-DFT gradient (VV10), 2- and 3-layer-ONIOM, interface openCOSMO-RS, QMMM,   
  Crystal-QMMM, RESP, rigid body optimization, SF, symmetry and pop. for TD-DFT, various functionals, SOLVATOR                                   
                                                                         
[Other institutions]                                                     
  V. Asgeirsson          : NEB                                           
  Christoph Bannwarth    : sTDA-DFT, sTD-DFT, PBEh-3c, B97-3c, D3        
  Giovanni Bistoni       : ETS/NOCV, ADLD/ADEX, COVALED                  
  Martin Brehm           : Molecular dynamics                            
  Ronald Cardenas        : ETS/NOCV                                      
  Martina Colucci        : COVALED                                       
  Sebastian Ehlert       : rSCAN, r2SCAN, r2SCAN-3c, D4, dhf basis sets  
  Marvin Friede          : D4 for Fr, Ra, Ac-Lr                          
  Lars Goerigk           : TD-DFT with DH, B97 family of functionals     
  Stefan Grimme          : VdW corrections, initial TS optimization, DFT functionals, gCP, sTDA/sTD-DF 
  Waldemar Hujo          : DFT-NL                                        
  H. Jonsson             : NEB                                           
  Holger Kruse           : gCP                                           
  Marcel Mueller         : wB97X-3c, vDZP basis set                      
  Hagen Neugebauer       : wr2SCAN, Native XTB                           
  Gianluca Regni         : ADLD/ADEX                                     
  Tobias Risthaus        : pre 6.0 range-separated hybrid DFT and stability analysis
  Lukas Wittmann         : regularized MP2, r2SCAN double-hybrids, wr2SCAN        
                                                                         
We gratefully acknowledge several colleagues who have allowed us to      
interface, adapt or use parts of their codes:                            
  Ed Valeev, F. Pavosevic, A. Kumar             : LibInt (2-el integral package), F12 methods 
  Garnet Chan, S. Sharma, J. Yang, R. Olivares  : DMRG                   
  Ulf Ekstrom                                   : XCFun DFT Library      
  Mihaly Kallay                                 : mrcc  (arbitrary order and MRCC methods)
  Frank Weinhold                                : gennbo (NPA and NBO analysis)           
  Simon Mueller                                 : openCOSMO-RS                            
  Christopher J. Cramer and Donald G. Truhlar   : smd solvation model                     
  S Lehtola, MJT Oliveira, MAL Marques          : LibXC Library                           
  Liviu Ungur et al                             : ANISO software                          


 Your calculation uses the libint2 library for the computation of 2-el integrals
 For citations please refer to: http://libint.valeyev.net

 Your ORCA version has been built with support for libXC version: 7.0.0
 For citations please refer to: https://libxc.gitlab.io

 This ORCA versions uses:
   CBLAS   interface :  Fast vector & matrix operations
   LAPACKE interface :  Fast linear algebra routines
   SCALAPACK package :  Parallel linear algebra routines
   Shared memory     :  Shared parallel matrices
   BLAS/LAPACK       :  OpenBLAS 0.3.29  USE64BITINT DYNAMIC_ARCH NO_AFFINITY Cooperlake SINGLE_THREADED
        Core in use  :  Cooperlake
   Copyright (c) 2011-2014, The OpenBLAS Project


  ***********************************
  * Starting time: Fri Feb 27 19:14:54 2026
  * Host name:     chpc-cn074.rc.cuhk.edu.hk
  * Process ID:    1145380
  * Working dir.:  /ss02/scratch/s1/xlzhang/jingyi/L2_ts1_opt_pka_A
  ***********************************

Using LibXC functional ID 268 : Minnesota MN15 hybrid exchange functional
[ 1]  H. S. Yu, X. He, S. L. Li, and D. G. Truhlar.,  Chem. Sci. 7, 5032-5051 (2016)
Using LibXC functional ID 269 : Minnesota MN15 correlation functional
[ 1]  H. S. Yu, X. He, S. L. Li, and D. G. Truhlar.,  Chem. Sci. 7, 5032-5051 (2016)
Using LibXC functional ID 268 : Minnesota MN15 hybrid exchange functional
[ 1]  H. S. Yu, X. He, S. L. Li, and D. G. Truhlar.,  Chem. Sci. 7, 5032-5051 (2016)
Using LibXC functional ID 269 : Minnesota MN15 correlation functional
[ 1]  H. S. Yu, X. He, S. L. Li, and D. G. Truhlar.,  Chem. Sci. 7, 5032-5051 (2016)
NOTE: MaxCore=2109 MB was set to SCF,MP2,MDCI,CIPSI,MRCI,RASCI and CIS
      => If you want to overwrite this, your respective input block should be placed after the MaxCore statement
Your calculation utilizes LibXC
by S. Lehtola, C. Steigemann, M. J. T. Oliveira & M. A. L. Marques
Please cite in your paper:
Lehtola, S.; Steigemann, C.; Oliveira, M.J.T.; Marques, M. A. L. Software X, 7, (2018), 1.
   

Warning: RI is on but no J-basis has been assigned. Assigning Def2/J (nothing to worry about!)
================================================================================

cite the ECPs for Pd [Def2-ECP] as follows:
Ce-Yb(ecp-28): M. Dolg, H. Stoll, H.Preuss, J. Chem. Phys., 1989, 90, 1730-1734.
Y-Cd(ecp-28), Hf-Hg(ecp-46): D. Andrae,U. Haeussermann, M. Dolg, H. Stoll, H. Preuss, Theor. Chim. Acta, 1990, 77, 123-141.
In-Sb(ecp-28), Tl-Bi(ecp-46): B. Metz, H. Stoll, M. Dolg, J. Chem. Phys., 2000, 113, 2563-2569.
Te-Xe(ecp-28), Po-Rn(ecp-46): K. A. Peterson, D. Figgen, E. Goll, H. Stoll, M. Dolg, J. Chem. Phys., 2003, 119, 11113-11123.
Rb(ecp-28), Cs(ecp-46): T. Leininger, A. Nicklass, W. Kuechle, H. Stoll, M. Dolg, A. Bergner, Chem. Phys. Lett., 1996, 255, 274-280.
Sr(ecp-28), Ba(ecp-46): M. Kaupp, P. V. Schleyer, H. Stoll and H. Preuss, J. Chem. Phys., 1991, 94, 1360-1366.
La(ecp-46): M. Dolg, H. Stoll, A. Savin, H. Preuss, Theor. Chim. Acta, 1989, 75, 173-194.
Lu(ecp-28): X. Cao, M. Dolg, J. Chem. Phys., 2001, 115, 7348-7355.

ECP parameters for Pd [Def2-ECP] have been obtained from:
TURBOMOLE (7.0.2)

----- Orbital basis set information -----
Your calculation utilizes the basis: def2-SVP
   F. Weigend and R. Ahlrichs, Phys. Chem. Chem. Phys. 7, 3297 (2005).

----- AuxJ basis set information -----
Your calculation utilizes the auxiliary basis: def2/J
   H-Rn: F. Weigend, Phys. Chem. Chem. Phys. 8, 1057 (2006).
   Fr-Lr: K. Eichkorn, F. Weigend, O. Treutler, R. Ahlrichs; Theor. Chem. Acc. 97, 119 (1997).

================================================================================
                                        WARNINGS
                       Please study these warnings very carefully!
================================================================================

WARNING: Old DensityContainer found on disk!
         Will remove this file - 
         If you want to keep old densities, please start your calculation with a different basename. 


WARNING: Geometry Optimization
  ===> : Switching off AutoStart
         For restart on a previous wavefunction, please use MOREAD

================================================================================
                                       INPUT FILE
================================================================================
NAME = /users/s1155246976/scratch/L2_ts1_opt_pka_A/L2_ts1_opt_pka_A.inp
|  1> ! Opt Freq LibXC(MN15) def2-svp defgrid2
|  2> # Number of processors
|  3> %pal nprocs 64 end
|  4> # Memory per core
|  5> %maxcore 2109
|  6> * xyz -1 1
|  7> C        1.9722684200   -0.3763887000    0.4864138900
|  8> C        1.3610768900   -0.2125014000    1.9013691100
|  9> H        1.7438340900    0.6781713900    2.3542475800
| 10> H        0.2960688200   -0.1440214500    1.8241142700
| 11> C        1.4036305900   -1.6135254900   -0.1727158100
| 12> O        0.4694430000   -1.5560310000   -0.9679360000
| 13> O       -1.7050650000    2.3086320000   -0.5148170000
| 14> O        1.9479069500   -2.7551078100    0.1766430400
| 15> H        1.4715549700   -3.4860292500   -0.2615014800
| 16> C       -3.4432570000    1.6119300000    1.5049550000
| 17> C       -2.9349650000    0.2848520000    0.8866130000
| 18> C       -4.0720180000   -0.5495220000    0.3028920000
| 19> C       -4.4306040000    2.4064130000    0.6576430000
| 20> H       -2.4873500000   -0.2597210000    1.7376750000
| 21> H       -3.9425260000    1.3250120000    2.4475830000
| 22> H       -2.5887940000    2.2447600000    1.7878560000
| 23> H       -4.0020170000    2.6827700000   -0.3149520000
| 24> H       -4.7134660000    3.3354870000    1.1742270000
| 25> C       -3.6538680000   -1.9940840000    0.0641280000
| 26> O       -4.4473990000   -2.9088520000    0.0278870000
| 27> O       -2.3584820000   -2.1364440000   -0.1063810000
| 28> Pd      -1.2339070000   -0.5431100000   -0.1584180000
| 29> H       -4.4054070000   -0.1363560000   -0.6642310000
| 30> H       -4.9558920000   -0.5447690000    0.9620380000
| 31> H       -5.3550310000    1.8372160000    0.4806590000
| 32> N        0.0452378100    0.9465723100   -0.4134379200
| 33> C       -0.3767188500    2.2192775600   -0.5443428200
| 34> C        1.3741605300    0.7298564800   -0.4633213400
| 35> C        0.4925484000    3.3102584700   -0.7272110900
| 36> C        2.3217691800    1.7542561200   -0.6427313900
| 37> C        1.8663943000    3.0670594600   -0.7766408800
| 38> H        0.0927159700    4.3272446700   -0.8283163300
| 39> H        3.3932335700    1.5192108700   -0.6756544300
| 40> H        2.5763982300    3.8944023400   -0.9172827000
| 41> C        3.4957418000   -0.5617567800    0.6139582200
| 42> H        3.9129113000   -0.7603526000   -0.3511476300
| 43> H        3.9312645100    0.3299019400    1.0141640500
| 44> H        3.7015663500   -1.3836143400    1.2674766900
| 45> H        1.6214095400   -1.0585193200    2.5025185000
| 46> *
| 47> 
| 48>                          ****END OF INPUT****
================================================================================

                       *****************************
                       * Geometry Optimization Run *
                       *****************************

Geometry optimization settings:
Update method            Update   .... BFGS
Choice of coordinates    CoordSys .... (2022) Redundant Internals
Initial Hessian          InHess   .... Almloef's Model
Max. no of cycles        MaxIter  .... 117

Convergence Tolerances:
Energy Change            TolE     ....  5.0000e-06 Eh
Max. Gradient            TolMAXG  ....  3.0000e-04 Eh/bohr
RMS Gradient             TolRMSG  ....  1.0000e-04 Eh/bohr
Max. Displacement        TolMAXD  ....  4.0000e-03 bohr
RMS Displacement         TolRMSD  ....  2.0000e-03 bohr
Strict Convergence                .... False

------------------------------------------------------------------------------
                        ORCA OPTIMIZATION COORDINATE SETUP
------------------------------------------------------------------------------

The optimization will be done in redundant internal coordinates (2022)
Making redundant internal coordinates   ...  (2022 redundants) done
Evaluating the initial hessian          ...  (Almloef) done
Evaluating the coordinates              ...  done
Calculating the B-matrix                .... done
Calculating the G-matrix                .... done
The number of degrees of freedom        ....  208

    -----------------------------------------------------------------
                    Redundant Internal Coordinates


    -----------------------------------------------------------------
         Definition                    Initial Value    Approx d2E/dq
    -----------------------------------------------------------------
      1. B(C   1,C   0)                  1.5500         0.347106   
      2. B(H   2,C   1)                  1.0700         0.387554   
      3. B(H   3,C   1)                  1.0700         0.387554   
      4. B(C   4,C   0)                  1.5127         0.398065   
      5. B(O   5,C   4)                  1.2282         1.014085   
      6. B(O   7,C   4)                  1.3121         0.745119   
      7. B(H   8,O   7)                  0.9763         0.489766   
      8. B(C  10,C   9)                  1.5498         0.347381   
      9. B(C  11,C  10)                  1.5264         0.378592   
     10. B(C  12,C   9)                  1.5245         0.381248   
     11. B(H  13,C  10)                  1.1051         0.340680   
     12. B(H  14,C   9)                  1.1046         0.341296   
     13. B(H  15,C   9)                  1.1003         0.346756   
     14. B(H  16,C  12)                  1.0982         0.349439   
     15. B(H  17,C  12)                  1.1000         0.347083   
     16. B(C  18,C  11)                  1.5227         0.383728   
     17. B(O  19,C  18)                  1.2115         1.077985   
     18. B(O  20,C  18)                  1.3143         0.739030   
     19. B(Pd 21,O  20)                  1.9509         0.721253   
     20. B(Pd 21,C  10)                  2.1613         0.371798   
     21. B(Pd 21,O   5)                  2.1407         0.359134   
     22. B(H  22,C  11)                  1.1033         0.342980   
     23. B(H  23,C  11)                  1.1026         0.343810   
     24. B(H  24,C  12)                  1.0999         0.347184   
     25. B(N  25,Pd 21)                  1.9800         0.648176   
     26. B(C  26,N  25)                  1.3472         0.654865   
     27. B(C  26,O   6)                  1.3317         0.693312   
     28. B(C  27,N  25)                  1.3474         0.654394   
     29. B(C  27,C   0)                  1.5759         0.315590   
     30. B(C  28,C  26)                  1.4069         0.587233   
     31. B(C  29,C  27)                  1.4070         0.587050   
     32. B(C  30,C  29)                  1.3960         0.611228   
     33. B(C  30,C  28)                  1.3961         0.610994   
     34. B(H  31,C  28)                  1.0974         0.350406   
     35. B(H  32,C  29)                  1.0974         0.350396   
     36. B(H  33,C  30)                  1.0993         0.348051   
     37. B(C  34,C   0)                  1.5400         0.360100   
     38. B(H  35,C  34)                  1.0700         0.387554   
     39. B(H  36,C  34)                  1.0700         0.387554   
     40. B(H  37,C  34)                  1.0700         0.387554   
     41. B(H  38,C   1)                  1.0700         0.387554   
     42. A(C   4,C   0,C  34)          108.0302         0.365018   
     43. A(C  27,C   0,C  34)          120.6549         0.350888   
     44. A(C   1,C   0,C  27)          109.0426         0.348719   
     45. A(C   1,C   0,C   4)          109.6339         0.362732   
     46. A(C   1,C   0,C  34)          109.0993         0.356592   
     47. A(C   4,C   0,C  27)           99.7197         0.356897   
     48. A(C   0,C   1,H   3)          109.4712         0.324318   
     49. A(C   0,C   1,H   2)          109.4712         0.324318   
     50. A(H   2,C   1,H  38)          109.4712         0.297665   
     51. A(H   2,C   1,H   3)          109.4712         0.297665   
     52. A(H   3,C   1,H  38)          109.4712         0.297665   
     53. A(C   0,C   1,H  38)          109.4712         0.324318   
     54. A(C   0,C   4,O   7)          116.0790         0.411721   
     55. A(O   5,C   4,O   7)          121.9155         0.484512   
     56. A(C   0,C   4,O   5)          121.9899         0.435037   
     57. A(C   4,O   5,Pd 21)          112.4906         0.477169   
     58. A(C   4,O   7,H   8)          109.2384         0.378118   
     59. A(C  10,C   9,H  15)          109.9005         0.318509   
     60. A(C  12,C   9,H  14)          108.4779         0.322552   
     61. A(C  10,C   9,H  14)          105.4442         0.317686   
     62. A(C  10,C   9,C  12)          115.9077         0.360119   
     63. A(H  14,C   9,H  15)          106.3193         0.286707   
     64. A(C  12,C   9,H  15)          110.2511         0.323392   
     65. A(H  13,C  10,Pd 21)           82.2297         0.357098   
     66. A(C  11,C  10,Pd 21)          101.0688         0.406471   
     67. A(C   9,C  10,Pd 21)          141.1770         0.400349   
     68. A(C  11,C  10,H  13)          109.0793         0.322087   
     69. A(C   9,C  10,H  13)          104.3324         0.317592   
     70. A(C   9,C  10,C  11)          112.1075         0.359691   
     71. A(C  10,C  11,C  18)          111.9616         0.365856   
     72. A(H  22,C  11,H  23)          106.2715         0.286546   
     73. A(C  18,C  11,H  23)          108.5398         0.323284   
     74. A(C  10,C  11,H  23)          111.4808         0.322570   
     75. A(C  18,C  11,H  22)          107.5061         0.323156   
     76. A(C  10,C  11,H  22)          110.8321         0.322443   
     77. A(H  16,C  12,H  17)          107.6812         0.287808   
     78. A(H  17,C  12,H  24)          107.2482         0.287517   
     79. A(H  16,C  12,H  24)          108.4041         0.287821   
     80. A(C   9,C  12,H  24)          111.3501         0.323458   
     81. A(C   9,C  12,H  17)          110.2241         0.323442   
     82. A(C   9,C  12,H  16)          111.7546         0.323802   
     83. A(O  19,C  18,O  20)          124.0485         0.489276   
     84. A(C  11,C  18,O  20)          113.1888         0.408459   
     85. A(C  11,C  18,O  19)          122.7607         0.436955   
     86. A(C  18,O  20,Pd 21)          118.8906         0.512118   
     87. A(O   5,Pd 21,O  20)           94.7212         0.505034   
     88. A(O   5,Pd 21,C  10)          172.0355         0.449191   
     89. A(O  20,Pd 21,N  25)          172.0103         0.564522   
     90. A(C  10,Pd 21,N  25)          106.4106         0.500694   
     91. A(O   5,Pd 21,N  25)           78.0680         0.495096   
     92. A(C  10,Pd 21,O  20)           81.1579         0.510769   
     93. A(C  26,N  25,C  27)          117.2105         0.436865   
     94. A(Pd 21,N  25,C  27)          121.3947         0.490795   
     95. A(Pd 21,N  25,C  26)          121.3947         0.490860   
     96. A(N  25,C  26,C  28)          123.4828         0.431259   
     97. A(O   6,C  26,C  28)          124.5534         0.435707   
     98. A(O   6,C  26,N  25)          111.9415         0.441443   
     99. A(N  25,C  27,C  29)          123.4969         0.431179   
    100. A(C   0,C  27,C  29)          109.4102         0.381521   
    101. A(C   0,C  27,N  25)          117.7050         0.386333   
    102. A(C  30,C  28,H  31)          121.1114         0.350417   
    103. A(C  26,C  28,H  31)          120.3635         0.348080   
    104. A(C  26,C  28,C  30)          118.5252         0.428724   
    105. A(C  30,C  29,H  32)          121.1328         0.350438   
    106. A(C  27,C  29,H  32)          120.3618         0.348060   
    107. A(C  27,C  29,C  30)          118.5054         0.428730   
    108. A(C  29,C  30,H  33)          120.6219         0.350041   
    109. A(C  28,C  30,H  33)          120.5988         0.350018   
    110. A(C  28,C  30,C  29)          118.7792         0.431818   
    111. A(H  36,C  34,H  37)          109.4712         0.297665   
    112. A(H  35,C  34,H  37)          109.4712         0.297665   
    113. A(C   0,C  34,H  37)          109.4712         0.326284   
    114. A(H  35,C  34,H  36)          109.4713         0.297665   
    115. A(C   0,C  34,H  36)          109.4712         0.326284   
    116. A(C   0,C  34,H  35)          109.4712         0.326284   
    117. D(H   3,C   1,C   0,C   4)    -58.4017         0.010000   
    118. D(H   3,C   1,C   0,C  27)     49.8241         0.010000   
    119. D(H   2,C   1,C   0,C  27)    -70.1759         0.010000   
    120. D(H   2,C   1,C   0,C   4)   -178.4017         0.010000   
    121. D(H   2,C   1,C   0,C  34)     63.4796         0.010000   
    122. D(H   3,C   1,C   0,C  34)   -176.5204         0.010000   
    123. D(O   5,C   4,C   0,C   1)     97.7834         0.011765   
    124. D(O   7,C   4,C   0,C   1)    -80.8029         0.011765   
    125. D(O   5,C   4,C   0,C  34)   -143.4352         0.011765   
    126. D(O   7,C   4,C   0,C  27)    164.8312         0.011765   
    127. D(O   5,C   4,C   0,C  27)    -16.5826         0.011765   
    128. D(Pd 21,O   5,C   4,C   0)    -54.4794         0.084605   
    129. D(Pd 21,O   5,C   4,O   7)    124.0246         0.084605   
    130. D(H   8,O   7,C   4,O   5)     -2.1422         0.042108   
    131. D(H   8,O   7,C   4,C   0)    176.4452         0.042108   
    132. D(H  13,C  10,C   9,H  14)    -44.3292         0.010000   
    133. D(H  13,C  10,C   9,H  15)     69.8784         0.010000   
    134. D(C  11,C  10,C   9,H  15)   -172.2212         0.010000   
    135. D(H  13,C  10,C   9,C  12)   -164.3125         0.010000   
    136. D(C  11,C  10,C   9,H  14)     73.5712         0.010000   
    137. D(C  11,C  10,C   9,C  12)    -46.4121         0.010000   
    138. D(H  22,C  11,C  10,Pd 21)    -83.0598         0.011428   
    139. D(H  22,C  11,C  10,H  13)   -168.5799         0.011428   
    140. D(C  18,C  11,C  10,Pd 21)     36.9712         0.011428   
    141. D(H  22,C  11,C  10,C   9)     76.3820         0.011428   
    142. D(C  18,C  11,C  10,H  13)    -48.5490         0.011428   
    143. D(C  18,C  11,C  10,C   9)   -163.5870         0.011428   
    144. D(H  17,C  12,C   9,C  10)   -178.9012         0.011580   
    145. D(H  16,C  12,C   9,H  15)     66.4330         0.011580   
    146. D(H  16,C  12,C   9,H  14)   -177.5223         0.011580   
    147. D(H  16,C  12,C   9,C  10)    -59.1978         0.011580   
    148. D(H  17,C  12,C   9,H  15)    -53.2703         0.011580   
    149. D(H  17,C  12,C   9,H  14)     62.7744         0.011580   
    150. D(O  20,C  18,C  11,H  22)     96.9602         0.010975   
    151. D(O  20,C  18,C  11,C  10)    -24.9960         0.010975   
    152. D(O  19,C  18,C  11,H  23)     32.0233         0.010975   
    153. D(O  19,C  18,C  11,C  10)    155.5064         0.010975   
    154. D(O  19,C  18,C  11,H  22)    -82.5375         0.010975   
    155. D(Pd 21,O  20,C  18,O  19)    175.2064         0.041350   
    156. D(Pd 21,O  20,C  18,C  11)     -4.2837         0.041350   
    157. D(N  25,Pd 21,O  20,C  18)   -140.2072         0.010000   
    158. D(C  10,Pd 21,O  20,C  18)     21.3638         0.010000   
    159. D(O   5,Pd 21,O  20,C  18)   -165.5014         0.010000   
    160. D(O  20,Pd 21,C  10,H  13)     77.5959         0.010000   
    161. D(O  20,Pd 21,C  10,C  11)    -30.4311         0.010000   
    162. D(O  20,Pd 21,C  10,C   9)   -179.1689         0.010000   
    163. D(O   5,Pd 21,C  10,H  13)     18.3064         0.010000   
    164. D(O   5,Pd 21,C  10,C  11)    -89.7206         0.010000   
    165. D(O   5,Pd 21,C  10,C   9)    121.5415         0.010000   
    166. D(O  20,Pd 21,O   5,C   4)   -112.4387         0.010000   
    167. D(C  10,Pd 21,O   5,C   4)    -53.9614         0.010000   
    168. D(N  25,Pd 21,O   5,C   4)     71.0412         0.010000   
    169. D(C  27,N  25,Pd 21,C  10)    149.9274         0.010000   
    170. D(C  27,N  25,Pd 21,O   5)    -23.2776         0.010000   
    171. D(C  26,N  25,Pd 21,O  20)    130.9232         0.010000   
    172. D(C  26,N  25,Pd 21,C  10)    -30.0726         0.010000   
    173. D(C  26,N  25,Pd 21,O   5)    156.7224         0.010000   
    174. D(C  28,C  26,N  25,C  27)     -0.0010         0.035044   
    175. D(C  28,C  26,N  25,Pd 21)    179.9990         0.035044   
    176. D(O   6,C  26,N  25,C  27)    178.3518         0.035044   
    177. D(O   6,C  26,N  25,Pd 21)     -1.6482         0.035044   
    178. D(N  25,C  27,C   0,C   4)     69.7826         0.010000   
    179. D(N  25,C  27,C   0,C   1)    -45.0367         0.010000   
    180. D(C  29,C  27,N  25,C  26)     -0.0067         0.034989   
    181. D(C  29,C  27,N  25,Pd 21)    179.9933         0.034989   
    182. D(C   0,C  27,N  25,C  26)    142.8996         0.034989   
    183. D(C   0,C  27,N  25,Pd 21)    -37.1004         0.034989   
    184. D(C  29,C  27,C   0,C   4)   -142.4434         0.010000   
    185. D(C  29,C  27,C   0,C   1)    102.7373         0.010000   
    186. D(N  25,C  27,C   0,C  34)   -172.4063         0.010000   
    187. D(H  31,C  28,C  26,N  25)    179.9941         0.023720   
    188. D(H  31,C  28,C  26,O   6)      1.8493         0.023720   
    189. D(C  30,C  28,C  26,N  25)      0.0100         0.023720   
    190. D(C  30,C  28,C  26,O   6)   -178.1348         0.023720   
    191. D(H  32,C  29,C  27,N  25)   -179.9962         0.023705   
    192. D(H  32,C  29,C  27,C   0)     34.4861         0.023705   
    193. D(C  30,C  29,C  27,N  25)      0.0051         0.023705   
    194. D(C  30,C  29,C  27,C   0)   -145.5125         0.023705   
    195. D(H  33,C  30,C  29,H  32)     -0.0632         0.025808   
    196. D(H  33,C  30,C  29,C  27)    179.9354         0.025808   
    197. D(C  28,C  30,C  29,H  32)   -179.9944         0.025808   
    198. D(C  28,C  30,C  29,C  27)      0.0043         0.025808   
    199. D(H  33,C  30,C  28,H  31)      0.0736         0.025788   
    200. D(H  33,C  30,C  28,C  26)   -179.9425         0.025788   
    201. D(C  29,C  30,C  28,H  31)   -179.9952         0.025788   
    202. D(C  29,C  30,C  28,C  26)     -0.0113         0.025788   
    203. D(H  36,C  34,C   0,C  27)     62.4576         0.010403   
    204. D(H  36,C  34,C   0,C   4)    175.9927         0.010403   
    205. D(H  36,C  34,C   0,C   1)    -64.8863         0.010403   
    206. D(H  35,C  34,C   0,C  27)    -57.5424         0.010403   
    207. D(H  35,C  34,C   0,C   4)     55.9927         0.010403   
    208. D(H  35,C  34,C   0,C   1)    175.1137         0.010403   
    -----------------------------------------------------------------

Number of atoms                         .... 39
Number of degrees of freedom            .... 208


         *************************************************************
         *                GEOMETRY OPTIMIZATION CYCLE   1            *
         *************************************************************
---------------------------------
CARTESIAN COORDINATES (ANGSTROEM)
---------------------------------
  C      1.972268   -0.376389    0.486414
  C      1.361077   -0.212501    1.901369
  H      1.743834    0.678171    2.354248
  H      0.296069   -0.144021    1.824114
  C      1.403631   -1.613525   -0.172716
  O      0.469443   -1.556031   -0.967936
  O     -1.705065    2.308632   -0.514817
  O      1.947907   -2.755108    0.176643
  H      1.471555   -3.486029   -0.261501
  C     -3.443257    1.611930    1.504955
  C     -2.934965    0.284852    0.886613
  C     -4.072018   -0.549522    0.302892
  C     -4.430604    2.406413    0.657643
  H     -2.487350   -0.259721    1.737675
  H     -3.942526    1.325012    2.447583
  H     -2.588794    2.244760    1.787856
  H     -4.002017    2.682770   -0.314952
  H     -4.713466    3.335487    1.174227
  C     -3.653868   -1.994084    0.064128
  O     -4.447399   -2.908852    0.027887
  O     -2.358482   -2.136444   -0.106381
  Pd    -1.233907   -0.543110   -0.158418
  H     -4.405407   -0.136356   -0.664231
  H     -4.955892   -0.544769    0.962038
  H     -5.355031    1.837216    0.480659
  N      0.045238    0.946572   -0.413438
  C     -0.376719    2.219278   -0.544343
  C      1.374161    0.729856   -0.463321
  C      0.492548    3.310258   -0.727211
  C      2.321769    1.754256   -0.642731
  C      1.866394    3.067059   -0.776641
  H      0.092716    4.327245   -0.828316
  H      3.393234    1.519211   -0.675654
  H      2.576398    3.894402   -0.917283
  C      3.495742   -0.561757    0.613958
  H      3.912911   -0.760353   -0.351148
  H      3.931265    0.329902    1.014164
  H      3.701566   -1.383614    1.267477
  H      1.621410   -1.058519    2.502518

----------------------------
CARTESIAN COORDINATES (A.U.)
----------------------------
  NO LB      ZA    FRAG     MASS         X           Y           Z
   0 C     6.0000    0    12.011    3.727047   -0.711272    0.919189
   1 C     6.0000    0    12.011    2.572063   -0.401569    3.593067
   2 H     1.0000    0     1.008    3.295369    1.281558    4.448883
   3 H     1.0000    0     1.008    0.559489   -0.272161    3.447076
   4 C     6.0000    0    12.011    2.652477   -3.049121   -0.326386
   5 O     8.0000    0    15.999    0.887119   -2.940472   -1.829134
   6 O     8.0000    0    15.999   -3.222106    4.362682   -0.972863
   7 O     8.0000    0    15.999    3.681011   -5.206399    0.333807
   8 H     1.0000    0     1.008    2.780836   -6.587641   -0.494166
   9 C     6.0000    0    12.011   -6.506813    3.046106    2.843953
  10 C     6.0000    0    12.011   -5.546280    0.538292    1.675456
  11 C     6.0000    0    12.011   -7.694999   -1.038446    0.572383
  12 C     6.0000    0    12.011   -8.372628    4.547462    1.242765
  13 H     1.0000    0     1.008   -4.700410   -0.490802    3.283730
  14 H     1.0000    0     1.008   -7.450294    2.503910    4.625262
  15 H     1.0000    0     1.008   -4.892112    4.241982    3.378558
  16 H     1.0000    0     1.008   -7.562716    5.069701   -0.595173
  17 H     1.0000    0     1.008   -8.907160    6.303157    2.218967
  18 C     6.0000    0    12.011   -6.904810   -3.768273    0.121184
  19 O     8.0000    0    15.999   -8.404366   -5.496934    0.052699
  20 O     8.0000    0    15.999   -4.456885   -4.037294   -0.201031
  21 Pd   18.0000*   0   106.400   -2.331746   -1.026329   -0.299367
  22 H     1.0000    0     1.008   -8.325013   -0.257675   -1.255215
  23 H     1.0000    0     1.008   -9.365279   -1.029464    1.817988
  24 H     1.0000    0     1.008  -10.119542    3.471835    0.908314
  25 N     7.0000    0    14.007    0.085487    1.788762   -0.781284
  26 C     6.0000    0    12.011   -0.711895    4.193827   -1.028659
  27 C     6.0000    0    12.011    2.596787    1.379229   -0.875550
  28 C     6.0000    0    12.011    0.930782    6.255482   -1.374230
  29 C     6.0000    0    12.011    4.387508    3.315064   -1.214586
  30 C     6.0000    0    12.011    3.526974    5.795902   -1.467639
  31 H     1.0000    0     1.008    0.175208    8.177307   -1.565291
  32 H     1.0000    0     1.008    6.412282    2.870892   -1.276802
  33 H     1.0000    0     1.008    4.868687    7.359354   -1.733413
  34 C     6.0000    0    12.011    6.605995   -1.061566    1.160213
  35 H     1.0000    0     1.008    7.394331   -1.436858   -0.663573
  36 H     1.0000    0     1.008    7.429013    0.623424    1.916492
  37 H     1.0000    0     1.008    6.994947   -2.614652    2.395184
  38 H     1.0000    0     1.008    3.064020   -2.000312    4.729075
* core charge reduced due to ECP

--------------------------------
INTERNAL COORDINATES (ANGSTROEM)
--------------------------------
 C      0   0   0     0.000000000000     0.00000000     0.00000000
 C      1   0   0     1.550004002592     0.00000000     0.00000000
 H      2   1   0     1.070000000742   109.47122041     0.00000000
 H      2   1   3     1.070000001411   109.47122082   119.99999987
 C      1   2   3     1.512715564903   109.63385423   181.59828446
 O      5   1   2     1.228164166663   121.98987931    97.78340827
 O      4   2   1     3.935815671132   126.07607602   308.31171667
 O      5   1   2     1.312058899389   116.07896751   279.19713716
 H      8   5   1     0.976282736049   109.23844583   176.44524492
 C      7   4   2     2.754302822431    74.18414032   202.29678354
 C     10   7   4     1.549788244991    73.56302670   305.84384523
 C     11  10   7     1.526368141218   112.10751114   240.73166350
 C     10   7   4     1.524465467317    82.49122226   185.95190983
 H     11  10   7     1.105090705959   104.33238955   122.83126606
 H     10   7   4     1.104599031083   167.61644616    33.03585838
 H     10   7   4     1.100278966022    63.44683400    68.81187593
 H     13  10   7     1.098180787504   111.75455889     8.38666197
 H     13  10   7     1.100022016860   110.22411484   248.68331414
 C     12  11  10     1.522700575307   111.96162729   196.41298327
 O     19  12  11     1.211530169606   122.76066169   155.50639974
 O     19  12  11     1.314292424720   113.18876455   335.00401645
 Pd    21  19  12     1.950920299641   118.89055333   355.71630471
 H     12  11  10     1.103259382922   110.83214069    76.38199586
 H     12  11  10     1.102601146472   111.48082582   318.22407788
 H     13  10   7     1.099942652775   111.35006749   129.78322334
 N     22  21  19     1.979999997291   172.01031813   219.79279414
 C      7   4   2     1.331675442521    57.60124241     4.80799643
 C     26  22  21     1.347401091842   121.39472674   310.92318358
 C     27   7   4     1.406877998293   124.55339045   217.69798809
 C     28  26  22     1.406962949771   123.49687321   179.99328395
 C     30  28  26     1.395976590908   118.50535506     0.00000000
 H     29  27   7     1.097428436221   120.36345490     1.84925483
 H     30  28  26     1.097436164498   120.36184320   180.00375914
 H     31  30  28     1.099264273610   120.62194048   179.93544317
 C      1   2   3     1.540000006742   109.09931008    63.47963913
 H     35   1   2     1.069999996802   109.47120247   175.11369614
 H     35   1   2     1.070000004787   109.47120231   295.11371003
 H     35   1   2     1.069999992964   109.47123136    55.11370277
 H      2   1   3     1.069999999399   109.47122076   240.00000034

---------------------------
INTERNAL COORDINATES (A.U.)
---------------------------
 C      0   0   0     0.000000000000     0.00000000     0.00000000
 C      1   0   0     2.929083071380     0.00000000     0.00000000
 H      2   1   0     2.022006964698   109.47122041     0.00000000
 H      2   1   3     2.022006965963   109.47122082   119.99999987
 C      1   2   3     2.858618136187   109.63385423   181.59828446
 O      5   1   2     2.320893922488   121.98987931    97.78340827
 O      4   2   1     7.437613732035   126.07607602   308.31171667
 O      5   1   2     2.479431991419   116.07896751   279.19713716
 H      8   5   1     1.844907000408   109.23844583   176.44524492
 C      7   4   2     5.204878024281    74.18414032   202.29678354
 C     10   7   4     2.928675348603    73.56302670   305.84384523
 C     11  10   7     2.884417766445   112.10751114   240.73166350
 C     10   7   4     2.880822233849    82.49122226   185.95190983
 H     11  10   7     2.088318787405   104.33238955   122.83126606
 H     10   7   4     2.087389656541   167.61644616    33.03585838
 H     10   7   4     2.079225916695    63.44683400    68.81187593
 H     13  10   7     2.075260933917   111.75455889     8.38666197
 H     13  10   7     2.078740353148   110.22411484   248.68331414
 C     12  11  10     2.877487071294   111.96162729   196.41298327
 O     19  12  11     2.289460223539   122.76066169   155.50639974
 O     19  12  11     2.483652742609   113.18876455   335.00401645
 Pd    21  19  12     3.686705075428   118.89055333   355.71630471
 H     12  11  10     2.084858088402   110.83214069    76.38199586
 H     12  11  10     2.083614201779   111.48082582   318.22407788
 H     13  10   7     2.078590376764   111.35006749   129.78322334
 N     22  21  19     3.741657740045   172.01031813   219.79279414
 C      7   4   2     2.516501885634    57.60124241     4.80799643
 C     26  22  21     2.546219056127   121.39472674   310.92318358
 C     27   7   4     2.658614120612   124.55339045   217.69798809
 C     28  26  22     2.658774655641   123.49687321   179.99328395
 C     30  28  26     2.638013446181   118.50535506     0.00000000
 H     29  27   7     2.073839196034   120.36345490     1.84925483
 H     30  28  26     2.073853800363   120.36184320   180.00375914
 H     31  30  28     2.077308425927   120.62194048   179.93544317
 C      1   2   3     2.910178258980   109.09931008    63.47963913
 H     35   1   2     2.022006957252   109.47120247   175.11369614
 H     35   1   2     2.022006972341   109.47120231   295.11371003
 H     35   1   2     2.022006950000   109.47123136    55.11370277
 H      2   1   3     2.022006962161   109.47122076   240.00000034

---------------------
BASIS SET INFORMATION
---------------------
There are 5 groups of distinct atoms

 Group   1 Type C   : 7s4p1d contracted to 3s2p1d pattern {511/31/1}
 Group   2 Type H   : 4s1p contracted to 2s1p pattern {31/1}
 Group   3 Type O   : 7s4p1d contracted to 3s2p1d pattern {511/31/1}
 Group   4 Type Pd  : 7s6p5d1f contracted to 5s3p2d1f pattern {31111/411/41/1}
 Group   5 Type N   : 7s4p1d contracted to 3s2p1d pattern {511/31/1}

Atom   0C    basis set group =>   1
Atom   1C    basis set group =>   1
Atom   2H    basis set group =>   2
Atom   3H    basis set group =>   2
Atom   4C    basis set group =>   1
Atom   5O    basis set group =>   3
Atom   6O    basis set group =>   3
Atom   7O    basis set group =>   3
Atom   8H    basis set group =>   2
Atom   9C    basis set group =>   1
Atom  10C    basis set group =>   1
Atom  11C    basis set group =>   1
Atom  12C    basis set group =>   1
Atom  13H    basis set group =>   2
Atom  14H    basis set group =>   2
Atom  15H    basis set group =>   2
Atom  16H    basis set group =>   2
Atom  17H    basis set group =>   2
Atom  18C    basis set group =>   1
Atom  19O    basis set group =>   3
Atom  20O    basis set group =>   3
Atom  21Pd   basis set group =>   4
Atom  22H    basis set group =>   2
Atom  23H    basis set group =>   2
Atom  24H    basis set group =>   2
Atom  25N    basis set group =>   5
Atom  26C    basis set group =>   1
Atom  27C    basis set group =>   1
Atom  28C    basis set group =>   1
Atom  29C    basis set group =>   1
Atom  30C    basis set group =>   1
Atom  31H    basis set group =>   2
Atom  32H    basis set group =>   2
Atom  33H    basis set group =>   2
Atom  34C    basis set group =>   1
Atom  35H    basis set group =>   2
Atom  36H    basis set group =>   2
Atom  37H    basis set group =>   2
Atom  38H    basis set group =>   2
---------------------------------
AUXILIARY/J BASIS SET INFORMATION
---------------------------------
There are 5 groups of distinct atoms

 Group   1 Type C   : 12s5p4d2f1g contracted to 6s4p3d1f1g pattern {711111/2111/211/2/1}
 Group   2 Type H   : 5s2p1d contracted to 3s1p1d pattern {311/2/1}
 Group   3 Type O   : 12s5p4d2f1g contracted to 6s4p3d1f1g pattern {711111/2111/211/2/1}
 Group   4 Type Pd  : 11s5p5d3f3g contracted to 8s5p5d2f3g pattern {41111111/11111/11111/21/111}
 Group   5 Type N   : 12s5p4d2f1g contracted to 6s4p3d1f1g pattern {711111/2111/211/2/1}

Atom   0C    basis set group =>   1
Atom   1C    basis set group =>   1
Atom   2H    basis set group =>   2
Atom   3H    basis set group =>   2
Atom   4C    basis set group =>   1
Atom   5O    basis set group =>   3
Atom   6O    basis set group =>   3
Atom   7O    basis set group =>   3
Atom   8H    basis set group =>   2
Atom   9C    basis set group =>   1
Atom  10C    basis set group =>   1
Atom  11C    basis set group =>   1
Atom  12C    basis set group =>   1
Atom  13H    basis set group =>   2
Atom  14H    basis set group =>   2
Atom  15H    basis set group =>   2
Atom  16H    basis set group =>   2
Atom  17H    basis set group =>   2
Atom  18C    basis set group =>   1
Atom  19O    basis set group =>   3
Atom  20O    basis set group =>   3
Atom  21Pd   basis set group =>   4
Atom  22H    basis set group =>   2
Atom  23H    basis set group =>   2
Atom  24H    basis set group =>   2
Atom  25N    basis set group =>   5
Atom  26C    basis set group =>   1
Atom  27C    basis set group =>   1
Atom  28C    basis set group =>   1
Atom  29C    basis set group =>   1
Atom  30C    basis set group =>   1
Atom  31H    basis set group =>   2
Atom  32H    basis set group =>   2
Atom  33H    basis set group =>   2
Atom  34C    basis set group =>   1
Atom  35H    basis set group =>   2
Atom  36H    basis set group =>   2
Atom  37H    basis set group =>   2
Atom  38H    basis set group =>   2
-------------------------
ECP PARAMETER INFORMATION
-------------------------

 Group 1, Type Pd ECP Def2-ECP (replacing 28 core electrons, lmax=3)

Atom  21Pd   ECP group =>   1



           ************************************************************
           *        Program running with 64 parallel MPI-processes    *
           *              working on a common directory               *
           ************************************************************
------------------------------------------------------------------------------
                             ORCA STARTUP CALCULATIONS
                           -- RI-GTO INTEGRALS CHOSEN --
------------------------------------------------------------------------------
------------------------------------------------------------------------------
                   ___                                                        
                  /   \      - P O W E R E D   B Y -                         
                 /     \                                                     
                 |  |  |   _    _      __       _____    __    __             
                 |  |  |  | |  | |    /  \     |  _  \  |  |  /  |          
                  \  \/   | |  | |   /    \    | | | |  |  | /  /          
                 / \  \   | |__| |  /  /\  \   | |_| |  |  |/  /          
                |  |  |   |  __  | /  /__\  \  |    /   |      \           
                |  |  |   | |  | | |   __   |  |    \   |  |\   \          
                \     /   | |  | | |  |  |  |  | |\  \  |  | \   \       
                 \___/    |_|  |_| |__|  |__|  |_| \__\ |__|  \__/        
                                                                              
                      - O R C A' S   B I G   F R I E N D -                    
                                      &                                       
                       - I N T E G R A L  F E E D E R -                       
                                                                              
 v1 FN, 2020, v2 2021, v3 2022-2024                                           
------------------------------------------------------------------------------


----------------------
SHARK INTEGRAL PACKAGE
----------------------

Number of atoms                             ...     39
Number of basis functions                   ...    401
Number of shells                            ...    185
Maximum angular momentum                    ...      3
Integral batch strategy                     ... SHARK/LIBINT Hybrid
RI-J (if used) integral strategy            ... SPLIT-RIJ (Revised 2003 algorithm where possible)
Printlevel                                  ...      1
Contraction scheme used                     ... SEGMENTED contraction
Prescreening option                         ... SCHWARTZ
   Thresh                                   ... 2.500e-11
   Tcut                                     ... 2.500e-12
   Tpresel                                  ... 2.500e-12 
Coulomb Range Separation                    ... NOT USED
Exchange Range Separation                   ... NOT USED
Multipole approximations                    ... NOT USED
Finite Nucleus Model                        ... NOT USED
CABS basis                                  ... NOT available
Auxiliary Coulomb fitting basis             ... AVAILABLE
   # of basis functions in Aux-J            ...   1267
   # of shells in Aux-J                     ...    413
   Maximum angular momentum in Aux-J        ...      4
Auxiliary J/K fitting basis                 ... NOT available
Auxiliary Correlation fitting basis         ... NOT available
Auxiliary 'external' fitting basis          ... NOT available

Checking pre-screening integrals            ... done (  0.1 sec) Dimension = 185
   => SHARK Basis and OBASIS are compatible. Storing Pre-screening
Shell pair information
Shell pair cut-off parameter TPreSel        ...   2.5e-12
Total number of shell pairs                 ...     17205
Shell pairs after pre-screening             ...     13288
Total number of primitive shell pairs       ...     61404
Primitive shell pairs kept                  ...     30748
          la=0 lb=0:   4062 shell pairs
          la=1 lb=0:   4828 shell pairs
          la=1 lb=1:   1489 shell pairs
          la=2 lb=0:   1619 shell pairs
          la=2 lb=1:    972 shell pairs
          la=2 lb=2:    161 shell pairs
          la=3 lb=0:     83 shell pairs
          la=3 lb=1:     53 shell pairs
          la=3 lb=2:     20 shell pairs
          la=3 lb=3:      1 shell pairs

Checking whether 4 symmetric matrices of dimension 401 fit in memory
:Max Core in MB      =   2109.00
 MB in use           =     19.91
 MB left             =   2089.09
 MB needed           =      2.46
 Data fit in memory  = YES
Calculating RI/J V-Matrix + Cholesky decomp.... done (  0.2 sec)
Calculating Nuclear repulsion               ... done (  0.0 sec) ENN=   2042.900892094269 Eh

Diagonalization of the overlap matrix:
Smallest eigenvalue                        ... 5.603e-04
Time for diagonalization                   ...    0.017 sec
Threshold for overlap eigenvalues          ... 1.000e-07
Number of eigenvalues below threshold      ... 0
Time for construction of square roots      ...    0.016 sec
Total time needed                          ...    0.039 sec

-------------------
DFT GRID GENERATION
-------------------

General Integration Accuracy     IntAcc      ... 4.388
Radial Grid Type                 RadialGrid  ... OptM3 with GC (2021)
Angular Grid (max. ang.)         AngularGrid ... 4 (Lebedev-302)
Angular grid pruning method      GridPruning ... 4 (adaptive)
Weight generation scheme         WeightScheme... mBecke (2022)
Basis function cutoff            BFCut       ... 1.0000e-11
Integration weight cutoff        WCut        ... 1.0000e-14
Partially contracted basis set               ... off
Rotationally invariant grid construction     ... off
Angular grids for H and He will be reduced by one unit

Total number of grid points                  ...   185948
Total number of batches                      ...     2925
Average number of points per batch           ...       63
Average number of grid points per atom       ...     4768

--------------------
COSX GRID GENERATION
--------------------

GRIDX 1
-------
General Integration Accuracy     IntAcc      ... 3.816
Radial Grid Type                 RadialGrid  ... OptM3 with GC (2021)
Angular Grid (max. ang.)         AngularGrid ... 1 (Lebedev-50)
Angular grid pruning method      GridPruning ... 4 (adaptive)
Weight generation scheme         WeightScheme... mBecke (2022)
Basis function cutoff            BFCut       ... 1.0000e-11
Integration weight cutoff        WCut        ... 1.0000e-14
Partially contracted basis set               ... on
Rotationally invariant grid construction     ... off
Angular grids for H and He will be reduced by one unit

Total number of grid points                  ...    26924
Total number of batches                      ...      230
Average number of points per batch           ...      117
Average number of grid points per atom       ...      690
UseSFitting                                  ... on

GRIDX 2
-------
General Integration Accuracy     IntAcc      ... 4.020
Radial Grid Type                 RadialGrid  ... OptM3 with GC (2021)
Angular Grid (max. ang.)         AngularGrid ... 2 (Lebedev-110)
Angular grid pruning method      GridPruning ... 4 (adaptive)
Weight generation scheme         WeightScheme... mBecke (2022)
Basis function cutoff            BFCut       ... 1.0000e-11
Integration weight cutoff        WCut        ... 1.0000e-14
Partially contracted basis set               ... on
Rotationally invariant grid construction     ... off
Angular grids for H and He will be reduced by one unit

Total number of grid points                  ...    52770
Total number of batches                      ...      432
Average number of points per batch           ...      122
Average number of grid points per atom       ...     1353
UseSFitting                                  ... on

GRIDX 3
-------
General Integration Accuracy     IntAcc      ... 4.338
Radial Grid Type                 RadialGrid  ... OptM3 with GC (2021)
Angular Grid (max. ang.)         AngularGrid ... 3 (Lebedev-194)
Angular grid pruning method      GridPruning ... 4 (adaptive)
Weight generation scheme         WeightScheme... mBecke (2022)
Basis function cutoff            BFCut       ... 1.0000e-11
Integration weight cutoff        WCut        ... 1.0000e-14
Partially contracted basis set               ... on
Rotationally invariant grid construction     ... off
Angular grids for H and He will be reduced by one unit

Total number of grid points                  ...   109933
Total number of batches                      ...      878
Average number of points per batch           ...      125
Average number of grid points per atom       ...     2819
UseSFitting                                  ... on
Grids setup in   2.8 sec
Initializing property integral containers    ... done (  0.1 sec)

SHARK setup successfully completed in   3.9 seconds

Maximum memory used throughout the entire STARTUP-calculation: 52.2 MB


           ************************************************************
           *        Program running with 64 parallel MPI-processes    *
           *              working on a common directory               *
           ************************************************************
-------------------------------------------------------------------------------
                                 ORCA GUESS
                   Start orbitals & Density for SCF / CASSCF
-------------------------------------------------------------------------------

------------
SCF SETTINGS
------------
Hamiltonian:
 Density Functional     Method          .... DFT(GTOs)
  Functional kind                       .... Exchange
  Functional name                       .... Minnesota MN15 hybrid exchange functional
  Functional family                     .... Hybrid MGGA
  Functional refs                              
    [ 0] H. S. Yu, X. He, S. L. Li, and D. G. Truhlar.,  Chem. Sci. 7, 5032-5051 (2016), doi: 10.1039/C6SC00705H
  Fraction of HF Exchange               .... 0.4400
  Functional external parameters        .... 41
    Parameter  0 _CC000     =  7.385224e-02 : CC000               
    Parameter  1 _CC001     = -8.399762e-01 : CC001               
    Parameter  2 _CC002     = -3.082660e+00 : CC002               
    Parameter  3 _CC003     = -1.028813e+00 : CC003               
    Parameter  4 _CC004     = -8.116973e-01 : CC004               
    Parameter  5 _CC005     = -6.340439e-02 : CC005               
    Parameter  6 _CC010     =  2.548055e+00 : CC010               
    Parameter  7 _CC011     = -5.031579e+00 : CC011               
    Parameter  8 _CC012     =  3.170216e-01 : CC012               
    Parameter  9 _CC013     =  2.981868e+00 : CC013               
    Parameter 10 _CC014     = -7.495037e-01 : CC014               
    Parameter 11 _CC020     =  2.318257e-01 : CC020               
    Parameter 12 _CC021     =  1.261961e+00 : CC021               
    Parameter 13 _CC022     =  1.665921e+00 : CC022               
    Parameter 14 _CC023     =  7.483305e+00 : CC023               
    Parameter 15 _CC030     = -2.544246e+00 : CC030               
    Parameter 16 _CC031     =  1.384720e+00 : CC031               
    Parameter 17 _CC032     =  6.902570e+00 : CC032               
    Parameter 18 _CC100     =  1.657399e+00 : CC100               
    Parameter 19 _CC101     =  2.985267e+00 : CC101               
    Parameter 20 _CC102     =  6.893913e+00 : CC102               
    Parameter 21 _CC103     =  2.489814e+00 : CC103               
    Parameter 22 _CC104     =  1.454725e+00 : CC104               
    Parameter 23 _CC110     = -5.054324e+00 : CC110               
    Parameter 24 _CC111     =  2.352733e+00 : CC111               
    Parameter 25 _CC112     =  1.299104e+00 : CC112               
    Parameter 26 _CC113     =  1.203168e+00 : CC113               
    Parameter 27 _CC120     =  1.215959e-01 : CC120               
    Parameter 28 _CC121     =  8.048348e+00 : CC121               
    Parameter 29 _CC122     =  2.191204e+01 : CC122               
    Parameter 30 _CC200     = -1.852336e+00 : CC200               
    Parameter 31 _CC201     = -3.472274e+00 : CC201               
    Parameter 32 _CC202     = -1.564591e+00 : CC202               
    Parameter 33 _CC203     = -2.295788e+00 : CC203               
    Parameter 34 _CC210     =  3.666483e+00 : CC210               
    Parameter 35 _CC211     =  1.087075e+01 : CC211               
    Parameter 36 _CC212     =  9.696691e+00 : CC212               
    Parameter 37 _CC300     =  6.307011e-01 : CC300               
    Parameter 38 _CC301     = -5.058252e-01 : CC301               
    Parameter 39 _CC302     = -3.562355e+00 : CC302               
    Parameter 40 _ax        =  4.400000e-01 : exact exchange      
  Functional kind                       .... Correlation
  Functional name                       .... Minnesota MN15 correlation functional
  Functional family                     .... MGGA
  Functional refs                              
    [ 0] H. S. Yu, X. He, S. L. Li, and D. G. Truhlar.,  Chem. Sci. 7, 5032-5051 (2016), doi: 10.1039/C6SC00705H
  Functional external parameters        .... 24
    Parameter  0 _a0        =  1.093251e+00 : a0                  
    Parameter  1 _a1        = -2.697350e-01 : a1                  
    Parameter  2 _a2        =  6.368998e+00 : a2                  
    Parameter  3 _a3        = -2.453371e-01 : a3                  
    Parameter  4 _a4        = -1.587103e+00 : a4                  
    Parameter  5 _a5        =  1.246989e-01 : a5                  
    Parameter  6 _a6        =  1.605820e+00 : a6                  
    Parameter  7 _a7        =  4.662060e-01 : a7                  
    Parameter  8 _a8        =  3.484979e+00 : a8                  
    Parameter  9 _a9        =  0.000000e+00 : a9                  
    Parameter 10 _a10       =  0.000000e+00 : a10                 
    Parameter 11 _a11       =  0.000000e+00 : a11                 
    Parameter 12 _b0        =  1.427425e+00 : b0                  
    Parameter 13 _b1        = -3.578837e+00 : b1                  
    Parameter 14 _b2        =  7.398728e+00 : b2                  
    Parameter 15 _b3        =  3.927811e+00 : b3                  
    Parameter 16 _b4        =  2.789805e+00 : b4                  
    Parameter 17 _b5        =  4.988320e+00 : b5                  
    Parameter 18 _b6        =  3.079464e+00 : b6                  
    Parameter 19 _b7        =  3.521637e+00 : b7                  
    Parameter 20 _b8        =  4.769672e+00 : b8                  
    Parameter 21 _b9        =  0.000000e+00 : b9                  
    Parameter 22 _b10       =  0.000000e+00 : b10                 
    Parameter 23 _b11       =  0.000000e+00 : b11                 
 Gradients option       PostSCFGGA      .... off
 Hybrid DFT is turned on
   Fraction HF Exchange ScalHFX         ....  0.440000
   Scaling of DF-GGA-X  ScalDFX         ....  1.000000
   Scaling of DF-GGA-C  ScalDFC         ....  1.000000
   Scaling of DF-LDA-C  ScalLDAC        ....  1.000000
   Perturbative correction              ....  0.000000
 RI-approximation to the Coulomb term is turned on
   Number of AuxJ basis functions       .... 1267
   RIJ-COSX (HFX calculated with COS-X)).... on


General Settings:
 Integral files         IntName         .... /users/s1155246976/scratch/L2_ts1_opt_pka_A/L2_ts1_opt_pka_A
 Hartree-Fock type      HFTyp           .... RHF
 Total Charge           Charge          ....   -1
 Multiplicity           Mult            ....    1
 Number of Electrons    NEL             ....  168
 Basis Dimension        Dim             ....  401
 Nuclear Repulsion      ENuc            ....   2042.9008920943 Eh

Convergence Acceleration:
 AO-DIIS                CNVDIIS         .... on
   Start iteration      DIISMaxIt       ....    12
   Startup error        DIISStart       ....  0.200000
   # of expansion vecs  DIISMaxEq       ....     5
   Bias factor          DIISBfac        ....   1.050
   Max. coefficient     DIISMaxC        ....  10.000
 MO-DIIS                CNVKDIIS        .... off
 Trust-Rad. Augm. Hess. CNVTRAH         .... auto
   Auto Start mean grad. ratio tolernc. ....  1.125000
   Auto Start start iteration           ....    50
   Auto Start num. interpolation iter.  ....    10
   Max. Number of Micro iterations      ....    24
   Max. Number of Macro iterations      .... Maxiter - #DIIS iter
   Number of Davidson start vectors     ....     2
   Converg. threshold    (grad. norm)   ....   1.000e-05
   Grad. Scal. Fac. for Micro threshold ....   0.100
   Minimum threshold for Micro iter.    ....   1.000e-02
   NR start threshold (gradient norm)   ....   1.000e-04
   Initial trust radius                 ....   0.400
   Minimum AH scaling param. (alpha)    ....   1.000
   Maximum AH scaling param. (alpha)    .... 1000.000
   Quad. conv. algorithm                .... NR
   White noise on init. David. guess    .... on
   Maximum white noise                  ....   0.010
   Pseudo random numbers                .... off
   Inactive MOs                         .... canonical
   Orbital update algorithm             .... Taylor
   Preconditioner                       .... Diag
   Full preconditioner red. dimension   ....   250
 SOSCF                 CNVSOSCF           .... on
   Start iteration     SOSCFMaxIt         ....   150
   Startup grad/error  SOSCFStart         ....  0.003300
   Hessian update      SOSCFHessUp        .... L-BFGS
   Autom. constraints  SOSCFAutoConstrain .... off
 Level Shifting         CNVShift        .... on
   Level shift para.    LevelShift      ....    0.2500
   Turn off err/grad.   ShiftErr        ....    0.0010
 Zerner damping         CNVZerner       .... off
 Static damping         CNVDamp         .... on
   Fraction old density DampFac         ....    0.7000
   Max. Damping (<1)    DampMax         ....    0.9800
   Min. Damping (>=0)   DampMin         ....    0.0000
   Turn off err/grad.   DampErr         ....    0.1000

SCF Procedure:
 Maximum # iterations   MaxIter         ....   125
 SCF integral mode      SCFMode         .... Direct
   Integral package                     .... SHARK and LIBINT hybrid scheme
 Reset frequency        DirectResetFreq ....    20
 Integral Threshold     Thresh          ....  2.500e-11 Eh
 Primitive CutOff       TCut            ....  2.500e-12 Eh

Convergence Tolerance:
 Convergence Check Mode ConvCheckMode   .... Total+1el-Energy
 Convergence forced     ConvForced      .... 0
 Energy Change          TolE            ....  1.000e-08 Eh
 1-El. energy change                    ....  1.000e-05 Eh
 Orbital Gradient       TolG            ....  1.000e-05
 Orbital Rotation angle TolX            ....  1.000e-05
 DIIS Error             TolErr          ....  5.000e-07

------------------------------
INITIAL GUESS: MODEL POTENTIAL
------------------------------
Loading Hartree-Fock densities                     ... done
Atomic calculation to generate a density for atom 21 (Pd with ECP)
  Multiplicity assumed   :    3
  Atomic configuration   : 1s2 2s2 2p6 3s2 3p6 4s2 3d10 4p6 5s2 4d8 
  Number of open shells  : 1
  Command: /project/xlzhang/shared/bin/orca_6_1_0/orca /users/s1155246976/scratch/L2_ts1_opt_pka_A/L2_ts1_opt_pka_A_atom46.inp "" > /users/s1155246976/scratch/L2_ts1_opt_pka_A/L2_ts1_opt_pka_A_atom46.out
Returned from the atomic calculation with res=0
Calculating cut-offs                               ... done
Initializing the effective Hamiltonian             ... done
Setting up the integral package (SHARK)            ... done
Starting the Coulomb interaction                   ... done (   0.1 sec)
Making the grid                                    ... done (   0.9 sec)
Mapping shells                                     ... done
Starting the XC term evaluation                    ... done (   0.1 sec)
  promolecular density results
     # of electrons  =    194.990634242
     EX              =   -262.829699022
     EC              =     -7.474970550
     EX+EC           =   -270.304669572
Transforming the Hamiltonian                       ... done (   0.0 sec)
Diagonalizing the Hamiltonian                      ... done (   0.0 sec)
Back transforming the eigenvectors                 ... done (   0.0 sec)
Now organizing SCF variables                       ... done
                      ------------------
                      INITIAL GUESS DONE (   3.3 sec)
                      ------------------
             **** ENERGY FILE WAS UPDATED (/users/s1155246976/scratch/L2_ts1_opt_pka_A/L2_ts1_opt_pka_A.en.tmp) ****
Finished Guess after   6.3 sec
Maximum memory used throughout the entire GUESS-calculation: 25.4 MB


           ************************************************************
           *        Program running with 64 parallel MPI-processes    *
           *              working on a common directory               *
           ************************************************************

-------------------------------------------------------------------------------------------
                                      ORCA LEAN-SCF
                              memory conserving SCF solver
-------------------------------------------------------------------------------------------

----------------------------------------D-I-I-S--------------------------------------------
Iteration    Energy (Eh)           Delta-E    RMSDP     MaxDP     DIISErr   Damp  Time(sec)
-------------------------------------------------------------------------------------------
               ***  Starting incremental Fock matrix formation  ***
    1    -1100.2523654879191781     0.00e+00  2.65e-02  2.39e-01  4.82e-01  0.700   3.6
Warning: op=0 Small HOMO/LUMO gap (   0.095) - skipping pre-diagonalization
         Will do a full diagonalization
    2    -1100.5796612111626018    -3.27e-01  1.75e-02  1.63e-01  3.18e-01  0.700   2.9
    3    -1100.7143365275487668    -1.35e-01  8.17e-03  6.68e-02  2.12e-01  0.700   1.2
                               ***Turning on AO-DIIS***
    4    -1100.7922809075653277    -7.79e-02  3.59e-03  1.54e-02  1.45e-01  0.700   1.5
    5    -1100.8475655057054610    -5.53e-02  2.26e-03  1.19e-02  1.02e-01  0.700   1.2
    6    -1100.8859732426485607    -3.84e-02  1.59e-03  8.64e-03  7.15e-02  0.700   1.5
    7    -1100.9128541676645909    -2.69e-02  3.88e-03  2.09e-02  5.02e-02  0.000   0.9
                              *** Initializing SOSCF ***
---------------------------------------S-O-S-C-F--------------------------------------
Iteration    Energy (Eh)           Delta-E    RMSDP     MaxDP     MaxGrad    Time(sec)
--------------------------------------------------------------------------------------
    8    -1100.9757233784653181    -6.29e-02  3.23e-04  1.04e-03  8.25e-04     1.4
               *** Restarting incremental Fock matrix formation ***
    9    -1100.9756603637997614     6.30e-05  3.96e-04  1.54e-03  4.40e-04     1.1
   10    -1100.9756735244186530    -1.32e-05  2.84e-04  1.09e-03  1.14e-04     1.8
   11    -1100.9756746167281563    -1.09e-06  1.27e-04  8.38e-04  1.44e-04     1.2
   12    -1100.9756763637328731    -1.75e-06  7.01e-05  2.56e-04  8.75e-05     1.1
   13    -1100.9756764495596144    -8.58e-08  3.71e-05  1.23e-04  4.82e-05     1.1
   14    -1100.9756766831014829    -2.34e-07  1.54e-05  1.59e-04  1.53e-05     1.3
   15    -1100.9756766720502128     1.11e-08  9.87e-06  1.10e-04  1.91e-05     1.3
   16    -1100.9756767014723664    -2.94e-08  6.51e-06  3.81e-05  7.19e-06     1.0
   17    -1100.9756767281369321    -2.67e-08  4.19e-06  2.73e-05  1.01e-05     0.8
   18    -1100.9756767075705284     2.06e-08  1.29e-06  5.45e-06  8.75e-07     0.7
                  *** Gradient check signals convergence ***

               *****************************************************
               *                     SUCCESS                       *
               *           SCF CONVERGED AFTER  18 CYCLES          *
               *****************************************************

Recomputing exchange energy using gridx3       ... done (    0.896 sec)
Old exchange energy                            :    -60.902658612 Eh
New exchange energy                            :    -60.902593560 Eh
Exchange energy change after final integration :      0.000065053 Eh
Total energy after final integration           :  -1100.975611652 Eh
             **** ENERGY FILE WAS UPDATED (/users/s1155246976/scratch/L2_ts1_opt_pka_A/L2_ts1_opt_pka_A.en.tmp) ****

----------------
TOTAL SCF ENERGY
----------------

Total Energy       :      -1100.97561165248430 Eh          -29959.06948 eV

Components:
Nuclear Repulsion  :       2042.90089209426924 Eh           55590.15942 eV
Electronic Energy  :      -3143.87656879935093 Eh          -85549.23068 eV
One Electron Energy:      -5641.19691715623685 Eh         -153504.77215 eV
Two Electron Energy:       2497.32034835688592 Eh           67955.54147 eV

Virial components:
Potential Energy   :      -2111.21612331895813 Eh          -57449.11137 eV
Kinetic Energy     :       1010.24051166647405 Eh           27490.04189 eV
Virial Ratio       :          2.08981534489875

DFT components:
N(Alpha)           :       84.000025855086 electrons
N(Beta)            :       84.000025855086 electrons
N(Total)           :      168.000051710172 electrons
E(X)               :      -78.074598859928 Eh       
E(C)               :       -4.936632156868 Eh       
E(XC)              :      -83.011231016796 Eh       

---------------
SCF CONVERGENCE
---------------

  Last Energy change         ...   -2.0566e-08  Tolerance :   1.0000e-08
  Last MAX-Density change    ...    5.4467e-06  Tolerance :   1.0000e-07
  Last RMS-Density change    ...    1.2874e-06  Tolerance :   5.0000e-09
  Last DIIS Error            ...    8.2506e-04  Tolerance :   5.0000e-07
  Last Orbital Gradient      ...    8.7502e-07  Tolerance :   1.0000e-05
  Last Orbital Rotation      ...    2.8883e-06  Tolerance :   1.0000e-05


----------------
ORBITAL ENERGIES
----------------

  NO   OCC          E(Eh)            E(eV) 
   0   2.0000     -18.799301      -511.5550 
   1   2.0000     -18.735041      -509.8064 
   2   2.0000     -18.639275      -507.2004 
   3   2.0000     -18.607897      -506.3466 
   4   2.0000     -18.594786      -505.9899 
   5   2.0000     -13.993595      -380.7851 
   6   2.0000     -10.111372      -275.1444 
   7   2.0000      -9.998351      -272.0690 
   8   2.0000      -9.994230      -271.9568 
   9   2.0000      -9.992611      -271.9128 
  10   2.0000      -9.991184      -271.8739 
  11   2.0000      -9.970954      -271.3234 
  12   2.0000      -9.957910      -270.9685 
  13   2.0000      -9.954220      -270.8681 
  14   2.0000      -9.937251      -270.4064 
  15   2.0000      -9.932317      -270.2721 
  16   2.0000      -9.910161      -269.6692 
  17   2.0000      -9.908264      -269.6176 
  18   2.0000      -9.901729      -269.4397 
  19   2.0000      -9.898265      -269.3455 
  20   2.0000      -3.249634       -88.4270 
  21   2.0000      -1.985071       -54.0165 
  22   2.0000      -1.978069       -53.8260 
  23   2.0000      -1.951673       -53.1077 
  24   2.0000      -1.078167       -29.3384 
  25   2.0000      -0.972540       -26.4642 
  26   2.0000      -0.915936       -24.9239 
  27   2.0000      -0.887699       -24.1555 
  28   2.0000      -0.825972       -22.4758 
  29   2.0000      -0.810195       -22.0465 
  30   2.0000      -0.767389       -20.8817 
  31   2.0000      -0.722327       -19.6555 
  32   2.0000      -0.682438       -18.5701 
  33   2.0000      -0.652132       -17.7454 
  34   2.0000      -0.647087       -17.6081 
  35   2.0000      -0.628592       -17.1049 
  36   2.0000      -0.617893       -16.8137 
  37   2.0000      -0.575650       -15.6642 
  38   2.0000      -0.538589       -14.6558 
  39   2.0000      -0.536214       -14.5911 
  40   2.0000      -0.506667       -13.7871 
  41   2.0000      -0.475942       -12.9510 
  42   2.0000      -0.452003       -12.2996 
  43   2.0000      -0.447646       -12.1811 
  44   2.0000      -0.444018       -12.0824 
  45   2.0000      -0.436503       -11.8778 
  46   2.0000      -0.409704       -11.1486 
  47   2.0000      -0.408638       -11.1196 
  48   2.0000      -0.399392       -10.8680 
  49   2.0000      -0.391133       -10.6433 
  50   2.0000      -0.377408       -10.2698 
  51   2.0000      -0.369714       -10.0604 
  52   2.0000      -0.362071        -9.8525 
  53   2.0000      -0.356505        -9.7010 
  54   2.0000      -0.346554        -9.4302 
  55   2.0000      -0.343261        -9.3406 
  56   2.0000      -0.331253        -9.0138 
  57   2.0000      -0.324857        -8.8398 
  58   2.0000      -0.319159        -8.6848 
  59   2.0000      -0.316936        -8.6243 
  60   2.0000      -0.312641        -8.5074 
  61   2.0000      -0.309748        -8.4287 
  62   2.0000      -0.304804        -8.2941 
  63   2.0000      -0.299403        -8.1472 
  64   2.0000      -0.285647        -7.7728 
  65   2.0000      -0.267112        -7.2685 
  66   2.0000      -0.265160        -7.2154 
  67   2.0000      -0.254366        -6.9216 
  68   2.0000      -0.248758        -6.7691 
  69   2.0000      -0.240196        -6.5361 
  70   2.0000      -0.232709        -6.3323 
  71   2.0000      -0.227806        -6.1989 
  72   2.0000      -0.222163        -6.0454 
  73   2.0000      -0.204660        -5.5691 
  74   2.0000      -0.183512        -4.9936 
  75   2.0000      -0.180269        -4.9054 
  76   2.0000      -0.158265        -4.3066 
  77   2.0000      -0.154325        -4.1994 
  78   2.0000      -0.147851        -4.0232 
  79   2.0000      -0.130706        -3.5567 
  80   2.0000      -0.122172        -3.3245 
  81   2.0000      -0.119688        -3.2569 
  82   2.0000      -0.094048        -2.5592 
  83   2.0000      -0.084420        -2.2972 
  84   0.0000       0.096749         2.6327 
  85   0.0000       0.102051         2.7769 
  86   0.0000       0.144257         3.9254 
  87   0.0000       0.157853         4.2954 
  88   0.0000       0.165091         4.4924 
  89   0.0000       0.191681         5.2159 
  90   0.0000       0.198248         5.3946 
  91   0.0000       0.215473         5.8633 
  92   0.0000       0.219551         5.9743 
  93   0.0000       0.234013         6.3678 
  94   0.0000       0.234960         6.3936 
*Only the first 10 virtual orbitals were printed.

                    ********************************
                    * MULLIKEN POPULATION ANALYSIS *
                    ********************************

-----------------------
MULLIKEN ATOMIC CHARGES
-----------------------
   0 C :   -0.446242
   1 C :    0.189076
   2 H :   -0.001811
   3 H :    0.058666
   4 C :    0.232485
   5 O :   -0.203211
   6 O :   -0.373922
   7 O :   -0.134267
   8 H :    0.211903
[...]
 72:   1232.68   0.000096    0.48  0.000024  ( 0.001830 -0.003799 -0.002539)
 73:   1258.16   0.002351   11.88  0.000583  ( 0.009595 -0.021886 -0.003475)
 74:   1261.46   0.019535   98.72  0.004833  (-0.012715  0.066662 -0.015072)
 75:   1268.82   0.009721   49.13  0.002391  ( 0.017418  0.045637 -0.002198)
 76:   1306.79   0.015130   76.46  0.003613  (-0.036132  0.047976  0.002421)
 77:   1330.07   0.002326   11.76  0.000546  ( 0.018592 -0.000865 -0.014120)
 78:   1341.83   0.017207   86.96  0.004002  ( 0.047951  0.036707 -0.018842)
 79:   1347.10   0.001315    6.65  0.000305  (-0.008017  0.002615  0.015284)
 80:   1362.96   0.001009    5.10  0.000231  ( 0.000678 -0.003200 -0.014839)
 81:   1381.35   0.016840   85.10  0.003804  ( 0.060682  0.000601 -0.011035)
 82:   1383.34   0.032873  166.13  0.007416  ( 0.071219  0.027642 -0.039744)
 83:   1405.35   0.000147    0.74  0.000033  ( 0.003401  0.002911  0.003559)
 84:   1409.72   0.007568   38.24  0.001675  (-0.039905  0.003608  0.008353)
 85:   1414.62   0.000492    2.49  0.000109  (-0.003642 -0.005878 -0.007792)
 86:   1417.19   0.002692   13.61  0.000593  (-0.017065  0.008097  0.015365)
 87:   1424.77   0.000627    3.17  0.000137  ( 0.010050 -0.005485 -0.002494)
 88:   1429.45   0.000601    3.03  0.000131  ( 0.010548  0.003812  0.002304)
 89:   1434.89   0.001423    7.19  0.000309  ( 0.014155  0.000923 -0.010403)
 90:   1440.04   0.001857    9.39  0.000402  (-0.016449 -0.011462 -0.000701)
 91:   1450.96   0.002330   11.78  0.000501  (-0.019389 -0.005468 -0.009762)
 92:   1458.01   0.010729   54.22  0.002296  ( 0.039285  0.024424 -0.012510)
 93:   1462.46   0.016104   81.38  0.003436  ( 0.033445  0.047972  0.004048)
 94:   1607.67   0.038674  195.44  0.007507  ( 0.011669 -0.081146  0.028040)
 95:   1666.71   0.003038   15.35  0.000569  ( 0.004659  0.019555 -0.012831)
 96:   1744.08   0.027221  137.57  0.004871  ( 0.009110 -0.021397  0.065802)
 97:   1762.62   0.106518  538.30  0.018858  ( 0.126570 -0.027421  0.045679)
 98:   1850.24   0.141045  712.78  0.023789  (-0.075414 -0.129305  0.037170)
 99:   2998.23   0.015761   79.65  0.001640  (-0.020791  0.010595  0.033105)
100:   3050.13   0.006493   32.81  0.000664  (-0.013631  0.002027 -0.021781)
101:   3058.02   0.005754   29.08  0.000587  (-0.020310 -0.006320  0.011608)
102:   3062.43   0.014203   71.78  0.001447  (-0.037881  0.003347  0.001046)
103:   3066.59   0.003202   16.18  0.000326  ( 0.015283 -0.005730 -0.007707)
104:   3068.77   0.006265   31.66  0.000637  ( 0.015947 -0.003247  0.019294)
105:   3116.52   0.004919   24.86  0.000493  ( 0.007619  0.003748 -0.020505)
106:   3142.47   0.000957    4.84  0.000095  ( 0.004185 -0.008333  0.002850)
107:   3156.41   0.007958   40.22  0.000787  ( 0.017019  0.022295 -0.000259)
108:   3160.11   0.003230   16.32  0.000319  ( 0.004316  0.017043  0.003146)
109:   3168.75   0.004415   22.31  0.000435  ( 0.013760  0.015175  0.003889)
110:   3177.61   0.002604   13.16  0.000256  ( 0.002112 -0.003791  0.015393)
111:   3178.66   0.003332   16.84  0.000327  (-0.012110  0.011643  0.006703)
112:   3184.77   0.002394   12.10  0.000235  ( 0.005938 -0.013875  0.002615)
113:   3191.52   0.008498   42.94  0.000831  (-0.020419 -0.020230  0.002171)
114:   3239.91   0.004866   24.59  0.000469  (-0.000135  0.020874 -0.005737)
115:   3264.00   0.002131   10.77  0.000204  (-0.014190  0.000185 -0.001527)
116:   3395.83   0.076656  387.39  0.007044  ( 0.078022  0.030088  0.007190)

* The epsilon (eps) is given for a Dirac delta lineshape.
** The dipole moment derivative (T) already includes vibrational overlap.

The first frequency considered to be a vibration is 6
The total number of vibrations considered is 111


--------------------------
THERMOCHEMISTRY AT 298.15K
--------------------------

Temperature         ...   298.15 K
Pressure            ...     1.00 atm
Total Mass          ...   386.70 AMU
Quasi RRHO          ...     True
Cut-Off Frequency   ...     1.00 cm^-1

Throughout the following assumptions are being made:
  (1) The electronic state is orbitally nondegenerate
  (2) There are no thermally accessible electronically excited states
  (3) Hindered rotations indicated by low frequency modes are not
      treated as such but are treated as vibrations and this may
      cause some error
  (4) All equations used are the standard statistical mechanics
      equations for an ideal gas
  (5) All vibrations are strictly harmonic

freq.      31.54  E(vib)   ...       0.55 
freq.      51.04  E(vib)   ...       0.52 
freq.      59.66  E(vib)   ...       0.51 
freq.      88.30  E(vib)   ...       0.48 
freq.      93.05  E(vib)   ...       0.47 
freq.     108.19  E(vib)   ...       0.45 
freq.     135.05  E(vib)   ...       0.42 
freq.     141.90  E(vib)   ...       0.41 
freq.     154.42  E(vib)   ...       0.40 
freq.     162.54  E(vib)   ...       0.39 
freq.     191.18  E(vib)   ...       0.36 
freq.     199.12  E(vib)   ...       0.35 
freq.     207.04  E(vib)   ...       0.35 
freq.     217.80  E(vib)   ...       0.33 
freq.     225.54  E(vib)   ...       0.33 
freq.     243.40  E(vib)   ...       0.31 
freq.     247.37  E(vib)   ...       0.31 
freq.     277.48  E(vib)   ...       0.28 
freq.     279.46  E(vib)   ...       0.28 
freq.     291.08  E(vib)   ...       0.27 
freq.     302.16  E(vib)   ...       0.26 
freq.     316.13  E(vib)   ...       0.25 
freq.     319.23  E(vib)   ...       0.25 
freq.     337.73  E(vib)   ...       0.24 
freq.     373.38  E(vib)   ...       0.21 
freq.     386.93  E(vib)   ...       0.20 
freq.     405.58  E(vib)   ...       0.19 
freq.     462.29  E(vib)   ...       0.16 
freq.     477.92  E(vib)   ...       0.15 
freq.     499.01  E(vib)   ...       0.14 
freq.     533.45  E(vib)   ...       0.13 
freq.     539.21  E(vib)   ...       0.12 
freq.     561.37  E(vib)   ...       0.11 
freq.     582.68  E(vib)   ...       0.11 
freq.     631.56  E(vib)   ...       0.09 
freq.     637.12  E(vib)   ...       0.09 
freq.     663.88  E(vib)   ...       0.08 
freq.     695.23  E(vib)   ...       0.07 
freq.     719.79  E(vib)   ...       0.07 
freq.     733.07  E(vib)   ...       0.06 
freq.     741.69  E(vib)   ...       0.06 
freq.     755.85  E(vib)   ...       0.06 
freq.     764.05  E(vib)   ...       0.06 
freq.     801.55  E(vib)   ...       0.05 
freq.     838.61  E(vib)   ...       0.04 
freq.     863.35  E(vib)   ...       0.04 
freq.     900.00  E(vib)   ...       0.03 
freq.     918.05  E(vib)   ...       0.03 
freq.     926.13  E(vib)   ...       0.03 
freq.     938.82  E(vib)   ...       0.03 
freq.     960.99  E(vib)   ...       0.03 
freq.     985.00  E(vib)   ...       0.02 
freq.     985.91  E(vib)   ...       0.02 
freq.     996.62  E(vib)   ...       0.02 
freq.    1001.00  E(vib)   ...       0.02 
freq.    1010.57  E(vib)   ...       0.02 
freq.    1022.29  E(vib)   ...       0.02 
freq.    1080.58  E(vib)   ...       0.02 
freq.    1084.06  E(vib)   ...       0.02 
freq.    1103.62  E(vib)   ...       0.02 
freq.    1124.84  E(vib)   ...       0.01 
freq.    1135.54  E(vib)   ...       0.01 
freq.    1151.62  E(vib)   ...       0.01 
freq.    1191.87  E(vib)   ...       0.01 
freq.    1194.93  E(vib)   ...       0.01 
freq.    1201.64  E(vib)   ...       0.01 
freq.    1232.68  E(vib)   ...       0.01 
freq.    1258.16  E(vib)   ...       0.01 
freq.    1261.46  E(vib)   ...       0.01 
freq.    1268.82  E(vib)   ...       0.01 
freq.    1306.79  E(vib)   ...       0.01 
freq.    1330.07  E(vib)   ...       0.01 
freq.    1341.83  E(vib)   ...       0.01 
freq.    1347.10  E(vib)   ...       0.01 
freq.    1362.96  E(vib)   ...       0.01 
freq.    1381.35  E(vib)   ...       0.01 
freq.    1383.34  E(vib)   ...       0.00 
freq.    1405.35  E(vib)   ...       0.00 
freq.    1409.72  E(vib)   ...       0.00 
freq.    1414.62  E(vib)   ...       0.00 
freq.    1417.19  E(vib)   ...       0.00 
freq.    1424.77  E(vib)   ...       0.00 
freq.    1429.45  E(vib)   ...       0.00 
freq.    1434.89  E(vib)   ...       0.00 
freq.    1440.04  E(vib)   ...       0.00 
freq.    1450.96  E(vib)   ...       0.00 
freq.    1458.01  E(vib)   ...       0.00 
freq.    1462.46  E(vib)   ...       0.00 
freq.    1607.67  E(vib)   ...       0.00 
freq.    1666.71  E(vib)   ...       0.00 
freq.    1744.08  E(vib)   ...       0.00 
freq.    1762.62  E(vib)   ...       0.00 
freq.    1850.24  E(vib)   ...       0.00 
freq.    2998.23  E(vib)   ...       0.00 
freq.    3050.13  E(vib)   ...       0.00 
freq.    3058.02  E(vib)   ...       0.00 
freq.    3062.43  E(vib)   ...       0.00 
freq.    3066.59  E(vib)   ...       0.00 
freq.    3068.77  E(vib)   ...       0.00 
freq.    3116.52  E(vib)   ...       0.00 
freq.    3142.47  E(vib)   ...       0.00 
freq.    3156.41  E(vib)   ...       0.00 
freq.    3160.11  E(vib)   ...       0.00 
freq.    3168.75  E(vib)   ...       0.00 
freq.    3177.61  E(vib)   ...       0.00 
freq.    3178.66  E(vib)   ...       0.00 
freq.    3184.77  E(vib)   ...       0.00 
freq.    3191.52  E(vib)   ...       0.00 
freq.    3239.91  E(vib)   ...       0.00 
freq.    3264.00  E(vib)   ...       0.00 
freq.    3395.83  E(vib)   ...       0.00 

------------
INNER ENERGY
------------

The inner energy is: U= E(el) + E(ZPE) + E(vib) + E(rot) + E(trans)
    E(el)   - is the total energy from the electronic structure calculation
              = E(kin-el) + E(nuc-el) + E(el-el) + E(nuc-nuc)
    E(ZPE)  - the the zero temperature vibrational energy from the frequency calculation
    E(vib)  - the the finite temperature correction to E(ZPE) due to population
              of excited vibrational states
    E(rot)  - is the rotational thermal energy
    E(trans)- is the translational thermal energy

Summary of contributions to the inner energy U:
Electronic energy                ...  -1101.07576107 Eh
Zero point energy                ...      0.30708821 Eh     192.70 kcal/mol
Thermal vibrational correction   ...      0.01848271 Eh      11.60 kcal/mol
Thermal rotational correction    ...      0.00141627 Eh       0.89 kcal/mol
Thermal translational correction ...      0.00141627 Eh       0.89 kcal/mol
-----------------------------------------------------------------------
Total thermal energy                  -1100.74735761 Eh


Summary of corrections to the electronic energy:
(perhaps to be used in another calculation)
Total thermal correction                  0.02131525 Eh      13.38 kcal/mol
Non-thermal (ZPE) correction              0.30708821 Eh     192.70 kcal/mol
-----------------------------------------------------------------------
Total correction                          0.32840346 Eh     206.08 kcal/mol


--------
ENTHALPY
--------

The enthalpy is H = U + kB*T
                kB is Boltzmann's constant
Total thermal energy              ...  -1100.74735761 Eh 
Thermal Enthalpy correction       ...      0.00094421 Eh       0.59 kcal/mol
-----------------------------------------------------------------------
Total Enthalpy                    ...  -1100.74641340 Eh


Note: Only C1 symmetry has been detected, increase convergence thresholds 
      if your molecule has a higher symmetry. Symmetry factor of 1.0 is   
      used for the rotational entropy correction. 
 

Note: Rotational entropy computed according to Herzberg 
Infrared and Raman Spectra, Chapter V,1, Van Nostrand Reinhold, 1945 
Point Group:  C1, Symmetry Number:   1  
Rotational constants in cm-1:     0.013453     0.009098     0.006228 

Vibrational entropy computed according to the QRRHO of S. Grimme
Chem.Eur.J. 2012 18 9955 using a reference frequency of 100.0 cm-1


-------
ENTROPY
-------

The entropy contributions are T*S = T*(S(el)+S(vib)+S(rot)+S(trans))
     S(el)   - electronic entropy
     S(vib)  - vibrational entropy
     S(rot)  - rotational entropy
     S(trans)- translational entropy
The entropies will be listed as multiplied by the temperature to get
units of energy

Electronic entropy                ...      0.00000000 Eh      0.00 kcal/mol
Vibrational entropy               ...      0.03219793 Eh     20.20 kcal/mol
Rotational entropy                ...      0.01616113 Eh     10.14 kcal/mol
Translational entropy             ...      0.02078672 Eh     13.04 kcal/mol
-----------------------------------------------------------------------
Final entropy term                ...      0.06914577 Eh     43.39 kcal/mol

In case the symmetry of your molecule has not been determined correctly
or in case you have a reason to use a different symmetry number we print 
out the resulting rotational entropy values for sn=1,12:

 non-linear molecules -----------------------------------
|  sn= 1 | S(rot)=       0.01616113 Eh     10.14 kcal/mol|
|  sn= 2 | S(rot)=       0.01550667 Eh      9.73 kcal/mol|
|  sn= 3 | S(rot)=       0.01512384 Eh      9.49 kcal/mol|
|  sn= 4 | S(rot)=       0.01485221 Eh      9.32 kcal/mol|
|  sn= 5 | S(rot)=       0.01464152 Eh      9.19 kcal/mol|
|  sn= 6 | S(rot)=       0.01446938 Eh      9.08 kcal/mol|
|  sn= 7 | S(rot)=       0.01432383 Eh      8.99 kcal/mol|
|  sn= 8 | S(rot)=       0.01419776 Eh      8.91 kcal/mol|
|  sn= 9 | S(rot)=       0.01408655 Eh      8.84 kcal/mol|
|  sn=10 | S(rot)=       0.01398707 Eh      8.78 kcal/mol|
|  sn=11 | S(rot)=       0.01389708 Eh      8.72 kcal/mol|
|  sn=12 | S(rot)=       0.01381492 Eh      8.67 kcal/mol|
 linear molecules ---------------------------------------
|  Dinfh | S(rot)=       0.01012099 Eh      6.35 kcal/mol|
|  Cinfv | S(rot)=       0.01077545 Eh      6.76 kcal/mol|
 --------------------------------------------------------


-------------------
GIBBS FREE ENERGY
-------------------

The Gibbs free energy is G = H - T*S

Total enthalpy                    ...  -1100.74641340 Eh 
Total entropy correction          ...     -0.06914577 Eh    -43.39 kcal/mol
-----------------------------------------------------------------------
Final Gibbs free energy         ...  -1100.81555917 Eh

For completeness - the Gibbs free energy minus the electronic energy
G-E(el)                           ...      0.26020190 Eh    163.28 kcal/mol


Maximum memory used throughout the entire PROP-calculation: 236.3 MB

--------------------------------
SUGGESTED CITATIONS FOR THIS RUN
--------------------------------

Below you find a list of papers that are relevant to this ORCA run
We neither can nor want to force you to cite these papers, but we appreciate if you do
You receive ORCA, which is the product of decades of hard work by many enthusiastic individuals, for free
The only thing we kindly ask in return is that you cite our papers,
We deeply appreciate it, if you show your appreciation for ORCA by not just citing the generic ORCA reference.

Please note that relegating all ORCA citations to the supporting information does *not* help us.
SI sections are not indexed - citations you put there will not count into any citation statistics
But we need these citations in order to attract the funding resources that allow us to do what we are doing

Therefore, if you are a happy ORCA user, please consider citing a few of the papers listed below in the main body of your paper

In addition to the list printed below, the program has created the file /users/s1155246976/scratch/L2_ts1_opt_pka_A/L2_ts1_opt_pka_A.bibtex that contains the list in bibtex format
You can import this file easily into all common literature databanks and citation aid programs


List of essential papers. We consider these as the minimum necessary citations

  1. Neese, F.
     Software update: the ORCA program system, version 6.0
     WIRES Comput. Molec. Sci. 2025 15(1), e70019
     doi.org/10.1002/wcms.7019

List of papers to cite with high priority. The work reported in these papers was absolutely
necessary for this run to complete.
Our perspective: the developers of density functionals and basis sets usually get cited in chemistry papers
Good! But without the algorithms to do something with them, the functionals or basis sets would not do anything.
Hence, in our opinion, the algorithm design and method developments papers are equally worthy of getting cited

  1. Neese, F.
     An improvement of the resolution of the identity approximation for the formation of the Coulomb matrix
     J. Comp. Chem. 2003 24(14), 1740-1747
     doi.org/10.1002/jcc.10318
  2. Neese, F.; Wennmohs, F.; Hansen, A.; Becker, U.
     Efficient, approximate and parallel Hartree-Fock and hybrid DFT calculations. A 'chain-of-spheres' algorithm for the Hartree-Fock exchange
     Chem. Phys. 2009 356(1-3), 98-109
     doi.org/10.1016/j.chemphys.2008.10.036
  3. Bykov, D.; Petrenko, T.; Izsak, R.; Kossmann, S.; Becker, U.; Valeev, E.; Neese, F.
     Efficient implementation of the analytic second derivatives of Hartree-Fock and hybrid DFT energies: a detailed analysis of different approximations
     Molec. Phys. 2015 113 , 1961-1977
     doi.org/10.1080/00268976.2015.1025114
  4. Lehtola, S.; Steigemann, C.; Oliveira, M.; Marques, M.
     Recent developments in Libxc - A comprehensive library of functionals for density functional theory
     Software X 2018 7 , 
     doi.org/10.1016/j.softx.2017.11.002
  5. Helmich-Paris, B.; de Souza, B.; Neese, F.; Izsák, R.
     An improved chain of spheres for exchange algorithm
     J. Chem. Phys. 2021 155(10), 104109
     doi.org/10.1063/5.0058766
  6. Neese, F.
     The SHARK Integral Generation and Digestion System
     J. Comp. Chem. 2022 44(3), 381
     doi.org/10.1002/jcc.26942

List of suggested additional citations. These are papers that are important in the 'surrounding' of 
of this run, or papers that preceded the highly important papers. If you like your results we are grateful for a citation.

  1. Izsak, R.; Neese, F.
     An overlap fitted chain of spheres exchange method
     J. Chem. Phys. 2011 135 , 144105
     doi.org/10.1063/1.3646921
  2. Izsak, R.; Hansen, A.; Neese, F.
     The resolution of identity and chain of spheres approximations for the LPNO-CCSD singles Fock term
     Molec. Phys. 2012 110 , 2413-2417
     doi.org/10.1080/00268976.2012.687466
  3. Neese, F.
     The ORCA program system
     WIRES Comput. Molec. Sci. 2012 2(1), 73-78
     doi.org/10.1002/wcms.81
  4. Izsak, R.; Neese, F.; Klopper, W.
     Robust fitting techniques in the chain of spheres approximation to the Fock exchange: The role of the complementary space
     J. Chem. Phys. 2013 139 , 
     doi.org/10.1063/1.4819264
  5. Neese, F.
     Software update: the ORCA program system, version 4.0
     WIRES Comput. Molec. Sci. 2018 8(1), 1-6
     doi.org/10.1002/wcms.1327
  6. Neese, F.; Wennmohs, F.; Becker, U.; Riplinger, C.
     The ORCA quantum chemistry program package
     J. Chem. Phys. 2020 152(22), 224108
     doi.org/10.1063/5.0004608
  7. Neese, F.
     Software update: The ORCA program system—Version 5.0
     WIRES Comput. Molec. Sci. 2022 12(1), e1606
     doi.org/10.1002/wcms.1606

List of optional additional citations

  1. Neese, F.
     Approximate second-order SCF convergence for spin unrestricted wavefunctions
     Chem. Phys. Lett. 2000 325(1-3), 93-98
     doi.org/10.1016/s0009-2614(00)00662-x

Timings for individual modules:

Sum of individual times          ...     1848.113 sec (=  30.802 min)
Startup calculation              ...      195.102 sec (=   3.252 min)  10.6 %
SCF iterations                   ...      852.508 sec (=  14.208 min)  46.1 %
Property integrals               ...      221.645 sec (=   3.694 min)  12.0 %
SCF Response                     ...      247.892 sec (=   4.132 min)  13.4 %
Property calculations            ...       64.593 sec (=   1.077 min)   3.5 %
SCF Gradient evaluation          ...      265.439 sec (=   4.424 min)  14.4 %
Geometry relaxation              ...        0.934 sec (=   0.016 min)   0.1 %
                             ****ORCA TERMINATED NORMALLY****
TOTAL RUN TIME: 0 days 0 hours 32 minutes 7 seconds 716 msec
