
                                 *****************
                                 * O   R   C   A *
                                 *****************

                                            #,                                       
                                            ###                                      
                                            ####                                     
                                            #####                                    
                                            ######                                   
                                           ########,                                 
                                     ,,################,,,,,                         
                               ,,#################################,,                 
                          ,,##########################################,,             
                       ,#########################################, ''#####,          
                    ,#############################################,,   '####,        
                  ,##################################################,,,,####,       
                ,###########''''           ''''###############################       
              ,#####''   ,,,,##########,,,,          '''####'''          '####       
            ,##' ,,,,###########################,,,                        '##       
           ' ,,###''''                  '''############,,,                           
         ,,##''                                '''############,,,,        ,,,,,,###''
      ,#''                                            '''#######################'''  
     '                                                          ''''####''''         
             ,#######,   #######,   ,#######,      ##                                
            ,#'     '#,  ##    ##  ,#'     '#,    #''#        ######   ,####,        
            ##       ##  ##   ,#'  ##            #'  '#       #        #'  '#        
            ##       ##  #######   ##           ,######,      #####,   #    #        
            '#,     ,#'  ##    ##  '#,     ,#' ,#      #,         ##   #,  ,#        
             '#######'   ##     ##  '#######'  #'      '#     #####' # '####'        



                  #######################################################
                  #                        -***-                        #
                  #          Department of theory and spectroscopy      #
                  #    Directorship and core code : Frank Neese         #
                  #        Max Planck Institute fuer Kohlenforschung    #
                  #                Kaiser Wilhelm Platz 1               #
                  #                 D-45470 Muelheim/Ruhr               #
                  #                      Germany                        #
                  #                                                     #
                  #                  All rights reserved                #
                  #                        -***-                        #
                  #######################################################


                         Program Version 5.0.4 -  RELEASE  -


 With contributions from (in alphabetic order):
   Daniel Aravena         : Magnetic Suceptibility
   Michael Atanasov       : Ab Initio Ligand Field Theory (pilot matlab implementation)
   Alexander A. Auer      : GIAO ZORA, VPT2 properties, NMR spectrum
   Ute Becker             : Parallelization
   Giovanni Bistoni       : ED, misc. LED, open-shell LED, HFLD
   Martin Brehm           : Molecular dynamics
   Dmytro Bykov           : SCF Hessian
   Vijay G. Chilkuri      : MRCI spin determinant printing, contributions to CSF-ICE
   Dipayan Datta          : RHF DLPNO-CCSD density
   Achintya Kumar Dutta   : EOM-CC, STEOM-CC
   Dmitry Ganyushin       : Spin-Orbit,Spin-Spin,Magnetic field MRCI
   Miquel Garcia          : C-PCM and meta-GGA Hessian, CC/C-PCM, Gaussian charge scheme
   Yang Guo               : DLPNO-NEVPT2, F12-NEVPT2, CIM, IAO-localization
   Andreas Hansen         : Spin unrestricted coupled pair/coupled cluster methods
   Benjamin Helmich-Paris : MC-RPA, TRAH-SCF, COSX integrals
   Lee Huntington         : MR-EOM, pCC
   Robert Izsak           : Overlap fitted RIJCOSX, COSX-SCS-MP3, EOM
   Marcus Kettner         : VPT2
   Christian Kollmar      : KDIIS, OOCD, Brueckner-CCSD(T), CCSD density, CASPT2, CASPT2-K
   Simone Kossmann        : Meta GGA functionals, TD-DFT gradient, OOMP2, MP2 Hessian
   Martin Krupicka        : Initial AUTO-CI
   Lucas Lang             : DCDCAS
   Marvin Lechner         : AUTO-CI (C++ implementation), FIC-MRCC
   Dagmar Lenk            : GEPOL surface, SMD
   Dimitrios Liakos       : Extrapolation schemes; Compound Job, initial MDCI parallelization
   Dimitrios Manganas     : Further ROCIS development; embedding schemes
   Dimitrios Pantazis     : SARC Basis sets
   Anastasios Papadopoulos: AUTO-CI, single reference methods and gradients
   Taras Petrenko         : DFT Hessian,TD-DFT gradient, ASA, ECA, R-Raman, ABS, FL, XAS/XES, NRVS
   Peter Pinski           : DLPNO-MP2, DLPNO-MP2 Gradient
   Christoph Reimann      : Effective Core Potentials
   Marius Retegan         : Local ZFS, SOC
   Christoph Riplinger    : Optimizer, TS searches, QM/MM, DLPNO-CCSD(T), (RO)-DLPNO pert. Triples
   Tobias Risthaus        : Range-separated hybrids, TD-DFT gradient, RPA, STAB
   Michael Roemelt        : Original ROCIS implementation
   Masaaki Saitow         : Open-shell DLPNO-CCSD energy and density
   Barbara Sandhoefer     : DKH picture change effects
   Avijit Sen             : IP-ROCIS
   Kantharuban Sivalingam : CASSCF convergence, NEVPT2, FIC-MRCI
   Bernardo de Souza      : ESD, SOC TD-DFT
   Georgi Stoychev        : AutoAux, RI-MP2 NMR, DLPNO-MP2 response
   Willem Van den Heuvel  : Paramagnetic NMR
   Boris Wezisla          : Elementary symmetry handling
   Frank Wennmohs         : Technical directorship


 We gratefully acknowledge several colleagues who have allowed us to
 interface, adapt or use parts of their codes:
   Stefan Grimme, W. Hujo, H. Kruse, P. Pracht,  : VdW corrections, initial TS optimization,
                  C. Bannwarth, S. Ehlert          DFT functionals, gCP, sTDA/sTD-DF
   Ed Valeev, F. Pavosevic, A. Kumar             : LibInt (2-el integral package), F12 methods
   Garnet Chan, S. Sharma, J. Yang, R. Olivares  : DMRG
   Ulf Ekstrom                                   : XCFun DFT Library
   Mihaly Kallay                                 : mrcc  (arbitrary order and MRCC methods)
   Jiri Pittner, Ondrej Demel                    : Mk-CCSD
   Frank Weinhold                                : gennbo (NPA and NBO analysis)
   Christopher J. Cramer and Donald G. Truhlar   : smd solvation model
   Lars Goerigk                                  : TD-DFT with DH, B97 family of functionals
   V. Asgeirsson, H. Jonsson                     : NEB implementation
   FAccTs GmbH                                   : IRC, NEB, NEB-TS, DLPNO-Multilevel, CI-OPT
                                                   MM, QMMM, 2- and 3-layer-ONIOM, Crystal-QMMM,
                                                   LR-CPCM, SF, NACMEs, symmetry and pop. for TD-DFT,
                                                   nearIR, NL-DFT gradient (VV10), updates on ESD,
                                                   ML-optimized integration grids
   S Lehtola, MJT Oliveira, MAL Marques          : LibXC Library
   Liviu Ungur et al                             : ANISO software


 Your calculation uses the libint2 library for the computation of 2-el integrals
 For citations please refer to: http://libint.valeyev.net

 Your ORCA version has been built with support for libXC version: 5.1.0
 For citations please refer to: https://tddft.org/programs/libxc/

 This ORCA versions uses:
   CBLAS   interface :  Fast vector & matrix operations
   LAPACKE interface :  Fast linear algebra routines
   SCALAPACK package :  Parallel linear algebra routines
   Shared memory     :  Shared parallel matrices
   BLAS/LAPACK       :  OpenBLAS 0.3.15  USE64BITINT DYNAMIC_ARCH NO_AFFINITY Zen SINGLE_THREADED
        Core in use  :  Zen
   Copyright (c) 2011-2014, The OpenBLAS Project


Your calculation utilizes the SMD solvation module
Please cite in your paper:
A.V. Marenich, C.J. Cramer, D.G. Truhlar J. Phys. Chem. B, 113, (2009), 6378 

================================================================================

----- Orbital basis set information -----
Your calculation utilizes the basis: cc-pVDZ 
       H, B-Ne : Obtained from the ccRepo (grant-hill.group.shef.ac.uk/ccrepo) Feb. 2017
                 T. H. Dunning, Jr., J. Chem. Phys. 90, 1007 (1989)
            He : Obtained from the ccRepo (grant-hill.group.shef.ac.uk/ccrepo) Feb. 2017
                 D. E. Woon, T. H. Dunning, Jr., J. Chem. Phys. 100, 2975 (1994)
  Li-Be, Na-Mg : Obtained from the ccRepo (grant-hill.group.shef.ac.uk/ccrepo) Feb. 2017
                 B. P. Prascher, D. E. Woon, K. A. Peterson, T. H. Dunning, Jr., A. K. Wilson, Theor. Chem. Acc. 128, 69 (2011)
         Al-Ar : Obtained from the ccRepo (grant-hill.group.shef.ac.uk/ccrepo) Feb. 2017
                 D. E. Woon, T. H. Dunning, Jr., J. Chem. Phys. 98, 1358 (1993)
            Ca : Obtained from the Peterson Research Group Website (tyr0.chem.wsu.edu/~kipeters) Feb. 2017
                 J. Koput, K. A. Peterson, J. Phys. Chem. 106, 9595 (2002)
         Sc-Zn : Obtained from the ccRepo (grant-hill.group.shef.ac.uk/ccrepo) Feb. 2017
                 N. B. Balabanov, K. A. Peterson, J. Chem. Phys. 123, 064107 (2005)
                 N. B. Balabanov, K. A. Peterson, J. Chem. Phys. 125, 074110 (2006)
         Ga-Kr : Obtained from the ccRepo (grant-hill.group.shef.ac.uk/ccrepo) Feb. 2017
                 A. K. Wilson, D. E. Woon, K. A. Peterson, T. H. Dunning, Jr., J. Chem. Phys. 110, 7667 (1999)

----- AuxJ basis set information -----
Your calculation utilizes the AutoAux generation procedure.
  G. L. Stoychev, A. A. Auer, F. Neese, J. Chem. Theory Comput. 13, 554 (2017)

----- AuxC basis set information -----
Your calculation utilizes the AutoAux generation procedure.
  G. L. Stoychev, A. A. Auer, F. Neese, J. Chem. Theory Comput. 13, 554 (2017)

----- AuxJK basis set information -----
Your calculation utilizes the AutoAux generation procedure.
  G. L. Stoychev, A. A. Auer, F. Neese, J. Chem. Theory Comput. 13, 554 (2017)

================================================================================
                                        WARNINGS
                       Please study these warnings very carefully!
================================================================================


WARNING: Post HF methods need fully converged wavefunctions
  ===> : Setting SCFConvForced true
         You can overwrite this default with %scf ConvForced false 


WARNING: MDCI localization with Augmented Hessian Foster-Boys
  ===> : Switching off randomization!

INFO   : the flag for use of the SHARK integral package has been found!

================================================================================
                                       INPUT FILE
================================================================================
NAME = pentenoic_anhydride_sp.inp
|  1> ! CPCM(chloroform) DLPNO-CCSD(T) Extrapolate(2/3,cc) AutoAux DEFGRID3 TightSCF KDIIS
|  2> %cpcm
|  3>   SMD true
|  4>   SMDsolvent "chloroform"
|  5> end
|  6> # Number of processors
|  7> %pal nprocs 48 end
|  8> # Memory per core
|  9> %maxcore 3600
| 10> %scf maxiter 500
| 11> end
| 12> % mdci
| 13> # Loose cut-off
| 14> #  TCutPairs 1e-3
| 15> #  TCutPNO 1e-6
| 16> #  TCutMKN 1e-3
| 17> # Normal cut-off
| 18> TCutPairs 1e-4
| 19> TCutPNO 3.33e-7
| 20> TCutMKN 1e-3
| 21> # Tight cut-off
| 22> #TCutPairs 1e-5
| 23> #TCutPNO 1e-7
| 24> #TCutMKN 1e-4
| 25> # Faster/less disk-IO for large jobs
| 26> #LocalTrafo 3
| 27> Density None
| 28> end
| 29> % output
| 30> printlevel mini
| 31> print[ P_SCFInfo ] 1
| 32> print[ P_SCFIterInfo ] 1
| 33> print[ P_OrbEn ] 0
| 34> print[ P_Cartesian ] 0
| 35> end
| 36> % elprop
| 37> Dipole False
| 38> end
| 39> * xyz 0 1
| 40> O         0.014830       -0.256412       -0.179318
| 41> O        -1.248600        1.568390       -0.595832
| 42> O         1.156152        1.383774        0.872975
| 43> C        -2.338508       -0.519892       -0.089744
| 44> C         2.379210       -0.308098       -0.329880
| 45> C        -3.685498        0.148543       -0.345546
| 46> C         3.679629        0.282303        0.205931
| 47> C        -1.182057        0.417442       -0.308250
| 48> C         1.164454        0.407871        0.195275
| 49> C        -4.829210       -0.805233       -0.160731
| 50> C         4.885266       -0.393135       -0.378690
| 51> C        -5.802823       -0.659647        0.735999
| 52> C         5.803504       -1.053251        0.324422
| 53> H        -2.183240       -1.399032       -0.735675
| 54> H        -2.266297       -0.896069        0.943655
| 55> H         2.331879       -0.255365       -1.430647
| 56> H         2.281618       -1.376014       -0.080609
| 57> H        -3.797468        1.014215        0.323290
| 58> H        -3.687615        0.548294       -1.372555
| 59> H         3.694732        0.205002        1.303187
| 60> H         3.694488        1.358410       -0.029458
| 61> H        -4.837250       -1.684386       -0.816533
| 62> H         4.991990       -0.332851       -1.468629
| 63> H        -6.608839       -1.389925        0.826605
| 64> H        -5.828437        0.202826        1.407888
| 65> H         6.659990       -1.527028       -0.158401
| 66> H         5.731597       -1.135500        1.412569
| 67> *
| 68> 
| 69>                          ****END OF INPUT****
================================================================================

                   *****************************************
                   * Extrapolated Single Point Calculation *
                   *****************************************

----- Orbital basis set information -----
Your calculation utilizes the basis: cc-pVDZ 
       H, B-Ne : Obtained from the ccRepo (grant-hill.group.shef.ac.uk/ccrepo) Feb. 2017
                 T. H. Dunning, Jr., J. Chem. Phys. 90, 1007 (1989)
            He : Obtained from the ccRepo (grant-hill.group.shef.ac.uk/ccrepo) Feb. 2017
                 D. E. Woon, T. H. Dunning, Jr., J. Chem. Phys. 100, 2975 (1994)
  Li-Be, Na-Mg : Obtained from the ccRepo (grant-hill.group.shef.ac.uk/ccrepo) Feb. 2017
                 B. P. Prascher, D. E. Woon, K. A. Peterson, T. H. Dunning, Jr., A. K. Wilson, Theor. Chem. Acc. 128, 69 (2011)
         Al-Ar : Obtained from the ccRepo (grant-hill.group.shef.ac.uk/ccrepo) Feb. 2017
                 D. E. Woon, T. H. Dunning, Jr., J. Chem. Phys. 98, 1358 (1993)
            Ca : Obtained from the Peterson Research Group Website (tyr0.chem.wsu.edu/~kipeters) Feb. 2017
                 J. Koput, K. A. Peterson, J. Phys. Chem. 106, 9595 (2002)
         Sc-Zn : Obtained from the ccRepo (grant-hill.group.shef.ac.uk/ccrepo) Feb. 2017
                 N. B. Balabanov, K. A. Peterson, J. Chem. Phys. 123, 064107 (2005)
                 N. B. Balabanov, K. A. Peterson, J. Chem. Phys. 125, 074110 (2006)
         Ga-Kr : Obtained from the ccRepo (grant-hill.group.shef.ac.uk/ccrepo) Feb. 2017
                 A. K. Wilson, D. E. Woon, K. A. Peterson, T. H. Dunning, Jr., J. Chem. Phys. 110, 7667 (1999)

----- AuxJ basis set information -----
Your calculation utilizes the auxiliary basis: def2/JK
   H-Ba, Hf-Rn: F. Weigend, J. Comput. Chem. 29, 167 (2008).

----- AuxC basis set information -----
Your calculation utilizes the auxiliary basis: cc-pVTZ/C 
  Obtained from the EMSL Basis Set Exchange (bse.pnl.gov) Feb. 2017
  H-He, B-F, Al-Ar, Ga-Kr : F. Weigend, A. Kohn, C. Hattig, J. Chem. Phys. 116, 3175 (2002)
             Li-Be, Na-Mg : C. Haettig, Phys. Chem. Chem. Phys. 7, 59 (2005)
                       Ne : C. Haettig, Phys. Chem. Chem. Phys. 7, 59 (2005)
                            F. Weigend, A. Kohn, C. Hattig, J. Chem. Phys. 116, 3175 (2002)
                    Sc-Zn : J. G. Hill, J. A. Platts, J. Chem. Phys. 128, 044104 (2008)

----- AuxJK basis set information -----
Your calculation utilizes the auxiliary basis: def2/JK
   H-Ba, Hf-Rn: F. Weigend, J. Comput. Chem. 29, 167 (2008).

All done

                     -----------------------------------------
                     Extrapolated Energy 1 Basis=     cc-pVDZ
                     -----------------------------------------



           ************************************************************
           *        Program running with 48 parallel MPI-processes    *
           *              working on a common directory               *
           ************************************************************
------------------------------------------------------------------------------
                   ___                                                        
                  /   \      - P O W E R E D   B Y -                         
                 /     \                                                     
                 |  |  |   _    _      __       _____    __    __             
                 |  |  |  | |  | |    /  \     |  _  \  |  |  /  |          
                  \  \/   | |  | |   /    \    | | | |  |  | /  /          
                 / \  \   | |__| |  /  /\  \   | |_| |  |  |/  /          
                |  |  |   |  __  | /  /__\  \  |    /   |      \           
                |  |  |   | |  | | |   __   |  |    \   |  |\   \          
                \     /   | |  | | |  |  |  |  | |\  \  |  | \   \       
                 \___/    |_|  |_| |__|  |__|  |_| \__\ |__|  \__/        
                                                                              
                      - O R C A' S   B I G   F R I E N D -                    
                                      &                                       
                       - I N T E G R A L  F E E D E R -                       
                                                                              
 v1 FN, 2020, v2 2021                                                         
------------------------------------------------------------------------------


Reading SHARK input file pentenoic_anhydride_sp.SHARKINP.tmp ... ok
----------------------
SHARK INTEGRAL PACKAGE
----------------------

Number of atoms                             ...     27
Number of basis functions                   ...    330
Number of shells                            ...    198
Maximum angular momentum                    ...      2
Integral batch strategy                     ... SHARK/LIBINT Hybrid
RI-J (if used) integral strategy            ... SPLIT-RIJ (Revised 2003 algorithm where possible)
Printlevel                                  ...      1
Contraction scheme used                     ... PARTIAL GENERAL contraction
Coulomb Range Separation                    ... NOT USED
Exchange Range Separation                   ... NOT USED
Finite Nucleus Model                        ... NOT USED
Auxiliary Coulomb fitting basis             ... AVAILABLE
   # of basis functions in Aux-J            ...   1233
   # of shells in Aux-J                     ...    409
   Maximum angular momentum in Aux-J        ...      4
Auxiliary J/K fitting basis                 ... AVAILABLE
   # of basis functions in Aux-JK           ...   1233
   # of shells in Aux-JK                    ...    409
   Maximum angular momentum in Aux-JK       ...      4
Auxiliary Correlation fitting basis         ... AVAILABLE
   # of basis functions in Aux-C            ...   1473
   # of shells in Aux-C                     ...    439
   Maximum angular momentum in Aux-C        ...      4
Auxiliary 'external' fitting basis          ... NOT available
Integral threshold                          ...     2.500000e-11
Primitive cut-off                           ...     2.500000e-12
Primitive pair pre-selection threshold      ...     2.500000e-12

Calculating pre-screening integrals         ... done (  0.0 sec) Dimension = 198
Calculating pre-screening integrals (ORCA)  ... done (  0.1 sec) Dimension = 120
Organizing shell pair data                  ... done (  0.1 sec)
Shell pair information
Total number of shell pairs                 ...     19701
Shell pairs after pre-screening             ...     10236
Total number of primitive shell pairs       ...     31959
Primitive shell pairs kept                  ...     14384
          la=0 lb=0:   4582 shell pairs
          la=1 lb=0:   3552 shell pairs
          la=1 lb=1:    599 shell pairs
          la=2 lb=0:   1083 shell pairs
          la=2 lb=1:    358 shell pairs
          la=2 lb=2:     62 shell pairs

Calculating one electron integrals          ... done (  0.0 sec)
Calculating RI/J V-Matrix + Cholesky decomp.... done (  1.6 sec)
Calculating RI/JK V-Matrix + Cholesky decomp... done (  0.1 sec)
Calculating RI/C V-Matrix + Cholesky decomp.... done (  0.4 sec)
Calculating Nuclear repulsion               ... done (  0.0 sec) ENN=    735.660488574714 Eh

SHARK setup successfully completed in   2.8 seconds

Maximum memory used throughout the entire GTOINT-calculation: 21.5 MB


           ************************************************************
           *        Program running with 48 parallel MPI-processes    *
           *              working on a common directory               *
           ************************************************************
------------
SCF SETTINGS
------------
Hamiltonian:
 Ab initio Hamiltonian  Method          .... Hartree-Fock(GTOs)


General Settings:
 Integral files         IntName         .... pentenoic_anhydride_sp
 Hartree-Fock type      HFTyp           .... RHF
 Total Charge           Charge          ....    0
 Multiplicity           Mult            ....    1
 Number of Electrons    NEL             ....   98
 Basis Dimension        Dim             ....  252
 Nuclear Repulsion      ENuc            ....    735.6604885747 Eh

Convergence Acceleration:
 DIIS                   CNVDIIS         .... off
 Trust-Rad. Augm. Hess. CNVTRAH         .... auto
   Auto Start mean grad. ratio tolernc. ....  1.125000
   Auto Start start iteration           ....    20
   Auto Start num. interpolation iter.  ....    10
   Max. Number of Micro iterations      ....    16
   Max. Number of Macro iterations      .... Maxiter - #DIIS iter
   Number of Davidson start vectors     ....     2
   Converg. threshold I  (grad. norm)   ....   1.000e-05
   Converg. threshold II (energy diff.) ....   1.000e-08
   Grad. Scal. Fac. for Micro threshold ....   0.100
   Minimum threshold for Micro iter.    ....   0.010
   NR start threshold (gradient norm)   ....   0.001
   Initial trust radius                 ....   0.400
   Minimum AH scaling param. (alpha)    ....   1.000
   Maximum AH scaling param. (alpha)    .... 1000.000
   Orbital update algorithm             .... Taylor
   White noise on init. David. guess    .... on
   Maximum white noise                  ....   0.010
   Quad. conv. algorithm                .... NR
 SOSCF                  CNVSOSCF        .... off
 Level Shifting         CNVShift        .... off
 Zerner damping         CNVZerner       .... off
 Static damping         CNVDamp         .... off
 Fernandez-Rico         CNVRico         .... off

SCF Procedure:
 Maximum # iterations   MaxIter         ....   500
 SCF integral mode      SCFMode         .... Direct
   Integral package                     .... SHARK and LIBINT hybrid scheme
 Reset frequency        DirectResetFreq ....    20
 Integral Threshold     Thresh          ....  2.500e-11 Eh
 Primitive CutOff       TCut            ....  2.500e-12 Eh

Convergence Tolerance:
 Convergence Check Mode ConvCheckMode   .... Total+1el-Energy
 Convergence forced     ConvForced      .... 1
 Energy Change          TolE            ....  1.000e-08 Eh
 1-El. energy change                    ....  1.000e-05 Eh


Diagonalization of the overlap matrix:
Smallest eigenvalue                        ... 1.798e-03
Time for diagonalization                   ...    0.011 sec
Threshold for overlap eigenvalues          ... 1.000e-08
Number of eigenvalues below threshold      ... 0
Time for construction of square roots      ...    0.017 sec
Total time needed                          ...    0.039 sec

Time for model grid setup =    0.425 sec

Loading Hartree-Fock densities                     ... done
Calculating cut-offs                               ... done
Initializing the effective Hamiltonian             ... done
Setting up the integral package (SHARK)            ... done
Starting the Coulomb interaction                   ... done (   0.0 sec)
Reading the grid                                   ... done
Mapping shells                                     ... done
Starting the XC term evaluation                    ... done (   0.0 sec)
Transforming the Hamiltonian                       ... done (   0.0 sec)
Diagonalizing the Hamiltonian                      ... done (   0.0 sec)
Back transforming the eigenvectors                 ... done (   0.0 sec)
Now organizing SCF variables                       ... done

--------------------
CPCM SOLVATION MODEL
--------------------
CPCM parameters:
  Epsilon                                         ...       4.7113
  Refrac                                          ...       1.4459
  Rsolv                                           ...       1.3000
  Surface type                                    ... GAUSSIAN VDW
  Epsilon function type                           ...         CPCM
Solvent:                                     ... CHLOROFORM
SMD-CDS solvent descriptors:
  Soln                                       ...    1.4459
  Soln25                                     ...    1.4431
  Sola                                       ...    0.1500
  Solb                                       ...    0.0200
  Solg                                       ...   38.3900
  Solc                                       ...    0.0000
  Solh                                       ...    0.7500
Radii:
 Radius for O  used is    3.8248 Bohr (=   2.0240 Ang.)
 Radius for C  used is    3.4960 Bohr (=   1.8500 Ang.)
 Radius for H  used is    2.2677 Bohr (=   1.2000 Ang.)
Calculating surface                               ...        done! (  0.0s)
GEPOL surface points                              ...         1600
GEPOL Volume                                      ...    1497.8247
GEPOL Surface-area                                ...     892.8518
Calculating surface distance matrix               ...        done! (  0.0s)
Performing Cholesky decomposition & store         ...        done! (  0.7s)
Overall time for CPCM initialization              ...                 0.7s
--------------
SCF ITERATIONS
--------------
ITER       Energy         Delta-E        Max-DP      RMS-DP      [F,P]   Gradient Norm
               ***  Starting incremental Fock matrix formation  ***
 re-compute Schwartz prescreening matrix in partically contracted basis ...done (   0.006 sec)
                             ****Resetting KDIIS****
                             ****Turning on KDIIS(Cayley)****
  0   -610.9419591706   0.000000000000 0.02929577  0.00062251  0.0665747   0.116739734
  1   -611.0818074635  -0.139848292918 0.02665813  0.00078521  0.0577141   0.100776591
  2   -611.2128943279  -0.131086864419 0.05088951  0.00127793  0.0467216   0.082131222
  3   -611.3719777240  -0.159083396103 0.07575319  0.00204123  0.0295877   0.050443488
  4   -611.4721434757  -0.100165751686 0.00435745  0.00010651  0.0037152   0.002060335
  5   -611.4724458437  -0.000302367986 0.00322988  0.00006321  0.0012106   0.000761616
  6   -611.4724938893  -0.000048045611 0.00111107  0.00001756  0.0004435   0.000373856
  7   -611.4725008954  -0.000007006066 0.00049539  0.00000959  0.0001666   0.000081829
  8   -611.4725019429  -0.000001047510 0.00008807  0.00000261  0.0000464   0.000034651
  9   -611.4725020495  -0.000000106556 0.00005136  0.00000147  0.0000121   0.000014176
 10   -611.4725020727  -0.000000023252 0.00000863  0.00000034  0.0000038   0.000003523
 11   -611.4725020742  -0.000000001452 0.00000945  0.00000013  0.0000025   0.000001986
 12   -611.4725020748  -0.000000000684 0.00000258  0.00000007  0.0000013   0.000000796
 13   -611.4725020776  -0.000000002766 0.00000102  0.00000003  0.0000006   0.000000352
                 **** Energy Check signals convergence ****
                    *** KDIIS BlockDiag ( 0.022 sec) ***

               *****************************************************
               *                     SUCCESS                       *
               *           SCF CONVERGED AFTER  14 CYCLES          *
               *****************************************************


SMD CDS free energy correction energy :                -2.27682     Kcal/mol
Total Energy after SMD CDS correction =              -611.476130430 Eh
Total Energy       :         -611.47613043 Eh          -16639.11143 eV
  Last Energy change         ...   -2.4860e-09  Tolerance :   1.0000e-08
  Last MAX-Density change    ...    5.8139e-07  Tolerance :   1.0000e-07
             **** THE GBW FILE WAS UPDATED (pentenoic_anhydride_sp.gbw) ****
             **** DENSITY pentenoic_anhydride_sp.scfp WAS UPDATED ****
             **** ENERGY FILE WAS UPDATED (pentenoic_anhydride_sp.en.tmp) ****
             **** THE GBW FILE WAS UPDATED (pentenoic_anhydride_sp.gbw) ****
             **** DENSITY pentenoic_anhydride_sp.scfp WAS UPDATED ****
Total SCF time: 0 days 0 hours 0 min 10 sec 

Maximum memory used throughout the entire SCF-calculation: 236.6 MB


           ************************************************************
           *        Program running with 48 parallel MPI-processes    *
           *              working on a common directory               *
           ************************************************************


--------------------------------------------------------------------------------
                             ORCA-MATRIX DRIVEN CI
--------------------------------------------------------------------------------


Wavefunction type
-----------------
Correlation treatment                      ...      CCSD     
Single excitations                         ... ON
Orbital optimization                       ... OFF
Calculation of Z vector                    ... OFF
Calculation of Brueckner orbitals          ... OFF
Perturbative triple excitations            ... ON
Calculation of F12 correction              ... OFF
Frozen core treatment                      ... chemical core (26 el)
Reference Wavefunction                     ... RHF
  Internal Orbitals:    13 ...   48 ( 36 MO's/ 72 electrons)
  Virtual  Orbitals:    49 ...  251 (203 MO's              )
Number of AO's                             ...    252
Number of electrons                        ...     98
Number of correlated electrons             ...     72

Algorithmic settings
--------------------
Integral transformation                    ... All integrals via the RI transformation
K(C) Formation                             ... RI-DLPNO
   PNO-Integral Storage                    ... ON DISK
   PNO occupation number cut-off           ... 3.330e-07
   Singles PNO occupation number cut-off   ... 9.990e-09
   PNO Mulliken prescreening cut-off       ... 1.000e-03
   Domain cut-off (Mulliken population)    ... 1.000e-03
   PNO Normalization                       ...    1
Maximum number of iterations               ...        50
Convergence tolerance (max. residuum)      ... 1.000e-05
Level shift for amplitude update           ... 2.000e-01
Maximum number of DIIS vectors             ...         7
DIIS turned on at iteration                ...         0
Damping before turning on DIIS             ...     0.500
Damping after turning on DIIS              ...     0.000
Pair specific amplitude update             ... OFF
Natural orbital iterations                 ... OFF
Perturbative natural orbital generation    ... OFF
Printlevel                                 ... 2

Singles Fock matrix elements calculated using PNOs.

Memory handling:
----------------
Maximum memory for working arrays          ...   3600 MB
Data storage in matrix containers          ... UNCOMPRESSED
Data type for integral storage             ... DOUBLE
In-Core Storage of quantities:
   Amplitudes+Sigma Vector      ... NO
   J+K operators                ... NO
   DIIS vectors                 ... NO
   3-external integrals         ... NO
   4-external integrals         ... NO

Localization treatment:
-----------------------
Localization option                        ...    6
Localization threshhold                    ... -1.0e+00
Using relative localization threshhold     ... 1.0e-08
Neglect threshold for strong pairs         ... 1.000e-04 Eh
Prescreening threshold for very weak pairs ... 1.000e-06 Eh

Initializing the integral package          ... done
Localizing the valence orbitals
------------------------------------------------------------------------------
                           ORCA ORBITAL LOCALIZATION
------------------------------------------------------------------------------

Input orbitals are from                  ... pentenoic_anhydride_sp.gbw
Output orbitals are to                   ... pentenoic_anhydride_sp.loc
Max. number of iterations                ... 128
Localizations seeded randomly            ... off
Convergence tolerance                    ... 1.000e-06
Using relative localization threshhold   ... 1.000e-08
Treshold for strong local MOs            ... 9.500e-01
Treshold for bond MOs                    ... 8.500e-01
Operator                                 ... 0
Orbital range for localization           ... 13 to 48
Localization criterion                   ... FOSTER-BOYS (AUGMENTED HESSIAN)
Doing the dipole integrals     ... o.k.
Initial value of the localization sum :  1752.633945
ITERATION   0 : L= 1784.4199380885 DL=  3.18e+01 (AVERGE_DL)=    0.2246195845 
ITERATION   1 : L= 1789.1123266784 DL=  4.69e+00 (AVERGE_DL)=    0.0863031625 
ITERATION   2 : L= 1789.2447219539 DL=  1.32e-01 (AVERGE_DL)=    0.0144965938 
ITERATION   3 : L= 1789.2510008015 DL=  6.28e-03 (AVERGE_DL)=    0.0031569645 
ITERATION   4 : L= 1789.2526202879 DL=  1.62e-03 (AVERGE_DL)=    0.0016033132 
ITERATION   5 : L= 1789.2530280170 DL=  4.08e-04 (AVERGE_DL)=    0.0008044806 
ITERATION   6 : L= 1789.2531569240 DL=  1.29e-04 (AVERGE_DL)=    0.0004523431 
ITERATION   7 : L= 1789.2532016075 DL=  4.47e-05 (AVERGE_DL)=    0.0002663195 
ITERATION   8 : L= 1789.2532179950 DL=  1.64e-05 (AVERGE_DL)=    0.0001612825 
ITERATION   9 : L= 1789.2532241381 DL=  6.14e-06 (AVERGE_DL)=    0.0000987468 
ITERATION  10 : L= 1789.2532264588 DL=  2.32e-06 (AVERGE_DL)=    0.0000606933 
ITERATION  11 : L= 1789.2532273381 DL=  8.79e-07 (AVERGE_DL)=    0.0000373583 
LOCALIZATION SUM CONVERGED

------------------------------------------------------
AUGMENTED HESSIAN OPTIMIZATION OF FOSTER-BOYS ORBITALS
------------------------------------------------------

Spin operator:           0
Orbital window:          13 to 48
Number of iterations:    128
Gradient tolerance:      1.000e-06
Number of pairs:         630
Davidson threshold:      2000
Diagonalization method:  LAPACK
Iter:    0   L: 1789.2532273381   Grad. norm: 7.714272e-03
   *** Likely close to a maximum now. ***
       Augmented Hessian eigenvalues:  1.15e-06 -4.28e-01 -1.12e+00 -1.12e+00 ... 
Iter:    1   L: 1789.2532279148   Grad. norm: 1.554524e-06
Iter:    2   L: 1789.2532279148   Grad. norm: 1.554524e-06
Iter:    3   L: 1789.2532279148   Grad. norm: 4.075953e-14
LOCALIZATION HAS CONVERGED.

Eigenvalues of the Hessian:
  0 -4.276e-01
  1 -1.121e+00
  2 -1.124e+00
  3 -2.150e+00
  4 -2.151e+00
  5 -2.357e+00
  6 -2.360e+00
  7 -2.662e+00
  8 -4.187e+00
  9 -4.630e+00
    ...


--------------------------------------------------------------------------------
                    LOCALIZED MOLECULAR ORBITAL COMPOSITIONS
--------------------------------------------------------------------------------

The Mulliken populations for each LMO on each atom are computed
The LMO`s will be ordered according to atom index and type
  (A) Strongly localized MO`s have populations of >=0.950 on one atom
  (B) Two center bond orbitals have populations of >=0.850 on two atoms
  (C) Other MO`s are considered to be `delocalized`

FOUND  -   0 strongly local MO`s
       -  36 two center bond MO`s
       -   0 significantly delocalized MO`s

Bond-like localized orbitals:
MO  48:  26H  -   0.484112  and  12C  -   0.521207
MO  47:  25H  -   0.483634  and  12C  -   0.520089
MO  46:  24H  -   0.483792  and  11C  -   0.521522
MO  45:  23H  -   0.483677  and  11C  -   0.520074
MO  44:  22H  -   0.487368  and  10C  -   0.521503
MO  43:  21H  -   0.487587  and   9C  -   0.521211
MO  42:  20H  -   0.487334  and   6C  -   0.517939
MO  41:  19H  -   0.491460  and   6C  -   0.518181
MO  40:  18H  -   0.489227  and   5C  -   0.516428
MO  39:  17H  -   0.489762  and   5C  -   0.519771
MO  38:  16H  -   0.471274  and   4C  -   0.524460
MO  37:  15H  -   0.470539  and   4C  -   0.523469
MO  36:  14H  -   0.470199  and   3C  -   0.524381
MO  35:  13H  -   0.471545  and   3C  -   0.523497
MO  34:  12C  -   0.505815  and  10C  -   0.508012
MO  33:  12C  -   0.501610  and  10C  -   0.512236
MO  32:  11C  -   0.505293  and   9C  -   0.508463
MO  31:  11C  -   0.501474  and   9C  -   0.512369
MO  30:  10C  -   0.540933  and   6C  -   0.506045
MO  29:   9C  -   0.540971  and   5C  -   0.506042
MO  28:   8C  -   0.567362  and   4C  -   0.485065
MO  27:   8C  -   0.362416  and   2O  -   0.645913
MO  26:   8C  -   0.356317  and   2O  -   0.651797
MO  25:   8C  -   0.332668  and   0O  -   0.692189
MO  24:   7C  -   0.567351  and   3C  -   0.485032
MO  23:   7C  -   0.362480  and   1O  -   0.646122
MO  22:   7C  -   0.356235  and   1O  -   0.651528
MO  21:   7C  -   0.332552  and   0O  -   0.692249
MO  20:   6C  -   0.496254  and   4C  -   0.545757
MO  19:   5C  -   0.496253  and   3C  -   0.545815
MO  18:   2O  -   0.943994  and   1O  -  -0.000474
MO  17:   2O  -   0.947559  and   1O  -  -0.000011
MO  16:   1O  -   0.944007  and   0O  -  -0.002221
MO  15:   1O  -  -0.000246  and   0O  -   0.946463
MO  14:   1O  -   0.001841  and   0O  -   0.946313
MO  13:   1O  -   0.947629  and   0O  -  -0.001552
Localized MO's were stored in: pentenoic_anhydride_sp.loc

Localizing the core orbitals
------------------------------------------------------------------------------
                           ORCA ORBITAL LOCALIZATION
------------------------------------------------------------------------------

Input orbitals are from                  ... pentenoic_anhydride_sp.loc
Output orbitals are to                   ... pentenoic_anhydride_sp.loc
Max. number of iterations                ... 128
Localizations seeded randomly            ... off
Convergence tolerance                    ... 1.000e-06
Using relative localization threshhold   ... 1.000e-08
Treshold for strong local MOs            ... 9.500e-01
Treshold for bond MOs                    ... 8.500e-01
Operator                                 ... 0
Orbital range for localization           ... 0 to 12
Localization criterion                   ... FOSTER-BOYS (AUGMENTED HESSIAN)
Doing the dipole integrals     ... o.k.
Initial value of the localization sum :   601.411343
ITERATION   0 : L=  601.4113575025 DL=  1.44e-05 (AVERGE_DL)=    0.0004297813 
ITERATION   1 : L=  601.4113575025 DL=  0.00e+00 (AVERGE_DL)=    0.0000000000 
LOCALIZATION SUM CONVERGED

------------------------------------------------------
AUGMENTED HESSIAN OPTIMIZATION OF FOSTER-BOYS ORBITALS
------------------------------------------------------

Spin operator:           0
Orbital window:          0 to 12
Number of iterations:    128
Gradient tolerance:      1.000e-06
Number of pairs:         78
Davidson threshold:      2000
Diagonalization method:  LAPACK
Iter:    0   L: 601.4113575025   Grad. norm: 2.316721e-03
   *** Likely close to a maximum now. ***
       Augmented Hessian eigenvalues:  3.48e-09 -2.02e+01 -2.02e+01 -2.53e+01 ... 
Iter:    1   L: 601.4113575043   Grad. norm: 1.255958e-14
LOCALIZATION HAS CONVERGED.

Eigenvalues of the Hessian:
  0 -2.016e+01
  1 -2.016e+01
  2 -2.533e+01
  3 -2.533e+01
  4 -2.718e+01
  5 -2.718e+01
  6 -3.216e+01
  7 -3.217e+01
  8 -3.234e+01
  9 -3.234e+01
    ...


--------------------------------------------------------------------------------
                    LOCALIZED MOLECULAR ORBITAL COMPOSITIONS
--------------------------------------------------------------------------------

The Mulliken populations for each LMO on each atom are computed
The LMO`s will be ordered according to atom index and type
  (A) Strongly localized MO`s have populations of >=0.950 on one atom
  (B) Two center bond orbitals have populations of >=0.850 on two atoms
  (C) Other MO`s are considered to be `delocalized`

FOUND  -  13 strongly local MO`s
       -   0 two center bond MO`s
       -   0 significantly delocalized MO`s

Rather strongly localized orbitals:
MO  12:  12C  -   0.999672
MO  11:  11C  -   0.999672
MO  10:  10C  -   0.999441
MO   9:   9C  -   0.999441
MO   8:   8C  -   1.000190
MO   7:   7C  -   1.000191
MO   6:   6C  -   0.999064
MO   5:   5C  -   0.999064
MO   4:   4C  -   0.998978
MO   3:   3C  -   0.998976
MO   2:   2O  -   0.999673
MO   1:   1O  -   0.999674
MO   0:   0O  -   0.999539
Localized MO's were stored in: pentenoic_anhydride_sp.loc

Warning: reference  - re-canonicalizations have been set to INT 1 VIRT 1
Warning: internal orbitals are localized - no re-canonicalization of internal orbitals
Warning: UsePNO is turned on - no re-canonicalization of internal and virtual orbitals

--------------------------
CLOSED-SHELL FOCK OPERATOR
--------------------------

Restoring SHARK [2] ... ok
MDCI_FockCPCM: ediel   =  -0.016595468000
MDCI_FockCPCM: <VCPCM> =   0.291959931438
Adding the SMD CDS term to the reference energy ... ok
Time needed for Fock operator              ...            1.094 sec
Reference energy                           ...   -611.476130408

--------------
DLPNO SETTINGS (2015 fully linear scaling implementation)
--------------

TCutMKN:           1.000e-03
TCutPAO:           1.000e-03
TCutPNO:           3.330e-07
TCutPNOSingles:    9.990e-09
TCutEN:            9.700e-01
TCutPAOExt:        1.000e-01
TCutPairs:         1.000e-04
TCutPre:           1.000e-06
TCutOSV:           1.000e-06
TCutDOij:          1.000e-05
TCutDO:            1.000e-02
TCutC:             1.000e-04
TCutCPAO:          1.000e-03
TCutCMO:           1.000e-03
TScaleDOMP2PreScr: 2.000e+00
TScaleMKNMP2PreScr:1.000e+01
TScalePNOMP2PreScr:1.000e+00
PAO overlap thresh 1.000e-08
Using PNOs for Singles Fock computation
Use new domains
Use fully linear algorithm
TCutTNO:           1.000e-09
TCutMP2Pairs:      1.000e-05
TCutDOStrong:      2.000e-03
TCutMKNStrong:     1.000e-02
TCutMKNWeak:       1.000e-01
TCutDOWeak:        4.000e-03
NTCutTNO:          1

--------------------------
Mulliken population of the LMOs            ... ok
Performing proximity check                 ... No problems found
Calculating differential overlap integrals ... ok

--------------------------
ELECTRON PAIR PRESCREENING
--------------------------

Dipole-based pair screening          .... used

   TCutDOij = 1.000000e-05
   TCutPre  = 1.000000e-06
   .... Finished loop over pairs

                  =====================================
                     5 OF  666 PAIRS WERE SKIPPED 
                  =====================================

Total time spent in the prescreening                  ...     0.002 sec
sum of pair energies estimated for screened out pairs ...      -0.000000362108 Eh
Thresholds for map construction and integral transformation for crude MP2:
   TCutMKN                    ...     1.0e-02
   TCutDO                     ...     2.0e-02
   TCutPairs                  ...     1.0e-04
   TCutPNO_CrudeMP2           ...     3.3e-07
   TCutPNOSingles_CrudeMP2    ...     1.0e-08
--------------------------------
LOCAL RI TRANSFORMATION (IAVPAO)
--------------------------------

Orbital window:      13 to 48
Number of PAOs:     252
Basis functions:    252 (120 shells)
Aux. functions:    1473 (439 shells)
Use SHARK:           on

Processing maps (0.0 sec)
Average map sizes:
   Aux shells -> MOs              35.8
   Aux shells -> PAOs            252.0
   MOs        -> AO shells        90.2
   PAOs       -> AO shells       110.5

Calculating integrals (0.3 sec, 101.392 MB)
Sorting integrals (0.4 sec, 101.376 MB)
Total time for the integral transformation: 0.9 sec
--------------------------------
INITIAL GUESS AND PNO GENERATION
--------------------------------

PNO truncation parameters                   .... 
    PAOOverlapThresh   =        1.000e-08

    TCutPairs          =        1.000e-04
    TCutPNO            =        3.330e-07
    TCutPNOSingles     =        9.990e-09
    TCutMP2Pairs       =        1.000e-05
    TCutMKN            =        1.000e-02
    TCutDO             =        2.000e-02

Pair selection                          .... not used
Type of local MP2 treatment                 .... semi-local MP2
Strategy for PNO selection                  .... occupation number selection
Pair density normalization                  .... MP2 norm
Spin component scaling                      .... not used

   .... Finished loop over pairs
Making pair pair interaction lists          ... done

                       ===========================
                        298 OF  661 PAIRS ARE KEPT CCSD PAIRS
                        132 OF  661 PAIRS ARE KEPT MP2 PAIRS FOR (T)
                        231 OF  661 PAIRS ARE SKIPPED
                       ===========================

Total time spent in the initial guess                 ...     2.050 sec
SL-MP2 correlation energy (all non-screened pairs)    ...      -1.794671095969 Eh

Initial PNO correlation energy                        ...      -1.787906416172 Eh
sum of pair energies prescreened and skipped MP2 pairs...      -0.000439889839 Eh
sum of pair energies of crude MP2 skipped pairs only  ...      -0.000439527731 Eh
sum of MP2 pair energies for pairs that were not kept ...      -0.004893876581 Eh
sum of PNO error estimates for the kept pairs         ...      -0.001870803215 Eh
                                                          --------------------
sum of all corrections                                         -0.006765041905
Initial total correlation energy                               -1.794671458077
Thresholds for map construction and integral transformation for fine MP2 and CCSD(T) calculation:
   TCutMKN   ...     1.0e-03
   TCutDO    ...     1.0e-02
   TCutPairs ...     1.0e-04
   TCutCMO   ...     1.0e-03
   TCutCPAO  ...     1.0e-03

Thresholds for map construction and integral transformation for strong Triples:
   TCutMKN   ...     1.0e-02
   TCutDO    ...     2.0e-02
   TCutCMO   ...     1.0e-03
   TCutCPAO  ...     1.0e-03

Thresholds for map construction and integral transformation for weak Triples:
   TCutMKN   ...     1.0e-01
   TCutDO    ...     4.0e-02
   TCutCMO   ...     1.0e-03
   TCutCPAO  ...     1.0e-03

--------------------------------
LOCAL RI TRANSFORMATION (IAVPAO)
--------------------------------

Orbital window:      13 to 48
Number of PAOs:     252
Basis functions:    252 (120 shells)
Aux. functions:    1473 (439 shells)
Use SHARK:           on

Processing maps (0.0 sec)
Average map sizes:
   Aux shells -> MOs              29.2
   Aux shells -> PAOs            252.0
   MOs        -> AO shells        90.2
   PAOs       -> AO shells       110.5

Calculating integrals (0.4 sec, 83.235 MB)
Sorting integrals (0.3 sec, 82.636 MB)
Total time for the integral transformation: 1.0 sec
--------------------------------
INITIAL GUESS AND PNO GENERATION
--------------------------------

PNO truncation parameters                   .... 
    PAOOverlapThresh   =        1.000e-08

    TCutPairs          =        1.000e-04
    TCutPNO            =        3.330e-07
    TCutPNOSingles     =        9.990e-09
    TCutMP2Pairs       =        1.000e-05
    TCutMKN            =        1.000e-03
    TCutDO             =        1.000e-02

Pair selection                          .... not used
Type of local MP2 treatment                 .... semi-local MP2
Strategy for PNO selection                  .... occupation number selection
Pair density normalization                  .... MP2 norm
Spin component scaling                      .... not used

   .... Finished loop over pairs

 PNO Occupation Number Statistics: 
  | Av. % of trace(Dij) retained        ...  97.686499212197
  | sigma^2 in % of trace(Dij) retained ...   1.09e+01
  | Av. % of trace(Di) retained         ...  99.999548947869
  | sigma^2 in % of trace(Di) retained  ...   2.15e-08
 Distributions of % trace(Dij) recovered:
  |       >= 99.9  ...   110 ( 25.6 % of all pairs)
  |   [80.0, 90.0) ...    22 (  5.1 % of all pairs)
  |   [90.0, 99.0) ...   188 ( 43.7 % of all pairs)
  |   [99.0, 99.9) ...   110 ( 25.6 % of all pairs)
 Distributions of % trace(Di) recovered :
  |       >= 99.9  ...    36 (100.0 % of all I-pairs )

Making pair pair interaction lists          ... done

                       ===========================
                        298 OF  430 PAIRS ARE KEPT
                       ===========================

Total time spent in the initial guess                 ...     2.777 sec
SL-MP2 correlation energy (all non-screened pairs)    ...      -1.794981199152 Eh

Initial PNO correlation energy                        ...      -1.788647368964 Eh
sum of pair energies estimated for screened out pairs ...      -0.000439889839 Eh
sum of MP2 pair energies for pairs that were not kept ...      -0.004457505394 Eh
sum of PNO error estimates for the kept pairs         ...      -0.001876324793 Eh
                                                          --------------------
sum of all corrections                                         -0.006773720026
Initial total correlation energy                               -1.795421088990
Thresholds for map construction and integral transformation for fine MP2 and CCSD(T) calculation:
   TCutMKN   ...     1.0e-03
   TCutDO    ...     1.0e-02
   TCutPairs ...     1.0e-04
   TCutCMO   ...     1.0e-03
   TCutCPAO  ...     1.0e-03

Time for aux screen maps:            0.003
Time for maps after fine MP2:            0.013
-----------------------------
LOCAL RI TRANSFORMATION (IJV)
-----------------------------

Orbital window:      13 to 48
Basis functions:    252 (120 shells)
Aux. functions:    1473 (439 shells)
Use SHARK:           on

Processing maps (0.0 sec)
Average map sizes:
   Aux shells -> MOs(i)           24.5
   Aux shells -> MOs(j)           36.0
   MOs        -> AO shells        90.2

Calculating integrals (0.4 sec, 10.027 MB)
Sorting integrals (0.2 sec, 10.010 MB)
Total time for the integral transformation: 0.7 sec
--------------------------------
LOCAL RI TRANSFORMATION (VABPAO)
--------------------------------

Number of PAOs:     252
Basis functions:    252 (120 shells)
Aux. functions:    1473 (439 shells)
Use SHARK:           on

Processing maps (0.0 sec)
Average map sizes:
   Aux shells -> PAOs            222.0
   PAOs       -> AO shells       110.5

Calculating integrals (0.6 sec, 571.599 MB)
Finished


-------------------------------------
Pair Pair Term precalculation with     
RI-(ij|mn) and (im|jn) transformation  
ON THE FLY                             
-------------------------------------

   IBatch   1 (of   1)              ... done (    2.698 sec)
Total EXT                           ...           2.698 sec

---------------------
RI-PNO TRANSFORMATION
---------------------

Total Number of PNOs                   ...  6342
Average number of PNOs per pair        ...    21
Maximal number of PNOs per pair        ...    33
   #pairs with  1 -  5 PNOs   :    0
   #pairs with  6 - 10 PNOs   :   18
   #pairs with 11 - 15 PNOs   :   42
   #pairs with 16 - 20 PNOs   :   56
   #pairs with 21 - 25 PNOs   :  101
   #pairs with 26 - 30 PNOs   :   73
   #pairs with 31 - 35 PNOs   :    8
   #pairs with 36 - 40 PNOs   :    0
   #pairs with 41 - 45 PNOs   :    0
   #pairs with 46 - 50 PNOs   :    0

Generation of (ij|ab)[P] integrals            ... on
Generation of (ia|bc)[P],(ja|bc)[P] integrals ... on
Storage of 3 and 4 external integrals         ... on
Generation of ALL (ka|bc)[P] integrals        ... on
Keep RI integrals in memory                   ... off

Ibatch:  1 (of  1)
Starting 2-4 index PNO integral generation ... done

Timings:
Total PNO integral transformation time     ...          3.975 sec
Size of the 3-external file                ...        28 MB
Size of the 4-external file                ...        92 MB
Size of the IKJL file                      ...         0 MB
Size of the all 3-external file            ...       399 MB
Size of the 1-external file                ...         4 MB

Making pair/pair overlap matrices          ... done (    0.807 sec)
Size of the pair overlap file              ... 195 MB
Redoing the guess amplitudes               ... done (    0.004 sec)

-------------------------
FINAL STARTUP INFORMATION
-------------------------

E(0)                                       ...   -611.476130408
E(SL-MP2)                                  ...     -1.794981199
E(SL-MP2) including corrections            ...     -1.795421089
Initial E(tot)                             ...   -613.271551497
<T|T>                                      ...      0.541622821
Number of pairs included                   ... 298
Total number of pairs                      ... 666

------------------------------------------------
                  RHF COUPLED CLUSTER ITERATIONS
------------------------------------------------

Number of PNO amplitudes to be optimized   ...       145776
Number of non-PNO amplitudes               ...     12280282
Untruncated number of regular amplitudes   ...     27445194

Iter       E(tot)           E(Corr)          Delta-E          Residual     Time
  0   -613.271576379     -1.788672251      0.006308948      0.020222860   16.40
                           *** Turning on DIIS ***
  1   -613.377882096     -1.894977968     -0.106305716      0.013563671   16.58
  2   -613.438789453     -1.955885324     -0.060907357      0.007754210   16.63
  3   -613.449997393     -1.967093265     -0.011207940      0.004297729   16.64
  4   -613.454149215     -1.971245087     -0.004151822      0.001961238   15.99
  5   -613.455498837     -1.972594708     -0.001349621      0.000695678   15.47
  6   -613.455709906     -1.972805778     -0.000211069      0.000181760   14.93
  7   -613.455702258     -1.972798129      0.000007648      0.000087536   15.70
  8   -613.455709813     -1.972805685     -0.000007555      0.000042121   15.40
  9   -613.455700207     -1.972796079      0.000009606      0.000018464   16.48
 10   -613.455701691     -1.972797562     -0.000001483      0.000006855   14.51
               --- The Coupled-Cluster iterations have converged ---

----------------------
COUPLED CLUSTER ENERGY
----------------------

E(0)                                       ...   -611.476130408
E(CORR)(strong-pairs)                      ...     -1.972797562
E(CORR)(weak-pairs)                        ...     -0.006773720
E(CORR)(corrected)                         ...     -1.979571282
E(TOT)                                     ...   -613.455701691
Singles Norm <S|S>**1/2                    ...      0.107242693  
T1 diagnostic                              ...      0.012638673  

------------------
LARGEST AMPLITUDES
------------------
  34-> 49  34-> 49       0.068553
  32-> 49  32-> 49       0.068534
  31-> 49  31-> 49       0.068035
  33-> 49  33-> 49       0.068000
  32-> 49  31-> 49       0.061521
  34-> 49  33-> 49       0.061509
  23-> 49  23-> 49       0.053523
  27-> 49  27-> 49       0.053458
  26-> 49  26-> 49       0.052695
  22-> 49  22-> 49       0.052666
  23-> 49  22-> 49       0.044934
  27-> 49  26-> 49       0.044919
  25-> 50  25-> 50       0.040158
  21-> 50  21-> 50       0.040150
  41-> 49  41-> 49       0.037122
  39-> 49  39-> 49       0.037048


-------------------------------------------
DLPNO BASED TRIPLES CORRECTION
-------------------------------------------

Singles multiplier          ...  1.000000
TCutTNO                     ... 1.000e-09
TCutMP2Pairs                ... 1.000e-05
TCutDOStrong                ... 2.000e-02
TCutMKNStrong               ... 1.000e-02
TCutDOWeak                  ... 4.000e-02
TCutMKNWeak                 ... 1.000e-01

Fragment selection                          .... not used
Fock matrix occ-virt block is zero --> Setting DT_in_Triples to false.
Number of Triples that are to be computed   ...      2268

 . . . . . . . . .
10% done  
20% done  
30% done  
40% done  
50% done  
60% done  
70% done  
80% done  
90% done               (      4.298 sec)
Triples timings:
Total time for T0               ...     5.025 sec
Total time for Iterative (T)    ...     0.000 sec
Total time of overall (T)       ...     7.129 sec

Triples List generation         ...     0.000 sec
TNO generation                  ...     0.400 sec
Pair density generation         ...     0.197 sec
Look up tables                  ...     0.000 sec
Generating 3-index integrals    ...     2.831 sec
  Make 4-ind.int. from 3-ind.int...     0.614 sec
  Projecting amplitudes (D + S) ...     0.455 sec
  Downprojecting integrals      ...     0.000 sec
  Energy contr. (sum over a,b,c)...     0.101 sec
Fitting ET(->0)                 ...     0.000 sec

Everything after 3-index        ...     1.467 sec

Timing details:
 TNO integrals                  ...     3.343 sec
   Reading 3-index integrals    ...     0.474 sec
   Sorting integrals            ...     0.334 sec
       Sorting integrals 1      ...     0.000 sec
       Sorting integrals 2      ...     0.236 sec
       Sorting integrals 3      ...     0.020 sec
       Sorting integrals 4      ...     0.005 sec
       Sorting integrals 5      ...     0.008 sec
       Sorting integrals 6      ...     0.066 sec
   Calculating local VM**-1/2   ...     0.079 sec
   Orthogonal. integrals        ...     0.114 sec
   Multipl. 3-index integrals   ...     2.343 sec
   All concerning IRIab (w/TNO) ...     0.319 sec

 Calculate W0/W1                ...     0.296 sec
 W 3-ext contribution           ...     0.176 sec
 W 3-int contribution           ...     0.072 sec
 Sorting W                      ...     0.040 sec

 V exchange contribution        ...     0.042 sec

 Timings for Triples without generation
     of 3-index integrals       ...     1.467 sec
       0 weak pairs             ...     1.121 sec
       1 weak pair              ...     0.346 sec
       2 weak pairs             ...     0.000 sec
       3 weak pairs             ...     0.000 sec
  Extra time for extrapolation  ...     0.000 sec

Number of Triples   (0, 1, 2, 3 weak pairs; overall):   1460     808       0       0  (  2268)
Number of Atoms     (0, 1, 2, 3 weak pairs; overall):   12.6    11.7     0.0     0.0  (    27)
Number of PAOs      (0, 1, 2, 3 weak pairs; overall):  130.4   130.7     0.0     0.0  (   252)
Number of AuxFcns   (0, 1, 2, 3 weak pairs; overall):  371.8   367.4     0.0     0.0  (  1473)
Number of TNOs      (0, 1, 2, 3 weak pairs         ):   51.7    44.3     0.0     0.0
Aver. Number of NTNO, Atoms, PAOs, AuxFcns / Triples:   2268    49.1    12.3   130.5   370.2

Triples Correction (T)                     ...     -0.063418707
Final correlation energy                   ...     -2.042989989
E(CCSD)                                    ...   -613.455701691
E(CCSD(T))                                 ...   -613.519120397



--------------------------------------------------------------------------------
                                    TIMINGS
--------------------------------------------------------------------------------


Total execution time                   ...      208.552 sec

Localization of occupied MO's          ...        1.093 sec (  0.5%)
Fock Matrix Formation                  ...        1.094 sec (  0.5%)
Global overlap, Fock, MKN matrices     ...        0.583 sec (  0.3%)
Differential overlap integrals         ...        4.963 sec (  2.4%)
Organizing maps                        ...        0.031 sec (  0.0%)
RI 3-index integral generations        ...        3.274 sec (  1.6%)
RI-PNO integral transformation         ...        9.802 sec (  4.7%)
Initial Guess                          ...        4.868 sec (  2.3%)
DIIS Solver                            ...        3.295 sec (  1.6%)
State Vector Update                    ...        0.016 sec (  0.0%)
Sigma-vector construction              ...      171.424 sec ( 82.2%)
  <D|H|D>(0-ext)                       ...       19.150 sec ( 11.2% of sigma)
  <D|H|D>(2-ext Fock)                  ...        0.002 sec (  0.0% of sigma)
  <D|H|D>(2-ext)                       ...        4.897 sec (  2.9% of sigma)
  <D|H|D>(4-ext)                       ...        0.233 sec (  0.1% of sigma)
  <D|H|D>(4-ext-corr)                  ...        0.513 sec (  0.3% of sigma)
  CCSD doubles correction              ...        1.823 sec (  1.1% of sigma)
  <S|H|S>                              ...        5.502 sec (  3.2% of sigma)
  <S|H|D>(1-ext)                       ...        0.149 sec (  0.1% of sigma)
  <D|H|S>(1-ext)                       ...        0.003 sec (  0.0% of sigma)
  <S|H|D>(3-ext)                       ...        0.119 sec (  0.1% of sigma)
  Fock-dressing                        ...       48.799 sec ( 28.5% of sigma)
  Singles amplitudes                   ...       13.240 sec (  7.7% of sigma)
  (ik|jl)-dressing                     ...       38.344 sec ( 22.4% of sigma)
  (ij|ab),(ia|jb)-dressing             ...       23.468 sec ( 13.7% of sigma)
  Pair energies                        ...        0.035 sec (  0.0% of sigma)
Total Time for computing (T)           ...        7.135 sec (  3.4% of ALL)


Maximum memory used throughout the entire MDCI-calculation: 627.3 MB
----- Orbital basis set information -----
Your calculation utilizes the basis: cc-pVTZ 
       H, B-Ne : Obtained from the ccRepo (grant-hill.group.shef.ac.uk/ccrepo) Feb. 2017
                 T. H. Dunning, Jr., J. Chem. Phys. 90, 1007 (1989)
            He : Obtained from the ccRepo (grant-hill.group.shef.ac.uk/ccrepo) Feb. 2017
                 D. E. Woon, T. H. Dunning, Jr., J. Chem. Phys. 100, 2975 (1994)
  Li-Be, Na-Mg : Obtained from the ccRepo (grant-hill.group.shef.ac.uk/ccrepo) Feb. 2017
                 B. P. Prascher, D. E. Woon, K. A. Peterson, T. H. Dunning, Jr., A. K. Wilson, Theor. Chem. Acc. 128, 69 (2011)
         Al-Ar : Obtained from the ccRepo (grant-hill.group.shef.ac.uk/ccrepo) Feb. 2017
                 D. E. Woon, T. H. Dunning, Jr., J. Chem. Phys. 98, 1358 (1993)
            Ca : Obtained from the Peterson Research Group Website (tyr0.chem.wsu.edu/~kipeters) Feb. 2017
                 J. Koput, K. A. Peterson, J. Phys. Chem. 106, 9595 (2002)
         Sc-Zn : Obtained from the ccRepo (grant-hill.group.shef.ac.uk/ccrepo) Feb. 2017
                 N. B. Balabanov, K. A. Peterson, J. Chem. Phys. 123, 064107 (2005)
                 N. B. Balabanov, K. A. Peterson, J. Chem. Phys. 125, 074110 (2006)
         Ga-Kr : Obtained from the ccRepo (grant-hill.group.shef.ac.uk/ccrepo) Feb. 2017
                 A. K. Wilson, D. E. Woon, K. A. Peterson, T. H. Dunning, Jr., J. Chem. Phys. 110, 7667 (1999)
             Y : Obtained from the ccRepo (grant-hill.group.shef.ac.uk/ccrepo) Feb. 2017
                 K. A. Peterson, D. Figgen, M. Dolg, H. Stoll, J. Chem. Phys. 126, 124101 (2007)
        Ag, Au : Obtained from the Peterson Research Group Website (tyr0.chem.wsu.edu/~kipeters) Feb. 2017
                 K. A. Peterson, C. Puzzarini, Theor. Chem. Acc. 114, 283 (2005)

----- AuxJ basis set information -----
Your calculation utilizes the auxiliary basis: def2/JK
   H-Ba, Hf-Rn: F. Weigend, J. Comput. Chem. 29, 167 (2008).

----- AuxC basis set information -----
Your calculation utilizes the auxiliary basis: cc-pVTZ/C 
  Obtained from the EMSL Basis Set Exchange (bse.pnl.gov) Feb. 2017
  H-He, B-F, Al-Ar, Ga-Kr : F. Weigend, A. Kohn, C. Hattig, J. Chem. Phys. 116, 3175 (2002)
             Li-Be, Na-Mg : C. Haettig, Phys. Chem. Chem. Phys. 7, 59 (2005)
                       Ne : C. Haettig, Phys. Chem. Chem. Phys. 7, 59 (2005)
                            F. Weigend, A. Kohn, C. Hattig, J. Chem. Phys. 116, 3175 (2002)
                    Sc-Zn : J. G. Hill, J. A. Platts, J. Chem. Phys. 128, 044104 (2008)

----- AuxJK basis set information -----
Your calculation utilizes the auxiliary basis: def2/JK
   H-Ba, Hf-Rn: F. Weigend, J. Comput. Chem. 29, 167 (2008).

All done

                     -----------------------------------------
                     Extrapolated Energy 2 Basis=     cc-pVTZ
                     -----------------------------------------


Checking for AutoStart:
The File: pentenoic_anhydride_sp.gbw exists
Trying to determine its content:
     ... Fine, the file contains calculation information
     ... Fine, the calculation information was read
     ... Fine, the file contains a basis set
     ... Fine, the basis set was read
     ... Fine, the file contains a geometry
     ... Fine, the geometry was read
     ... Fine, the file contains a set of orbitals
     ... Fine, the orbitals can be read
     => possible old guess file was deleted
     => GBW file was renamed to GES file
     => GES file is set as startup file
     => Guess is set to MORead
     ... now leaving AutoStart



           ************************************************************
           *        Program running with 48 parallel MPI-processes    *
           *              working on a common directory               *
           ************************************************************
------------------------------------------------------------------------------
                   ___                                                        
                  /   \      - P O W E R E D   B Y -                         
                 /     \                                                     
                 |  |  |   _    _      __       _____    __    __             
                 |  |  |  | |  | |    /  \     |  _  \  |  |  /  |          
                  \  \/   | |  | |   /    \    | | | |  |  | /  /          
                 / \  \   | |__| |  /  /\  \   | |_| |  |  |/  /          
                |  |  |   |  __  | /  /__\  \  |    /   |      \           
                |  |  |   | |  | | |   __   |  |    \   |  |\   \          
                \     /   | |  | | |  |  |  |  | |\  \  |  | \   \       
                 \___/    |_|  |_| |__|  |__|  |_| \__\ |__|  \__/        
                                                                              
                      - O R C A' S   B I G   F R I E N D -                    
                                      &                                       
                       - I N T E G R A L  F E E D E R -                       
                                                                              
 v1 FN, 2020, v2 2021                                                         
------------------------------------------------------------------------------


Reading SHARK input file pentenoic_anhydride_sp.SHARKINP.tmp ... ok
----------------------
SHARK INTEGRAL PACKAGE
----------------------

Number of atoms                             ...     27
Number of basis functions                   ...    664
Number of shells                            ...    292
Maximum angular momentum                    ...      3
Integral batch strategy                     ... SHARK/LIBINT Hybrid
RI-J (if used) integral strategy            ... SPLIT-RIJ (Revised 2003 algorithm where possible)
Printlevel                                  ...      1
Contraction scheme used                     ... PARTIAL GENERAL contraction
Coulomb Range Separation                    ... NOT USED
Exchange Range Separation                   ... NOT USED
Finite Nucleus Model                        ... NOT USED
Auxiliary Coulomb fitting basis             ... AVAILABLE
   # of basis functions in Aux-J            ...   1233
   # of shells in Aux-J                     ...    409
   Maximum angular momentum in Aux-J        ...      4
Auxiliary J/K fitting basis                 ... AVAILABLE
   # of basis functions in Aux-JK           ...   1233
   # of shells in Aux-JK                    ...    409
   Maximum angular momentum in Aux-JK       ...      4
Auxiliary Correlation fitting basis         ... AVAILABLE
   # of basis functions in Aux-C            ...   1473
   # of shells in Aux-C                     ...    439
   Maximum angular momentum in Aux-C        ...      4
Auxiliary 'external' fitting basis          ... NOT available
Integral threshold                          ...     2.500000e-11
Primitive cut-off                           ...     2.500000e-12
Primitive pair pre-selection threshold      ...     2.500000e-12

Calculating pre-screening integrals         ... done (  0.0 sec) Dimension = 292
Calculating pre-screening integrals (ORCA)  ... done (  0.1 sec) Dimension = 214
Organizing shell pair data                  ... done (  0.2 sec)
Shell pair information
Total number of shell pairs                 ...     42778
Shell pairs after pre-screening             ...     22989
Total number of primitive shell pairs       ...     60112
Primitive shell pairs kept                  ...     28658
          la=0 lb=0:   6828 shell pairs
          la=1 lb=0:   6730 shell pairs
          la=1 lb=1:   1548 shell pairs
          la=2 lb=0:   3630 shell pairs
          la=2 lb=1:   1675 shell pairs
          la=2 lb=2:    477 shell pairs
          la=3 lb=0:   1189 shell pairs
          la=3 lb=1:    550 shell pairs
          la=3 lb=2:    302 shell pairs
          la=3 lb=3:     60 shell pairs

Calculating one electron integrals          ... done (  0.1 sec)
Calculating RI/J V-Matrix + Cholesky decomp.... done (  1.6 sec)
Calculating RI/JK V-Matrix + Cholesky decomp... done (  0.4 sec)
Calculating RI/C V-Matrix + Cholesky decomp.... done (  0.2 sec)
Calculating Nuclear repulsion               ... done (  0.0 sec) ENN=    735.660488574714 Eh

SHARK setup successfully completed in   3.0 seconds

Maximum memory used throughout the entire GTOINT-calculation: 35.5 MB


           ************************************************************
           *        Program running with 48 parallel MPI-processes    *
           *              working on a common directory               *
           ************************************************************
------------
SCF SETTINGS
------------
Hamiltonian:
 Ab initio Hamiltonian  Method          .... Hartree-Fock(GTOs)


General Settings:
 Integral files         IntName         .... pentenoic_anhydride_sp
 Hartree-Fock type      HFTyp           .... RHF
 Total Charge           Charge          ....    0
 Multiplicity           Mult            ....    1
 Number of Electrons    NEL             ....   98
 Basis Dimension        Dim             ....  586
 Nuclear Repulsion      ENuc            ....    735.6604885747 Eh

Convergence Acceleration:
 DIIS                   CNVDIIS         .... off
 Trust-Rad. Augm. Hess. CNVTRAH         .... auto
   Auto Start mean grad. ratio tolernc. ....  1.125000
   Auto Start start iteration           ....     1
   Auto Start num. interpolation iter.  ....    10
   Max. Number of Micro iterations      ....    16
   Max. Number of Macro iterations      .... Maxiter - #DIIS iter
   Number of Davidson start vectors     ....     2
   Converg. threshold I  (grad. norm)   ....   1.000e-05
   Converg. threshold II (energy diff.) ....   1.000e-08
   Grad. Scal. Fac. for Micro threshold ....   0.100
   Minimum threshold for Micro iter.    ....   0.010
   NR start threshold (gradient norm)   ....   0.001
   Initial trust radius                 ....   0.400
   Minimum AH scaling param. (alpha)    ....   1.000
   Maximum AH scaling param. (alpha)    .... 1000.000
   Orbital update algorithm             .... Taylor
   White noise on init. David. guess    .... on
   Maximum white noise                  ....   0.010
   Quad. conv. algorithm                .... NR
 SOSCF                  CNVSOSCF        .... off
 Level Shifting         CNVShift        .... off
 Zerner damping         CNVZerner       .... off
 Static damping         CNVDamp         .... off
 Fernandez-Rico         CNVRico         .... off

SCF Procedure:
 Maximum # iterations   MaxIter         ....   500
 SCF integral mode      SCFMode         .... Direct
   Integral package                     .... SHARK and LIBINT hybrid scheme
 Reset frequency        DirectResetFreq ....    20
 Integral Threshold     Thresh          ....  2.500e-11 Eh
 Primitive CutOff       TCut            ....  2.500e-12 Eh

Convergence Tolerance:
 Convergence Check Mode ConvCheckMode   .... Total+1el-Energy
 Convergence forced     ConvForced      .... 1
 Energy Change          TolE            ....  1.000e-08 Eh
 1-El. energy change                    ....  1.000e-05 Eh


Diagonalization of the overlap matrix:
Smallest eigenvalue                        ... 2.227e-04
Time for diagonalization                   ...    0.051 sec
Threshold for overlap eigenvalues          ... 1.000e-08
Number of eigenvalues below threshold      ... 0
Time for construction of square roots      ...    0.086 sec
Total time needed                          ...    0.184 sec

Atom 0: N(Shells)= 10 and 6 - projection required

--------------------
CPCM SOLVATION MODEL
--------------------
CPCM parameters:
  Epsilon                                         ...       4.7113
  Refrac                                          ...       1.4459
  Rsolv                                           ...       1.3000
  Surface type                                    ... GAUSSIAN VDW
  Epsilon function type                           ...         CPCM
Solvent:                                     ... CHLOROFORM
SMD-CDS solvent descriptors:
  Soln                                       ...    1.4459
  Soln25                                     ...    1.4431
  Sola                                       ...    0.1500
  Solb                                       ...    0.0200
  Solg                                       ...   38.3900
  Solc                                       ...    0.0000
  Solh                                       ...    0.7500
Radii:
 Radius for O  used is    3.8248 Bohr (=   2.0240 Ang.)
 Radius for C  used is    3.4960 Bohr (=   1.8500 Ang.)
 Radius for H  used is    2.2677 Bohr (=   1.2000 Ang.)
Calculating surface                               ...        done! (  0.0s)
GEPOL surface points                              ...         1600
GEPOL Volume                                      ...    1497.8247
GEPOL Surface-area                                ...     892.8518
Calculating surface distance matrix               ...        done! (  0.0s)
Performing Cholesky decomposition & store         ...        done! (  0.9s)
Overall time for CPCM initialization              ...                 1.0s
--------------
SCF ITERATIONS
--------------
ITER       Energy         Delta-E        Max-DP      RMS-DP      [F,P]   Gradient Norm
               ***  Starting incremental Fock matrix formation  ***
 re-compute Schwartz prescreening matrix in partically contracted basis ...done (   0.018 sec)
                             ****Resetting KDIIS****
                             ****Turning on KDIIS(Cayley)****
  0   -611.5736540682   0.000000000000 0.01477705  0.00015091  0.0293344   0.056523974
  1   -611.5848844310  -0.011230362772 0.02693385  0.00028370  0.0253911   0.050519503
  2   -611.6016758264  -0.016791395412 0.05853866  0.00057235  0.0214233   0.042307386
  3   -611.6249168522  -0.023241025825 0.10650993  0.00108229  0.0129418   0.026396612
  4   -611.6416173384  -0.016700486210 0.02075558  0.00028673  0.0050607   0.006141082
  5   -611.6422482724  -0.000630933948 0.01335451  0.00017605  0.0026546   0.003310668
  6   -611.6424290832  -0.000180810840 0.00816278  0.00009685  0.0014907   0.002233016
  7   -611.6424941447  -0.000065061439 0.00533167  0.00006572  0.0010732   0.001417853
  8   -611.6425183712  -0.000024226551 0.00686189  0.00006692  0.0009608   0.001116650
  9   -611.6425381811  -0.000019809859 0.00285712  0.00002731  0.0002582   0.000375444
 10   -611.6425418486  -0.000003667545 0.00128386  0.00001360  0.0002006   0.000240941
 11   -611.6425428908  -0.000001042182 0.00125600  0.00001295  0.0001733   0.000204459
 12   -611.6425435593  -0.000000668515 0.00085216  0.00000862  0.0001288   0.000136450
 13   -611.6425438849  -0.000000325546 0.00040909  0.00000436  0.0000418   0.000062957
 14   -611.6425439674  -0.000000082545 0.00013005  0.00000220  0.0000422   0.000044866
 15   -611.6425440048  -0.000000037405 0.00015000  0.00000239  0.0000198   0.000027801
 16   -611.6425440275  -0.000000022656 0.00007916  0.00000131  0.0000229   0.000022814
 17   -611.6425440386  -0.000000011169 0.00004787  0.00000080  0.0000205   0.000017431
 18   -611.6425440426  -0.000000003978 0.00003756  0.00000057  0.0000099   0.000010963
 19   -611.6425440470  -0.000000004334 0.00004209  0.00000054  0.0000069   0.000007674
               *** Restarting incremental Fock matrix formation ***
                             ****Resetting KDIIS****
 20   -611.6425440128   0.000000034152 0.00000258  0.00000003  0.0000050   0.000005893
                 **** Energy Check signals convergence ****
                    *** KDIIS BlockDiag ( 0.113 sec) ***

               *****************************************************
               *                     SUCCESS                       *
               *           SCF CONVERGED AFTER  21 CYCLES          *
               *****************************************************


SMD CDS free energy correction energy :                -2.27682     Kcal/mol
Total Energy after SMD CDS correction =              -611.646172365 Eh
Total Energy       :         -611.64617237 Eh          -16643.73850 eV
  Last Energy change         ...   -2.7328e-09  Tolerance :   1.0000e-08
  Last MAX-Density change    ...    6.5613e-06  Tolerance :   1.0000e-07
             **** THE GBW FILE WAS UPDATED (pentenoic_anhydride_sp.gbw) ****
             **** DENSITY pentenoic_anhydride_sp.scfp WAS UPDATED ****
             **** ENERGY FILE WAS UPDATED (pentenoic_anhydride_sp.en.tmp) ****
             **** THE GBW FILE WAS UPDATED (pentenoic_anhydride_sp.gbw) ****
             **** DENSITY pentenoic_anhydride_sp.scfp WAS UPDATED ****
Total SCF time: 0 days 0 hours 1 min 33 sec 

Maximum memory used throughout the entire SCF-calculation: 254.1 MB


           ************************************************************
           *        Program running with 48 parallel MPI-processes    *
           *              working on a common directory               *
           ************************************************************


--------------------------------------------------------------------------------
                             ORCA-MATRIX DRIVEN CI
--------------------------------------------------------------------------------


Wavefunction type
-----------------
Correlation treatment                      ...      CCSD     
Single excitations                         ... ON
Orbital optimization                       ... OFF
[...]
Strategy for PNO selection                  .... occupation number selection
Pair density normalization                  .... MP2 norm
Spin component scaling                      .... not used

   .... Finished loop over pairs
Making pair pair interaction lists          ... done

                       ===========================
                        312 OF  661 PAIRS ARE KEPT CCSD PAIRS
                        118 OF  661 PAIRS ARE KEPT MP2 PAIRS FOR (T)
                        231 OF  661 PAIRS ARE SKIPPED
                       ===========================

Total time spent in the initial guess                 ...     2.609 sec
SL-MP2 correlation energy (all non-screened pairs)    ...      -2.229147558021 Eh

Initial PNO correlation energy                        ...      -2.219476529848 Eh
sum of pair energies prescreened and skipped MP2 pairs...      -0.000519206469 Eh
sum of pair energies of crude MP2 skipped pairs only  ...      -0.000518889324 Eh
sum of MP2 pair energies for pairs that were not kept ...      -0.004323968523 Eh
sum of PNO error estimates for the kept pairs         ...      -0.005347059650 Eh
                                                          --------------------
sum of all corrections                                         -0.009671345318
Initial total correlation energy                               -2.229147875166
Thresholds for map construction and integral transformation for fine MP2 and CCSD(T) calculation:
   TCutMKN   ...     1.0e-03
   TCutDO    ...     1.0e-02
   TCutPairs ...     1.0e-04
   TCutCMO   ...     1.0e-03
   TCutCPAO  ...     1.0e-03

Thresholds for map construction and integral transformation for strong Triples:
   TCutMKN   ...     1.0e-02
   TCutDO    ...     2.0e-02
   TCutCMO   ...     1.0e-03
   TCutCPAO  ...     1.0e-03

Thresholds for map construction and integral transformation for weak Triples:
   TCutMKN   ...     1.0e-01
   TCutDO    ...     4.0e-02
   TCutCMO   ...     1.0e-03
   TCutCPAO  ...     1.0e-03

--------------------------------
LOCAL RI TRANSFORMATION (IAVPAO)
--------------------------------

Orbital window:      13 to 48
Number of PAOs:     586
Basis functions:    586 (214 shells)
Aux. functions:    1473 (439 shells)
Use SHARK:           on

Processing maps (0.0 sec)
Average map sizes:
   Aux shells -> MOs              29.4
   Aux shells -> PAOs            586.0
   MOs        -> AO shells       166.5
   PAOs       -> AO shells       189.8

Calculating integrals (0.9 sec, 194.981 MB)
Sorting integrals (0.5 sec, 193.523 MB)
Total time for the integral transformation: 1.9 sec
--------------------------------
INITIAL GUESS AND PNO GENERATION
--------------------------------

PNO truncation parameters                   .... 
    PAOOverlapThresh   =        1.000e-08

    TCutPairs          =        1.000e-04
    TCutPNO            =        3.330e-07
    TCutPNOSingles     =        9.990e-09
    TCutMP2Pairs       =        1.000e-05
    TCutMKN            =        1.000e-03
    TCutDO             =        1.000e-02

Pair selection                          .... not used
Type of local MP2 treatment                 .... semi-local MP2
Strategy for PNO selection                  .... occupation number selection
Pair density normalization                  .... MP2 norm
Spin component scaling                      .... not used

   .... Finished loop over pairs

 PNO Occupation Number Statistics: 
  | Av. % of trace(Dij) retained        ...  97.524564960321
  | sigma^2 in % of trace(Dij) retained ...   9.40e+00
  | Av. % of trace(Di) retained         ...  99.999176146229
  | sigma^2 in % of trace(Di) retained  ...   6.26e-08
 Distributions of % trace(Dij) recovered:
  |       >= 99.9  ...   100 ( 23.3 % of all pairs)
  |   [80.0, 90.0) ...    12 (  2.8 % of all pairs)
  |   [90.0, 99.0) ...   213 ( 49.5 % of all pairs)
  |   [99.0, 99.9) ...   105 ( 24.4 % of all pairs)
 Distributions of % trace(Di) recovered :
  |       >= 99.9  ...    36 (100.0 % of all I-pairs )

Making pair pair interaction lists          ... done

                       ===========================
                        312 OF  430 PAIRS ARE KEPT
                       ===========================

Total time spent in the initial guess                 ...     5.106 sec
SL-MP2 correlation energy (all non-screened pairs)    ...      -2.229843420568 Eh

Initial PNO correlation energy                        ...      -2.220673600394 Eh
sum of pair energies estimated for screened out pairs ...      -0.000519206469 Eh
sum of MP2 pair energies for pairs that were not kept ...      -0.003811409586 Eh
sum of PNO error estimates for the kept pairs         ...      -0.005358410588 Eh
                                                          --------------------
sum of all corrections                                         -0.009689026643
Initial total correlation energy                               -2.230362627037
Thresholds for map construction and integral transformation for fine MP2 and CCSD(T) calculation:
   TCutMKN   ...     1.0e-03
   TCutDO    ...     1.0e-02
   TCutPairs ...     1.0e-04
   TCutCMO   ...     1.0e-03
   TCutCPAO  ...     1.0e-03

Time for aux screen maps:            0.007
Time for maps after fine MP2:            0.026
-----------------------------
LOCAL RI TRANSFORMATION (IJV)
-----------------------------

Orbital window:      13 to 48
Basis functions:    586 (214 shells)
Aux. functions:    1473 (439 shells)
Use SHARK:           on

Processing maps (0.0 sec)
Average map sizes:
   Aux shells -> MOs(i)           25.0
   Aux shells -> MOs(j)           36.0
   MOs        -> AO shells       166.5

Calculating integrals (1.0 sec, 10.214 MB)
Sorting integrals (0.3 sec, 10.198 MB)
Total time for the integral transformation: 1.8 sec
--------------------------------
LOCAL RI TRANSFORMATION (VABPAO)
--------------------------------

Number of PAOs:     586
Basis functions:    586 (214 shells)
Aux. functions:    1473 (439 shells)
Use SHARK:           on

Processing maps (0.0 sec)
Average map sizes:
   Aux shells -> PAOs            523.3
   PAOs       -> AO shells       189.8

Calculating integrals (2.8 sec, 3130.498 MB)
Finished


-------------------------------------
Pair Pair Term precalculation with     
RI-(ij|mn) and (im|jn) transformation  
ON THE FLY                             
-------------------------------------

   IBatch   1 (of   1)              ... done (   19.003 sec)
Total EXT                           ...          19.003 sec

---------------------
RI-PNO TRANSFORMATION
---------------------

Total Number of PNOs                   ...  9734
Average number of PNOs per pair        ...    31
Maximal number of PNOs per pair        ...    62
   #pairs with  1 -  5 PNOs   :    0
   #pairs with  6 - 10 PNOs   :    7
   #pairs with 11 - 15 PNOs   :   42
   #pairs with 16 - 20 PNOs   :   35
   #pairs with 21 - 25 PNOs   :   29
   #pairs with 26 - 30 PNOs   :   37
   #pairs with 31 - 35 PNOs   :   40
   #pairs with 36 - 40 PNOs   :   26
   #pairs with 41 - 45 PNOs   :   35
   #pairs with 46 - 50 PNOs   :   31
   #pairs with 51 - 55 PNOs   :   28
   #pairs with 61 - 65 PNOs   :    2

Generation of (ij|ab)[P] integrals            ... on
Generation of (ia|bc)[P],(ja|bc)[P] integrals ... on
Storage of 3 and 4 external integrals         ... on
Generation of ALL (ka|bc)[P] integrals        ... on
Keep RI integrals in memory                   ... off

Ibatch:  1 (of  1)
Starting 2-4 index PNO integral generation ... done

Timings:
Total PNO integral transformation time     ...         19.056 sec
Size of the 3-external file                ...       115 MB
Size of the 4-external file                ...       647 MB
Size of the IKJL file                      ...         0 MB
Size of the all 3-external file            ...      1643 MB
Size of the 1-external file                ...         6 MB

Making pair/pair overlap matrices          ... done (    1.705 sec)
Size of the pair overlap file              ... 495 MB
Redoing the guess amplitudes               ... done (    0.032 sec)

-------------------------
FINAL STARTUP INFORMATION
-------------------------

E(0)                                       ...   -611.646172377
E(SL-MP2)                                  ...     -2.229843421
E(SL-MP2) including corrections            ...     -2.230362627
Initial E(tot)                             ...   -613.876535004
<T|T>                                      ...      0.607551937
Number of pairs included                   ... 312
Total number of pairs                      ... 666

------------------------------------------------
                  RHF COUPLED CLUSTER ITERATIONS
------------------------------------------------

Number of PNO amplitudes to be optimized   ...       359894
Number of non-PNO amplitudes               ...     89971128
Untruncated number of regular amplitudes   ...    192053754

Iter       E(tot)           E(Corr)          Delta-E          Residual     Time
  0   -613.876620351     -2.220758947      0.009084473      0.017234016   49.31
                           *** Turning on DIIS ***
  1   -613.956238108     -2.300376704     -0.079617757      0.013111395   52.55
  2   -614.015373553     -2.359512149     -0.059135445      0.006954935   52.17
  3   -614.028348710     -2.372487306     -0.012975157      0.003726303   53.28
  4   -614.032432067     -2.376570663     -0.004083357      0.001819505   52.18
  5   -614.033616306     -2.377754902     -0.001184239      0.000686451   53.19
  6   -614.033863996     -2.378002592     -0.000247691      0.000202452   53.04
  7   -614.033876167     -2.378014764     -0.000012171      0.000098603   53.13
  8   -614.033879190     -2.378017786     -0.000003023      0.000048911   48.53
  9   -614.033865797     -2.378004393      0.000013393      0.000020249   50.30
 10   -614.033868928     -2.378007524     -0.000003131      0.000006406   50.02
               --- The Coupled-Cluster iterations have converged ---

----------------------
COUPLED CLUSTER ENERGY
----------------------

E(0)                                       ...   -611.646172377
E(CORR)(strong-pairs)                      ...     -2.378007524
E(CORR)(weak-pairs)                        ...     -0.009689027
E(CORR)(corrected)                         ...     -2.387696551
E(TOT)                                     ...   -614.033868928
Singles Norm <S|S>**1/2                    ...      0.105941069  
T1 diagnostic                              ...      0.012485275  

------------------
LARGEST AMPLITUDES
------------------
  34-> 49  34-> 49       0.062395
  31-> 49  31-> 49       0.062359
  32-> 49  32-> 49       0.062239
  33-> 49  33-> 49       0.062185
  32-> 49  31-> 49       0.054503
  34-> 49  33-> 49       0.054492
  23-> 49  23-> 49       0.052590
  26-> 49  26-> 49       0.052547
  27-> 49  27-> 49       0.051843
  22-> 49  22-> 49       0.051842
  23-> 49  22-> 49       0.041524
  27-> 49  26-> 49       0.041506
  47-> 52  47-> 52       0.039885
  45-> 52  45-> 52       0.039885
  29-> 51  29-> 51       0.039605
  30-> 51  30-> 51       0.038985


-------------------------------------------
DLPNO BASED TRIPLES CORRECTION
-------------------------------------------

Singles multiplier          ...  1.000000
TCutTNO                     ... 1.000e-09
TCutMP2Pairs                ... 1.000e-05
TCutDOStrong                ... 2.000e-02
TCutMKNStrong               ... 1.000e-02
TCutDOWeak                  ... 4.000e-02
TCutMKNWeak                 ... 1.000e-01

Fragment selection                          .... not used
Fock matrix occ-virt block is zero --> Setting DT_in_Triples to false.
Number of Triples that are to be computed   ...      2426

 . . . . . . . . .
10% done  
20% done  
30% done  
40% done  
50% done  
60% done  
70% done  
80% done  
90% done               (     28.316 sec)
Triples timings:
Total time for T0               ...    32.448 sec
Total time for Iterative (T)    ...     0.000 sec
Total time of overall (T)       ...    35.748 sec

Triples List generation         ...     0.000 sec
TNO generation                  ...     4.034 sec
Pair density generation         ...     0.014 sec
Look up tables                  ...     0.000 sec
Generating 3-index integrals    ...    21.331 sec
  Make 4-ind.int. from 3-ind.int...     1.703 sec
  Projecting amplitudes (D + S) ...     3.122 sec
  Downprojecting integrals      ...     0.000 sec
  Energy contr. (sum over a,b,c)...     0.396 sec
Fitting ET(->0)                 ...     0.000 sec

Everything after 3-index        ...     6.985 sec

Timing details:
 TNO integrals                  ...    22.904 sec
   Reading 3-index integrals    ...     1.933 sec
   Sorting integrals            ...     2.467 sec
       Sorting integrals 1      ...     0.000 sec
       Sorting integrals 2      ...     1.969 sec
       Sorting integrals 3      ...     0.075 sec
       Sorting integrals 4      ...     0.006 sec
       Sorting integrals 5      ...     0.042 sec
       Sorting integrals 6      ...     0.374 sec
   Calculating local VM**-1/2   ...     0.085 sec
   Orthogonal. integrals        ...     0.162 sec
   Multipl. 3-index integrals   ...    18.256 sec
   All concerning IRIab (w/TNO) ...     0.992 sec

 Calculate W0/W1                ...     1.763 sec
 W 3-ext contribution           ...     1.013 sec
 W 3-int contribution           ...     0.319 sec
 Sorting W                      ...     0.394 sec

 V exchange contribution        ...     0.156 sec

 Timings for Triples without generation
     of 3-index integrals       ...     6.984 sec
       0 weak pairs             ...     5.785 sec
       1 weak pair              ...     1.199 sec
       2 weak pairs             ...     0.000 sec
       3 weak pairs             ...     0.000 sec
  Extra time for extrapolation  ...     0.000 sec

Number of Triples   (0, 1, 2, 3 weak pairs; overall):   1594     832       0       0  (  2426)
Number of Atoms     (0, 1, 2, 3 weak pairs; overall):   13.3    12.1     0.0     0.0  (    27)
Number of PAOs      (0, 1, 2, 3 weak pairs; overall):  311.4   301.0     0.0     0.0  (   586)
Number of AuxFcns   (0, 1, 2, 3 weak pairs; overall):  375.5   366.8     0.0     0.0  (  1473)
Number of TNOs      (0, 1, 2, 3 weak pairs         ):   81.1    56.9     0.0     0.0
Aver. Number of NTNO, Atoms, PAOs, AuxFcns / Triples:   2426    72.8    12.9   307.8   372.5

Triples Correction (T)                     ...     -0.100605417
Final correlation energy                   ...     -2.488301967
E(CCSD)                                    ...   -614.033868928
E(CCSD(T))                                 ...   -614.134474345



--------------------------------------------------------------------------------
                                    TIMINGS
--------------------------------------------------------------------------------


Total execution time                   ...      680.234 sec

Localization of occupied MO's          ...        1.385 sec (  0.2%)
Fock Matrix Formation                  ...        7.987 sec (  1.2%)
Global overlap, Fock, MKN matrices     ...        1.249 sec (  0.2%)
Differential overlap integrals         ...        5.502 sec (  0.8%)
Organizing maps                        ...        0.059 sec (  0.0%)
RI 3-index integral generations        ...        8.846 sec (  1.3%)
RI-PNO integral transformation         ...       42.715 sec (  6.3%)
Initial Guess                          ...        7.835 sec (  1.2%)
DIIS Solver                            ...        5.530 sec (  0.8%)
State Vector Update                    ...        0.046 sec (  0.0%)
Sigma-vector construction              ...      562.129 sec ( 82.6%)
  <D|H|D>(0-ext)                       ...       67.852 sec ( 12.1% of sigma)
  <D|H|D>(2-ext Fock)                  ...        0.003 sec (  0.0% of sigma)
  <D|H|D>(2-ext)                       ...       14.513 sec (  2.6% of sigma)
  <D|H|D>(4-ext)                       ...        3.171 sec (  0.6% of sigma)
  <D|H|D>(4-ext-corr)                  ...        6.020 sec (  1.1% of sigma)
  CCSD doubles correction              ...        7.496 sec (  1.3% of sigma)
  <S|H|S>                              ...       56.975 sec ( 10.1% of sigma)
  <S|H|D>(1-ext)                       ...        0.406 sec (  0.1% of sigma)
  <D|H|S>(1-ext)                       ...        0.005 sec (  0.0% of sigma)
  <S|H|D>(3-ext)                       ...        0.277 sec (  0.0% of sigma)
  Fock-dressing                        ...      157.461 sec ( 28.0% of sigma)
  Singles amplitudes                   ...       41.239 sec (  7.3% of sigma)
  (ik|jl)-dressing                     ...      125.362 sec ( 22.3% of sigma)
  (ij|ab),(ia|jb)-dressing             ...       59.520 sec ( 10.6% of sigma)
  Pair energies                        ...        0.192 sec (  0.0% of sigma)
Total Time for computing (T)           ...       35.757 sec (  5.3% of ALL)


Maximum memory used throughout the entire MDCI-calculation: 1348.0 MB

-------------------
EXTRAPOLATED ENERGY
-------------------

NOTE: In case the method needs a correlation auxilliary basis set, for the calculation
      with the cc-pVDZ basis set, we will use the corresponding triple zeta auxilliary basis set.

-----------------------------------------------------------------
                      EP1 - MDCI extrapolation:
-----------------------------------------------------------------
NOTE: We use as reference SCF energy, for the extrapolation, the one from the MDCI module and not the one 
from the SCF calculation. In case the first step is a DFT calculation these two might be different.

NOTE: For the SCF part we extrapolate based on the scheme proposed in J. Chem. Phys. 2008, 129, 184116
using the exponents from J. Chem. Theory Comput., 7, 33-43 (2011)

NOTE: For the correlation part we extrapolate based on the scheme proposed in J. Chem. Phys. 1997, 106, 9639
using the exponents from J. Chem. Theory Comput., 7, 33-43 (2011)


Alpha(2/3)     :  4.420 (SCF Extrapolation)
Beta(2/3)      :  2.460 (correlation extrapolation)

SCF energy with basis cc-pVDZ:                         -611.476130408
SCF energy with basis cc-pVTZ:                         -611.646172377
Extrapolated CBS SCF energy (2/3) :                    -611.701472786 (-0.055300409) 

MDCI energy with basis cc-pVDZ:                          -2.042989989
MDCI energy with basis cc-pVTZ:                          -2.488301967
Extrapolated CBS correlation energy (2/3) :              -2.748513930 (-0.260211963)

Estimated CBS total energy (2/3) :                     -614.449986716



-------------------------   --------------------
FINAL SINGLE POINT ENERGY      -614.449986715936
-------------------------   --------------------


                            ***************************************
                            *     ORCA property calculations      *
                            ***************************************


  WARNING: The energy has been calculated at the MDCI level but the densities
           used in the property calculations are still SCF densities
           MDCI response densities have not been calculated 
           use %mdci Density linearized end
           or  %mdci Density unrelaxed end
           or  %mdci Density orbopt end

                                    ---------------------
                                    Active property flags
                                    ---------------------



Timings for individual modules:

Sum of individual times         ...     1042.195 sec (=  17.370 min)
GTO integral calculation        ...       10.666 sec (=   0.178 min)   1.0 %
SCF iterations                  ...      109.885 sec (=   1.831 min)  10.5 %
MDCI module                     ...      921.644 sec (=  15.361 min)  88.4 %
                             ****ORCA TERMINATED NORMALLY****
TOTAL RUN TIME: 0 days 0 hours 17 minutes 29 seconds 643 msec
