
                                 *****************
                                 * O   R   C   A *
                                 *****************

                                            #,                                       
                                            ###                                      
                                            ####                                     
                                            #####                                    
                                            ######                                   
                                           ########,                                 
                                     ,,################,,,,,                         
                               ,,#################################,,                 
                          ,,##########################################,,             
                       ,#########################################, ''#####,          
                    ,#############################################,,   '####,        
                  ,##################################################,,,,####,       
                ,###########''''           ''''###############################       
              ,#####''   ,,,,##########,,,,          '''####'''          '####       
            ,##' ,,,,###########################,,,                        '##       
           ' ,,###''''                  '''############,,,                           
         ,,##''                                '''############,,,,        ,,,,,,###''
      ,#''                                            '''#######################'''  
     '                                                          ''''####''''         
             ,#######,   #######,   ,#######,      ##                                
            ,#'     '#,  ##    ##  ,#'     '#,    #''#        ,####,    ,#,          
            ##       ##  ##   ,#'  ##            #'  '#       #'       ,# #          
            ##       ##  #######   ##           ,######,      #####,      #          
            '#,     ,#'  ##    ##  '#,     ,#' ,#      #,     #,   #      #          
             '#######'   ##     ##  '#######'  #'      '#     '####' #    #          



                #########################################################
                #                        -***-                          #
                #          Department of theory and spectroscopy        #
                #                                                       #
                #                      Frank Neese                      #
                #                                                       #
                #     Directorship, Architecture, Infrastructure        #
                #                    SHARK, DRIVERS                     #
                #        Core code/Algorithms in most modules           #
                #                                                       #
                #        Max Planck Institute fuer Kohlenforschung      #
                #                Kaiser Wilhelm Platz 1                 #
                #                 D-45470 Muelheim/Ruhr                 #
                #                      Germany                          #
                #                                                       #
                #                  All rights reserved                  #
                #                        -***-                          #
                #########################################################


                         Program Version 6.1.0  -  RELEASE   -
                                (GIT: $679e74b$)
                          ($2025-06-10 18:02:51 +0200$)


 With contributions from (in alphabetic order):
[Max-Planck-Institut fuer Kohlenforschung]                               
  Daniel Aravena         : Magnetic Suceptibility                        
  Michael Atanasov       : Ab Initio Ligand Field Theory (pilot matlab implementation)
  Alexander A. Auer      : GIAO ZORA, VPT2 properties, NMR spectrum      
  Ute Becker             : All parallelization in ORCA, NUMFREQ, NUMCALC 
  Giovanni Bistoni       : ED, misc. LED, open-shell LED, HFLD           
  Dmytro Bykov           : pre 5.0 version of the SCF Hessian            
  Marcos Casanova-Páez   : Triplet and SCS-CIS(D). UHF-(DLPNO)-IP/EA/STEOM-CCSD. UHF-CVS-IP/STEOM-CCSD   
  Vijay G. Chilkuri      : MRCI spin determinant printing, contributions to CSF-ICE 
  Pauline Colinet        : FMM embedding                                 
  Dipayan Datta          : RHF DLPNO-CCSD density                        
  Achintya Kumar Dutta   : EOM-CC, STEOM-CC                              
  Nicolas Foglia         : Exact transition moments, OPA infrastructure, MCD improvements    
  Dmitry Ganyushin       : Spin-Orbit,Spin-Spin,Magnetic field MRCI      
  Miquel Garcia-Rates    : C-PCM and meta-GGA Hessian, CCSD/C-PCM, Gaussian charge scheme 
  Tiago L. C. Gouveia    : GS-ROHF, GS-ROCIS                             
  Yang Guo               : DLPNO-NEVPT2, F12-NEVPT2, CIM, IAO-localization        
  Andreas Hansen         : Spin unrestricted coupled pair/coupled cluster methods 
  Ingolf Harden          : AUTO-CI MPn and infrastructure                
  Benjamin Helmich-Paris : MC-RPA, TRAH-(SCF,CASSCF), AVAS, COSX integrals, SCF dyn. polar., MC-PDFT, srDFT 
  Lee Huntington         : MR-EOM, pCC                                   
  Robert Izsak           : Overlap fitted RIJCOSX, COSX-SCS-MP3, EOM     
  Riya Kayal             : Wick's Theorem for AUTO-CI, AUTO-CI UHF-CCSDT 
  Emily Kempfer          : AUTO-CI RHF CISDT and CCSDT, approximate NEVPT4
  Christian Kollmar      : KDIIS, OOCD, Brueckner-CCSD(T), CCSD density, CASPT2, CASPT2-K, improved NEVPT2 
  Axel Koslowski         : Symmetry handling                             
  Simone Kossmann        : meta-GGA functionals, TD-DFT gradient, OOMP2, (MP2 Hessian; deprecated post 5.0) 
  Lucas Lang             : DCDCAS, Hyperfine gauge corrections, ICE-SOC+SSC
  Marvin Lechner         : AUTO-CI (C++ implementation), FIC-MRCC        
  Spencer Leger          : CASSCF response                               
  Dagmar Lenk            : GEPOL surface, SMD, ORCA-2-JSON               
  Dimitrios Liakos       : Extrapolation schemes; Compound Job, Property file
  Dimitrios Manganas     : Further ROCIS development; embedding schemes. LFT, Crystal Embedding 
  Dimitrios Pantazis     : SARC Basis sets                               
  Anastasios Papadopoulos: AUTO-CI, single reference methods and gradients 
  Taras Petrenko         : pre 6.0 DFT Hessian and TD-DFT gradient,  ECA, NRVS 
  Petra Pikulova         : Analytic Raman intensities                    
  Peter Pinski           : DLPNO-MP2, DLPNO-MP2 Gradient                 
  Shashank Vittal Rao    : ES-AILFT, MagRelax                            
  Christoph Reimann      : Effective Core Potentials                     
  Marius Retegan         : Local ZFS, SOC                                
  Christoph Riplinger    : Optimizer, TS searches, QM/MM, DLPNO-CCSD(T), (RO)-DLPNO pert. Triples 
  Michael Roemelt        : Original ROCIS implementation, recursive CI coupling coefficients
  Masaaki Saitow         : Open-shell DLPNO-CCSD energy and density      
  Barbara Sandhoefer     : DKH picture change effects                    
  Yorick L. A. Schmerwitz: GMF and freeze-and-release deltaSCF, NEB S-IDPP initial path                    
  Kantharuban Sivalingam : CASSCF convergence/infrastructure, NEVPT2, NEVPT3, NEVPT4(SD), FIC-MRCI and CEPA variants
  Bernardo de Souza      : ESD, SOC TD-DFT                               
  Georgi L. Stoychev     : AutoAux, RI-MP2 NMR, DLPNO-MP2 response, X2C  
  Van Anh Tran           : RI-MP2 g-tensors                              
  Willem Van den Heuvel  : Paramagnetic NMR                              
  Zikuan Wang            : NOTCH, Electric field optimization            
  Frank Wennmohs         : Technical directorship and infrastructure     
  Hang Xu                : AUTO-CI-Response properties                   
                                                                         
[FACCTs GmbH]                                                            
  Markus Bursch, Nicolas Foglia, Miquel Garcia-Rates, Ingolf Harden, Hagen Neugebauer, Anastasios Papadopoulos, 
  Christoph Riplinger, Bernardo de Souza, Georgi L. Stoychev                                                    
                                                                 
  APM, various basis sets, CI-OPT, improved COSX, DLPNO-Multilevel,           
  DOCKER, DRACO, updates on ESD, Fragmentator, GOAT, IRC, LR-CPCM, L-BFGS, MBIS, meta-GGA TD-DFT gradient, ML-optimized integration grids, 
  MM, NACMEs, nearIR, NEB, NEB-TS, NL-DFT gradient (VV10), 2- and 3-layer-ONIOM, interface openCOSMO-RS, QMMM,   
  Crystal-QMMM, RESP, rigid body optimization, SF, symmetry and pop. for TD-DFT, various functionals, SOLVATOR                                   
                                                                         
[Other institutions]                                                     
  V. Asgeirsson          : NEB                                           
  Christoph Bannwarth    : sTDA-DFT, sTD-DFT, PBEh-3c, B97-3c, D3        
  Giovanni Bistoni       : ETS/NOCV, ADLD/ADEX, COVALED                  
  Martin Brehm           : Molecular dynamics                            
  Ronald Cardenas        : ETS/NOCV                                      
  Martina Colucci        : COVALED                                       
  Sebastian Ehlert       : rSCAN, r2SCAN, r2SCAN-3c, D4, dhf basis sets  
  Marvin Friede          : D4 for Fr, Ra, Ac-Lr                          
  Lars Goerigk           : TD-DFT with DH, B97 family of functionals     
  Stefan Grimme          : VdW corrections, initial TS optimization, DFT functionals, gCP, sTDA/sTD-DF 
  Waldemar Hujo          : DFT-NL                                        
  H. Jonsson             : NEB                                           
  Holger Kruse           : gCP                                           
  Marcel Mueller         : wB97X-3c, vDZP basis set                      
  Hagen Neugebauer       : wr2SCAN, Native XTB                           
  Gianluca Regni         : ADLD/ADEX                                     
  Tobias Risthaus        : pre 6.0 range-separated hybrid DFT and stability analysis
  Lukas Wittmann         : regularized MP2, r2SCAN double-hybrids, wr2SCAN        
                                                                         
We gratefully acknowledge several colleagues who have allowed us to      
interface, adapt or use parts of their codes:                            
  Ed Valeev, F. Pavosevic, A. Kumar             : LibInt (2-el integral package), F12 methods 
  Garnet Chan, S. Sharma, J. Yang, R. Olivares  : DMRG                   
  Ulf Ekstrom                                   : XCFun DFT Library      
  Mihaly Kallay                                 : mrcc  (arbitrary order and MRCC methods)
  Frank Weinhold                                : gennbo (NPA and NBO analysis)           
  Simon Mueller                                 : openCOSMO-RS                            
  Christopher J. Cramer and Donald G. Truhlar   : smd solvation model                     
  S Lehtola, MJT Oliveira, MAL Marques          : LibXC Library                           
  Liviu Ungur et al                             : ANISO software                          


 Your calculation uses the libint2 library for the computation of 2-el integrals
 For citations please refer to: http://libint.valeyev.net

 Your ORCA version has been built with support for libXC version: 7.0.0
 For citations please refer to: https://libxc.gitlab.io

 This ORCA versions uses:
   CBLAS   interface :  Fast vector & matrix operations
   LAPACKE interface :  Fast linear algebra routines
   SCALAPACK package :  Parallel linear algebra routines
   Shared memory     :  Shared parallel matrices
   BLAS/LAPACK       :  OpenBLAS 0.3.29  USE64BITINT DYNAMIC_ARCH NO_AFFINITY Cooperlake SINGLE_THREADED
        Core in use  :  Cooperlake
   Copyright (c) 2011-2014, The OpenBLAS Project


  ***********************************
  * Starting time: Mon Mar  2 16:39:44 2026
  * Host name:     chpc-cn075.rc.cuhk.edu.hk
  * Process ID:    2568968
  * Working dir.:  /ss02/scratch/s1/xlzhang/jingyi/phenol_pka_B
  ***********************************

NOTE: MaxCore=2109 MB was set to SCF,MP2,MDCI,CIPSI,MRCI,RASCI and CIS
      => If you want to overwrite this, your respective input block should be placed after the MaxCore statement
XCFun DFT library Copyright 2009-2010 Ulf Ekstrom and contributors.
See http://admol.org/xcfun for more information.
This is free software; see the source code for copying conditions.
There is ABSOLUTELY NO WARRANTY; not even for MERCHANTABILITY or FITNESS FOR A PARTICULAR PURPOSE.
For details see the documentation.
Scientific users of this library should cite U. Ekstrom, L. Visscher, R. Bast, A. J. Thorvaldsen and K. Ruud;
J.Chem.Theor.Comp. 2010, DOI: 10.1021/ct100117s
XCFun Version 0.99 

Warning: RI is on but no J-basis has been assigned. Assigning Def2/J (nothing to worry about!)
================================================================================

----- Orbital basis set information -----
Your calculation utilizes the basis: def2-SVP
   F. Weigend and R. Ahlrichs, Phys. Chem. Chem. Phys. 7, 3297 (2005).

----- AuxJ basis set information -----
Your calculation utilizes the auxiliary basis: def2/J
   H-Rn: F. Weigend, Phys. Chem. Chem. Phys. 8, 1057 (2006).
   Fr-Lr: K. Eichkorn, F. Weigend, O. Treutler, R. Ahlrichs; Theor. Chem. Acc. 97, 119 (1997).

================================================================================
                                        WARNINGS
                       Please study these warnings very carefully!
================================================================================

WARNING: Functional chosen is sensitive to the integration grid.
         DEFGRID3 seems to be a minimum grid for robust results!

WARNING: Geometry Optimization
  ===> : Switching off AutoStart
         For restart on a previous wavefunction, please use MOREAD

================================================================================
                                       INPUT FILE
================================================================================
NAME = /users/s1155246976/scratch/phenol_pka_B/phenol_pka_B.inp
|  1> ! Opt Freq M062X def2-SVP defgrid2
|  2> # Number of processors
|  3> %pal nprocs 64 end
|  4> # Memory per core
|  5> %maxcore 2109
|  6> * xyz -1 1
|  7> C        1.1188632087   -0.0146102860   -0.1571888087
|  8> C        0.4201635620   -1.0902066527    0.3839458152
|  9> C       -0.9630342548   -0.9961788917    0.5472470704
| 10> C       -1.6351146606    0.1677279819    0.1699394003
| 11> C       -0.9250885213    1.2400039475   -0.3714921604
| 12> C        0.4568758916    1.1481040178   -0.5354833197
| 13> O        2.4701450445   -0.0626495556   -0.3346144593
| 14> H        0.9295661661   -2.0008726801    0.6815611049
| 15> H       -1.5187180001   -1.8298223936    0.9687184053
| 16> H       -2.7122043211    0.2394478615    0.2977145629
| 17> H       -1.4467942180    2.1466793681   -0.6656809037
| 18> H        1.0153509891    1.9791195735   -0.9562893769
| 19> *
| 20> 
| 21>                          ****END OF INPUT****
================================================================================

                       *****************************
                       * Geometry Optimization Run *
                       *****************************

Geometry optimization settings:
Update method            Update   .... BFGS
Choice of coordinates    CoordSys .... (2022) Redundant Internals
Initial Hessian          InHess   .... Almloef's Model
Max. no of cycles        MaxIter  .... 50

Convergence Tolerances:
Energy Change            TolE     ....  5.0000e-06 Eh
Max. Gradient            TolMAXG  ....  3.0000e-04 Eh/bohr
RMS Gradient             TolRMSG  ....  1.0000e-04 Eh/bohr
Max. Displacement        TolMAXD  ....  4.0000e-03 bohr
RMS Displacement         TolRMSD  ....  2.0000e-03 bohr
Strict Convergence                .... False

------------------------------------------------------------------------------
                        ORCA OPTIMIZATION COORDINATE SETUP
------------------------------------------------------------------------------

The optimization will be done in redundant internal coordinates (2022)
Making redundant internal coordinates   ...  (2022 redundants) done
Evaluating the initial hessian          ...  (Almloef) done
Evaluating the coordinates              ...  done
Calculating the B-matrix                .... done
Calculating the G-matrix                .... done
The number of degrees of freedom        ....   54

    -----------------------------------------------------------------
                    Redundant Internal Coordinates


    -----------------------------------------------------------------
         Definition                    Initial Value    Approx d2E/dq
    -----------------------------------------------------------------
      1. B(C   1,C   0)                  1.3921         0.620017   
      2. B(C   2,C   1)                  1.3960         0.611233   
      3. B(C   3,C   2)                  1.3960         0.611243   
      4. B(C   4,C   3)                  1.3954         0.612589   
      5. B(C   5,C   4)                  1.3947         0.614120   
      6. B(C   5,C   0)                  1.3904         0.623857   
      7. B(O   6,C   0)                  1.3637         0.616301   
      8. B(H   7,C   1)                  1.0851         0.366680   
      9. B(H   8,C   2)                  1.0869         0.364204   
     10. B(H   9,C   3)                  1.0870         0.364076   
     11. B(H  10,C   4)                  1.0866         0.364574   
     12. B(H  11,C   5)                  1.0861         0.365330   
     13. A(C   1,C   0,C   5)          120.8583         0.434553   
     14. A(C   1,C   0,O   6)          121.3781         0.430766   
     15. A(C   5,C   0,O   6)          117.7636         0.431244   
     16. A(C   2,C   1,H   7)          119.3151         0.353140   
     17. A(C   0,C   1,C   2)          119.3894         0.432958   
     18. A(C   0,C   1,H   7)          121.2954         0.353994   
     19. A(C   3,C   2,H   8)          119.8777         0.352736   
     20. A(C   1,C   2,H   8)          120.0178         0.352735   
     21. A(C   1,C   2,C   3)          120.1045         0.431850   
     22. A(C   4,C   3,H   9)          119.9410         0.352847   
     23. A(C   2,C   3,H   9)          120.0191         0.352715   
     24. A(C   2,C   3,C   4)          120.0398         0.432022   
     25. A(C   3,C   4,H  10)          120.1280         0.352928   
     26. A(C   3,C   4,C   5)          119.9464         0.432387   
     27. A(C   5,C   4,H  10)          119.9256         0.353077   
     28. A(C   0,C   5,C   4)          119.6616         0.433806   
     29. A(C   4,C   5,H  11)          120.3089         0.353201   
     30. A(C   0,C   5,H  11)          120.0295         0.354144   
     31. D(H   7,C   1,C   0,C   5)   -179.9999         0.026601   
     32. D(H   7,C   1,C   0,O   6)      0.0000         0.026601   
     33. D(C   2,C   1,C   0,O   6)    179.9999         0.026601   
     34. D(C   2,C   1,C   0,C   5)     -0.0000         0.026601   
     35. D(H   8,C   2,C   1,C   0)    180.0000         0.025809   
     36. D(C   3,C   2,C   1,C   0)     -0.0001         0.025809   
     37. D(C   3,C   2,C   1,H   7)    179.9998         0.025809   
     38. D(H   8,C   2,C   1,H   7)     -0.0001         0.025809   
     39. D(H   9,C   3,C   2,H   8)      0.0000         0.025810   
     40. D(H   9,C   3,C   2,C   1)   -179.9999         0.025810   
     41. D(C   4,C   3,C   2,H   8)   -179.9999         0.025810   
     42. D(C   4,C   3,C   2,C   1)      0.0001         0.025810   
     43. D(H  10,C   4,C   3,C   2)    180.0000         0.025930   
     44. D(C   5,C   4,C   3,H   9)    180.0000         0.025930   
     45. D(C   5,C   4,C   3,C   2)     -0.0001         0.025930   
     46. D(H  10,C   4,C   3,H   9)      0.0001         0.025930   
     47. D(H  11,C   5,C   4,H  10)     -0.0000         0.026068   
     48. D(C   0,C   5,C   4,H  10)    179.9999         0.026068   
     49. D(C   0,C   5,C   4,C   3)      0.0000         0.026068   
     50. D(H  11,C   5,C   0,O   6)      0.0001         0.026952   
     51. D(H  11,C   5,C   0,C   1)   -180.0000         0.026952   
     52. D(H  11,C   5,C   4,C   3)   -180.0000         0.026068   
     53. D(C   4,C   5,C   0,O   6)   -179.9999         0.026952   
     54. D(C   4,C   5,C   0,C   1)      0.0001         0.026952   
    -----------------------------------------------------------------

Number of atoms                         .... 12
Number of degrees of freedom            .... 54


         *************************************************************
         *                GEOMETRY OPTIMIZATION CYCLE   1            *
         *************************************************************
---------------------------------
CARTESIAN COORDINATES (ANGSTROEM)
---------------------------------
  C      1.118863   -0.014610   -0.157189
  C      0.420164   -1.090207    0.383946
  C     -0.963034   -0.996179    0.547247
  C     -1.635115    0.167728    0.169939
  C     -0.925089    1.240004   -0.371492
  C      0.456876    1.148104   -0.535483
  O      2.470145   -0.062650   -0.334614
  H      0.929566   -2.000873    0.681561
  H     -1.518718   -1.829822    0.968718
  H     -2.712204    0.239448    0.297715
  H     -1.446794    2.146679   -0.665681
  H      1.015351    1.979120   -0.956289

----------------------------
CARTESIAN COORDINATES (A.U.)
----------------------------
  NO LB      ZA    FRAG     MASS         X           Y           Z
   0 C     6.0000    0    12.011    2.114345   -0.027609   -0.297044
   1 C     6.0000    0    12.011    0.793994   -2.060192    0.725552
   2 C     6.0000    0    12.011   -1.819871   -1.882505    1.034147
   3 C     6.0000    0    12.011   -3.089919    0.316960    0.321139
   4 C     6.0000    0    12.011   -1.748164    2.343268   -0.702018
   5 C     6.0000    0    12.011    0.863370    2.169602   -1.011917
   6 O     8.0000    0    15.999    4.667898   -0.118391   -0.632330
   7 H     1.0000    0     1.008    1.756625   -3.781101    1.287964
   8 H     1.0000    0     1.008   -2.869961   -3.457863    1.830612
   9 H     1.0000    0     1.008   -5.125323    0.452491    0.562599
  10 H     1.0000    0     1.008   -2.734045    4.056636   -1.257955
  11 H     1.0000    0     1.008    1.918735    3.739994   -1.807125

--------------------------------
INTERNAL COORDINATES (ANGSTROEM)
--------------------------------
 C      0   0   0     0.000000000000     0.00000000     0.00000000
 C      1   0   0     1.392090306532     0.00000000     0.00000000
 C      2   1   0     1.395974469748   119.38942662     0.00000000
 C      3   2   1     1.395970042727   120.10447206     0.00000000
 C      4   3   2     1.395371276691   120.03983965     0.00000000
 C      1   2   3     1.390409471097   120.85831302     0.00000000
 O      1   2   3     1.363726597481   121.37807383   179.99989962
 H      2   1   3     1.085070729117   121.29544669   180.00010352
 H      3   2   1     1.086914899701   120.01783464   179.99997614
 H      4   3   2     1.087010749746   120.01911356   180.00005836
 H      5   4   3     1.086638932201   120.12802715   179.99998244
 H      6   1   2     1.086075055472   120.02954841   180.00002541

---------------------------
INTERNAL COORDINATES (A.U.)
---------------------------
 C      0   0   0     0.000000000000     0.00000000     0.00000000
 C      1   0   0     2.630669433032     0.00000000     0.00000000
 C      2   1   0     2.638009437770   119.38942662     0.00000000
 C      3   2   1     2.638001071911   120.10447206     0.00000000
 C      4   3   2     2.636869568086   120.03983965     0.00000000
 C      1   2   3     2.627493114383   120.85831302     0.00000000
 O      1   2   3     2.577069790784   121.37807383   179.99989962
 H      2   1   3     2.050486513966   121.29544669   180.00010352
 H      3   2   1     2.053971491314   120.01783464   179.99997614
 H      4   3   2     2.054152621648   120.01911356   180.00005836
 H      5   4   3     2.053449988316   120.12802715   179.99998244
 H      6   1   2     2.052384415726   120.02954841   180.00002541

---------------------
BASIS SET INFORMATION
---------------------
There are 3 groups of distinct atoms

 Group   1 Type C   : 7s4p1d contracted to 3s2p1d pattern {511/31/1}
 Group   2 Type O   : 7s4p1d contracted to 3s2p1d pattern {511/31/1}
 Group   3 Type H   : 4s1p contracted to 2s1p pattern {31/1}

Atom   0C    basis set group =>   1
Atom   1C    basis set group =>   1
Atom   2C    basis set group =>   1
Atom   3C    basis set group =>   1
Atom   4C    basis set group =>   1
Atom   5C    basis set group =>   1
Atom   6O    basis set group =>   2
Atom   7H    basis set group =>   3
Atom   8H    basis set group =>   3
Atom   9H    basis set group =>   3
Atom  10H    basis set group =>   3
Atom  11H    basis set group =>   3
---------------------------------
AUXILIARY/J BASIS SET INFORMATION
---------------------------------
There are 3 groups of distinct atoms

 Group   1 Type C   : 12s5p4d2f1g contracted to 6s4p3d1f1g pattern {711111/2111/211/2/1}
 Group   2 Type O   : 12s5p4d2f1g contracted to 6s4p3d1f1g pattern {711111/2111/211/2/1}
 Group   3 Type H   : 5s2p1d contracted to 3s1p1d pattern {311/2/1}

Atom   0C    basis set group =>   1
Atom   1C    basis set group =>   1
Atom   2C    basis set group =>   1
Atom   3C    basis set group =>   1
Atom   4C    basis set group =>   1
Atom   5C    basis set group =>   1
Atom   6O    basis set group =>   2
Atom   7H    basis set group =>   3
Atom   8H    basis set group =>   3
Atom   9H    basis set group =>   3
Atom  10H    basis set group =>   3
Atom  11H    basis set group =>   3


           ************************************************************
           *        Program running with 64 parallel MPI-processes    *
           *              working on a common directory               *
           ************************************************************
------------------------------------------------------------------------------
                             ORCA STARTUP CALCULATIONS
                           -- RI-GTO INTEGRALS CHOSEN --
------------------------------------------------------------------------------
------------------------------------------------------------------------------
                   ___                                                        
                  /   \      - P O W E R E D   B Y -                         
                 /     \                                                     
                 |  |  |   _    _      __       _____    __    __             
                 |  |  |  | |  | |    /  \     |  _  \  |  |  /  |          
                  \  \/   | |  | |   /    \    | | | |  |  | /  /          
                 / \  \   | |__| |  /  /\  \   | |_| |  |  |/  /          
                |  |  |   |  __  | /  /__\  \  |    /   |      \           
                |  |  |   | |  | | |   __   |  |    \   |  |\   \          
                \     /   | |  | | |  |  |  |  | |\  \  |  | \   \       
                 \___/    |_|  |_| |__|  |__|  |_| \__\ |__|  \__/        
                                                                              
                      - O R C A' S   B I G   F R I E N D -                    
                                      &                                       
                       - I N T E G R A L  F E E D E R -                       
                                                                              
 v1 FN, 2020, v2 2021, v3 2022-2024                                           
------------------------------------------------------------------------------


----------------------
SHARK INTEGRAL PACKAGE
----------------------

Number of atoms                             ...     12
Number of basis functions                   ...    123
Number of shells                            ...     57
Maximum angular momentum                    ...      2
Integral batch strategy                     ... SHARK/LIBINT Hybrid
RI-J (if used) integral strategy            ... SPLIT-RIJ (Revised 2003 algorithm where possible)
Printlevel                                  ...      1
Contraction scheme used                     ... SEGMENTED contraction
Prescreening option                         ... SCHWARTZ
   Thresh                                   ... 2.500e-11
   Tcut                                     ... 2.500e-12
   Tpresel                                  ... 2.500e-12 
Coulomb Range Separation                    ... NOT USED
Exchange Range Separation                   ... NOT USED
Multipole approximations                    ... NOT USED
Finite Nucleus Model                        ... NOT USED
CABS basis                                  ... NOT available
Auxiliary Coulomb fitting basis             ... AVAILABLE
   # of basis functions in Aux-J            ...    398
   # of shells in Aux-J                     ...    130
   Maximum angular momentum in Aux-J        ...      4
Auxiliary J/K fitting basis                 ... NOT available
Auxiliary Correlation fitting basis         ... NOT available
Auxiliary 'external' fitting basis          ... NOT available

Checking pre-screening integrals            ... done (  0.2 sec) Dimension = 57
   => SHARK Basis and OBASIS are compatible. Storing Pre-screening
Shell pair information
Shell pair cut-off parameter TPreSel        ...   2.5e-12
Total number of shell pairs                 ...      1653
Shell pairs after pre-screening             ...      1601
Total number of primitive shell pairs       ...      6101
Primitive shell pairs kept                  ...      4517
          la=0 lb=0:    475 shell pairs
          la=1 lb=0:    573 shell pairs
          la=1 lb=1:    185 shell pairs
          la=2 lb=0:    210 shell pairs
          la=2 lb=1:    130 shell pairs
          la=2 lb=2:     28 shell pairs

Checking whether 4 symmetric matrices of dimension 123 fit in memory
:Max Core in MB      =   2109.00
 MB in use           =      5.40
 MB left             =   2103.60
 MB needed           =      0.23
 Data fit in memory  = YES
Calculating RI/J V-Matrix + Cholesky decomp.... done (  0.7 sec)
Calculating Nuclear repulsion               ... done (  0.0 sec) ENN=    260.078490345233 Eh

Diagonalization of the overlap matrix:
Smallest eigenvalue                        ... 2.801e-04
Time for diagonalization                   ...    0.003 sec
Threshold for overlap eigenvalues          ... 1.000e-07
Number of eigenvalues below threshold      ... 0
Time for construction of square roots      ...    0.086 sec
Total time needed                          ...    0.222 sec

-------------------
DFT GRID GENERATION
-------------------

General Integration Accuracy     IntAcc      ... 4.388
Radial Grid Type                 RadialGrid  ... OptM3 with GC (2021)
Angular Grid (max. ang.)         AngularGrid ... 4 (Lebedev-302)
Angular grid pruning method      GridPruning ... 4 (adaptive)
Weight generation scheme         WeightScheme... mBecke (2022)
Basis function cutoff            BFCut       ... 1.0000e-11
Integration weight cutoff        WCut        ... 1.0000e-14
Partially contracted basis set               ... off
Rotationally invariant grid construction     ... off
Angular grids for H and He will be reduced by one unit

Total number of grid points                  ...    58432
Total number of batches                      ...      919
Average number of points per batch           ...       63
Average number of grid points per atom       ...     4869

--------------------
COSX GRID GENERATION
--------------------

GRIDX 1
-------
General Integration Accuracy     IntAcc      ... 3.816
Radial Grid Type                 RadialGrid  ... OptM3 with GC (2021)
Angular Grid (max. ang.)         AngularGrid ... 1 (Lebedev-50)
Angular grid pruning method      GridPruning ... 4 (adaptive)
Weight generation scheme         WeightScheme... mBecke (2022)
Basis function cutoff            BFCut       ... 1.0000e-11
Integration weight cutoff        WCut        ... 1.0000e-14
Partially contracted basis set               ... on
Rotationally invariant grid construction     ... off
Angular grids for H and He will be reduced by one unit

Total number of grid points                  ...     7467
Total number of batches                      ...       63
Average number of points per batch           ...      118
Average number of grid points per atom       ...      622
UseSFitting                                  ... on

GRIDX 2
-------
General Integration Accuracy     IntAcc      ... 4.020
Radial Grid Type                 RadialGrid  ... OptM3 with GC (2021)
Angular Grid (max. ang.)         AngularGrid ... 2 (Lebedev-110)
Angular grid pruning method      GridPruning ... 4 (adaptive)
Weight generation scheme         WeightScheme... mBecke (2022)
Basis function cutoff            BFCut       ... 1.0000e-11
Integration weight cutoff        WCut        ... 1.0000e-14
Partially contracted basis set               ... on
Rotationally invariant grid construction     ... off
Angular grids for H and He will be reduced by one unit

Total number of grid points                  ...    16589
Total number of batches                      ...      135
Average number of points per batch           ...      122
Average number of grid points per atom       ...     1382
UseSFitting                                  ... on

GRIDX 3
-------
General Integration Accuracy     IntAcc      ... 4.338
Radial Grid Type                 RadialGrid  ... OptM3 with GC (2021)
Angular Grid (max. ang.)         AngularGrid ... 3 (Lebedev-194)
Angular grid pruning method      GridPruning ... 4 (adaptive)
Weight generation scheme         WeightScheme... mBecke (2022)
Basis function cutoff            BFCut       ... 1.0000e-11
Integration weight cutoff        WCut        ... 1.0000e-14
Partially contracted basis set               ... on
Rotationally invariant grid construction     ... off
Angular grids for H and He will be reduced by one unit

Total number of grid points                  ...    36535
Total number of batches                      ...      291
Average number of points per batch           ...      125
Average number of grid points per atom       ...     3045
UseSFitting                                  ... on
Grids setup in  12.2 sec
Initializing property integral containers    ... done (  0.5 sec)

SHARK setup successfully completed in  15.0 seconds

Maximum memory used throughout the entire STARTUP-calculation: 15.8 MB


           ************************************************************
           *        Program running with 64 parallel MPI-processes    *
           *              working on a common directory               *
           ************************************************************
-------------------------------------------------------------------------------
                                 ORCA GUESS
                   Start orbitals & Density for SCF / CASSCF
-------------------------------------------------------------------------------

------------
SCF SETTINGS
------------
Hamiltonian:
 Density Functional     Method          .... DFT(GTOs)
 Exchange Functional    Exchange        .... M062X
 Correlation Functional Correlation     .... M062X
 Gradients option       PostSCFGGA      .... off
 Hybrid DFT is turned on
   Fraction HF Exchange ScalHFX         ....  0.540000
   Scaling of DF-GGA-X  ScalDFX         ....  0.460000
   Scaling of DF-GGA-C  ScalDFC         ....  1.000000
   Scaling of DF-LDA-C  ScalLDAC        ....  1.000000
   Perturbative correction              ....  0.000000
 RI-approximation to the Coulomb term is turned on
   Number of AuxJ basis functions       .... 398
   RIJ-COSX (HFX calculated with COS-X)).... on


General Settings:
 Integral files         IntName         .... /users/s1155246976/scratch/phenol_pka_B/phenol_pka_B
 Hartree-Fock type      HFTyp           .... RHF
 Total Charge           Charge          ....   -1
 Multiplicity           Mult            ....    1
 Number of Electrons    NEL             ....   50
 Basis Dimension        Dim             ....  123
 Nuclear Repulsion      ENuc            ....    260.0784903452 Eh

Convergence Acceleration:
 AO-DIIS                CNVDIIS         .... on
   Start iteration      DIISMaxIt       ....    12
   Startup error        DIISStart       ....  0.200000
   # of expansion vecs  DIISMaxEq       ....     5
   Bias factor          DIISBfac        ....   1.050
   Max. coefficient     DIISMaxC        ....  10.000
 MO-DIIS                CNVKDIIS        .... off
 Trust-Rad. Augm. Hess. CNVTRAH         .... auto
   Auto Start mean grad. ratio tolernc. ....  1.125000
   Auto Start start iteration           ....    50
   Auto Start num. interpolation iter.  ....    10
   Max. Number of Micro iterations      ....    24
   Max. Number of Macro iterations      .... Maxiter - #DIIS iter
   Number of Davidson start vectors     ....     2
   Converg. threshold    (grad. norm)   ....   1.000e-05
   Grad. Scal. Fac. for Micro threshold ....   0.100
   Minimum threshold for Micro iter.    ....   1.000e-02
   NR start threshold (gradient norm)   ....   1.000e-04
   Initial trust radius                 ....   0.400
   Minimum AH scaling param. (alpha)    ....   1.000
   Maximum AH scaling param. (alpha)    .... 1000.000
   Quad. conv. algorithm                .... NR
   White noise on init. David. guess    .... on
   Maximum white noise                  ....   0.010
   Pseudo random numbers                .... off
   Inactive MOs                         .... canonical
   Orbital update algorithm             .... Taylor
   Preconditioner                       .... Diag
   Full preconditioner red. dimension   ....   250
 SOSCF                 CNVSOSCF           .... on
   Start iteration     SOSCFMaxIt         ....   150
   Startup grad/error  SOSCFStart         ....  0.003300
   Hessian update      SOSCFHessUp        .... L-BFGS
   Autom. constraints  SOSCFAutoConstrain .... off
 Level Shifting         CNVShift        .... on
   Level shift para.    LevelShift      ....    0.2500
   Turn off err/grad.   ShiftErr        ....    0.0010
 Zerner damping         CNVZerner       .... off
 Static damping         CNVDamp         .... on
   Fraction old density DampFac         ....    0.7000
   Max. Damping (<1)    DampMax         ....    0.9800
   Min. Damping (>=0)   DampMin         ....    0.0000
   Turn off err/grad.   DampErr         ....    0.1000

SCF Procedure:
 Maximum # iterations   MaxIter         ....   125
 SCF integral mode      SCFMode         .... Direct
   Integral package                     .... SHARK and LIBINT hybrid scheme
 Reset frequency        DirectResetFreq ....    20
 Integral Threshold     Thresh          ....  2.500e-11 Eh
 Primitive CutOff       TCut            ....  2.500e-12 Eh

Convergence Tolerance:
 Convergence Check Mode ConvCheckMode   .... Total+1el-Energy
 Convergence forced     ConvForced      .... 0
 Energy Change          TolE            ....  1.000e-08 Eh
 1-El. energy change                    ....  1.000e-05 Eh
 Orbital Gradient       TolG            ....  1.000e-05
 Orbital Rotation angle TolX            ....  1.000e-05
 DIIS Error             TolErr          ....  5.000e-07

------------------------------
INITIAL GUESS: MODEL POTENTIAL
------------------------------
Loading Hartree-Fock densities                     ... done
Calculating cut-offs                               ... done
Initializing the effective Hamiltonian             ... done
Setting up the integral package (SHARK)            ... done
Starting the Coulomb interaction                   ... done (   0.4 sec)
Making the grid                                    ... done (   1.0 sec)
Mapping shells                                     ... done
Starting the XC term evaluation                    ... done (   0.1 sec)
  promolecular density results
     # of electrons  =     48.996197554
     EX              =    -40.241683692
     EC              =     -1.614309546
     EX+EC           =    -41.855993238
Transforming the Hamiltonian                       ... done (   0.3 sec)
Diagonalizing the Hamiltonian                      ... done (   0.0 sec)
Back transforming the eigenvectors                 ... done (   0.3 sec)
Now organizing SCF variables                       ... done
                      ------------------
                      INITIAL GUESS DONE (   3.1 sec)
                      ------------------
             **** ENERGY FILE WAS UPDATED (/users/s1155246976/scratch/phenol_pka_B/phenol_pka_B.en.tmp) ****
Finished Guess after   7.3 sec
Maximum memory used throughout the entire GUESS-calculation: 7.7 MB


           ************************************************************
           *        Program running with 64 parallel MPI-processes    *
           *              working on a common directory               *
           ************************************************************

-------------------------------------------------------------------------------------------
                                      ORCA LEAN-SCF
                              memory conserving SCF solver
-------------------------------------------------------------------------------------------

----------------------------------------D-I-I-S--------------------------------------------
Iteration    Energy (Eh)           Delta-E    RMSDP     MaxDP     DIISErr   Damp  Time(sec)
-------------------------------------------------------------------------------------------
               ***  Starting incremental Fock matrix formation  ***
    1    -306.2399401758154909     0.00e+00  6.92e-02  1.20e-01  3.22e-01  0.700   4.8
    2    -306.3560756885352703    -1.16e-01  5.16e-02  9.19e-02  1.51e-01  0.700   7.8
                               ***Turning on AO-DIIS***
    3    -306.4113123699290782    -5.52e-02  1.83e-02  1.94e-02  5.03e-02  0.700   5.2
    4    -306.4439615653230931    -3.26e-02  3.24e-02  3.27e-02  3.62e-02  0.000  12.3
    5    -306.5144486425564310    -7.05e-02  5.39e-03  9.26e-03  6.62e-03  0.000   5.2
    6    -306.5146389559195086    -1.90e-04  3.35e-03  7.30e-03  3.62e-03  0.000   5.8
                              *** Initializing SOSCF ***
---------------------------------------S-O-S-C-F--------------------------------------
Iteration    Energy (Eh)           Delta-E    RMSDP     MaxDP     MaxGrad    Time(sec)
--------------------------------------------------------------------------------------
    7    -306.5146712263335758    -3.23e-05  1.61e-03  3.57e-03  7.84e-04     6.4
               *** Restarting incremental Fock matrix formation ***
    8    -306.5146424778380378     2.87e-05  1.37e-03  3.08e-03  3.79e-04     3.6
    9    -306.5146456598127997    -3.18e-06  9.60e-04  2.15e-03  1.06e-04     7.3
   10    -306.5146460095190832    -3.50e-07  2.65e-04  5.53e-04  1.18e-04    11.3
   11    -306.5146461892850311    -1.80e-07  1.01e-04  1.52e-04  5.01e-05     2.0
   12    -306.5146461985916631    -9.31e-09  3.68e-05  6.27e-05  2.22e-05     5.3
                 **** Energy Check signals convergence ****

               *****************************************************
               *                     SUCCESS                       *
               *           SCF CONVERGED AFTER  12 CYCLES          *
               *****************************************************

Recomputing exchange energy using gridx3       ... done (    0.593 sec)
Old exchange energy                            :    -22.282295204 Eh
New exchange energy                            :    -22.282338761 Eh
Exchange energy change after final integration :     -0.000043557 Eh
Total energy after final integration           :   -306.514689774 Eh
             **** ENERGY FILE WAS UPDATED (/users/s1155246976/scratch/phenol_pka_B/phenol_pka_B.en.tmp) ****

----------------
TOTAL SCF ENERGY
----------------

Total Energy       :       -306.51468977403601 Eh           -8340.68874 eV

Components:
Nuclear Repulsion  :        260.07849034523304 Eh            7077.09551 eV
Electronic Energy  :       -566.59313656208485 Eh          -15417.78307 eV
One Electron Energy:       -939.96152926920934 Eh          -25577.65355 eV
Two Electron Energy:        373.36839270712449 Eh           10159.87048 eV

Virial components:
Potential Energy   :       -610.12500373422415 Eh          -16602.34540 eV
Kinetic Energy     :        303.61031396018814 Eh            8261.65666 eV
Virial Ratio       :          2.00956613026733

DFT components:
N(Alpha)           :       24.999995947272 electrons
N(Beta)            :       24.999995947272 electrons
N(Total)           :       49.999991894543 electrons
E(XC)              :      -20.793940167994 Eh       

---------------
SCF CONVERGENCE
---------------

  Last Energy change         ...    9.3066e-09  Tolerance :   1.0000e-08
  Last MAX-Density change    ...    6.2674e-05  Tolerance :   1.0000e-07
  Last RMS-Density change    ...    3.6819e-05  Tolerance :   5.0000e-09
  Last DIIS Error            ...    7.8355e-04  Tolerance :   5.0000e-07
  Last Orbital Gradient      ...    2.2152e-05  Tolerance :   1.0000e-05
  Last Orbital Rotation      ...    2.2715e-05  Tolerance :   1.0000e-05


----------------
ORBITAL ENERGIES
----------------

  NO   OCC          E(Eh)            E(eV) 
   0   2.0000     -19.326819      -525.9095 
   1   2.0000     -10.388320      -282.6806 
   2   2.0000     -10.382135      -282.5122 
   3   2.0000     -10.381048      -282.4827 
   4   2.0000     -10.366066      -282.0750 
   5   2.0000     -10.353182      -281.7244 
   6   2.0000     -10.351755      -281.6856 
   7   2.0000      -0.816006       -22.2047 
   8   2.0000      -0.743711       -20.2374 
   9   2.0000      -0.648299       -17.6411 
  10   2.0000      -0.610657       -16.6168 
  11   2.0000      -0.498418       -13.5626 
  12   2.0000      -0.472802       -12.8656 
  13   2.0000      -0.396632       -10.7929 
  14   2.0000      -0.338599        -9.2137 
  15   2.0000      -0.335479        -9.1288 
  16   2.0000      -0.308874        -8.4049 
  17   2.0000      -0.264875        -7.2076 
  18   2.0000      -0.263463        -7.1692 
  19   2.0000      -0.229607        -6.2479 
  20   2.0000      -0.195748        -5.3266 
  21   2.0000      -0.168289        -4.5794 
  22   2.0000      -0.129213        -3.5161 
  23   2.0000      -0.068683        -1.8690 
  24   2.0000      -0.032095        -0.8734 
  25   0.0000       0.207718         5.6523 
  26   0.0000       0.244812         6.6617 
  27   0.0000       0.252082         6.8595 
  28   0.0000       0.287031         7.8105 
  29   0.0000       0.309131         8.4119 
  30   0.0000       0.335572         9.1314 
  31   0.0000       0.341052         9.2805 
  32   0.0000       0.406503        11.0615 
  33   0.0000       0.478488        13.0203 
  34   0.0000       0.490036        13.3346 
  35   0.0000       0.504101        13.7173 
*Only the first 10 virtual orbitals were printed.

                    ********************************
                    * MULLIKEN POPULATION ANALYSIS *
                    ********************************

-----------------------
MULLIKEN ATOMIC CHARGES
-----------------------
   0 C :    0.228080
   1 C :   -0.108227
   2 C :   -0.029584
   3 C :   -0.074041
   4 C :   -0.027133
   5 C :   -0.096653
   6 O :   -0.598967
   7 H :   -0.060937
   8 H :   -0.053583
   9 H :   -0.065457
  10 H :   -0.054308
  11 H :   -0.059189
Sum of atomic charges:   -1.0000000

--------------------------------
MULLIKEN REDUCED ORBITAL CHARGES
--------------------------------
  0 C s       :     2.976700  s :     2.976700
      pz      :     0.895700  p :     2.715950
      px      :     0.883482
      py      :     0.936768
      dz2     :     0.006076  d :     0.079269
      dxz     :     0.021112
      dyz     :     0.005575
      dx2y2   :     0.016980
      dxy     :     0.029526

  1 C s       :     3.233581  s :     3.233581
      pz      :     1.080719  p :     2.844058
      px      :     0.864064
      py      :     0.899275
      dz2     :     0.003028  d :     0.030588
      dxz     :     0.005772
      dyz     :     0.003343
      dx2y2   :     0.008932
      dxy     :     0.009513

  2 C s       :     3.143643  s :     3.143643
      pz      :     0.992470  p :     2.850537
      px      :     0.960178
      py      :     0.897890
      dz2     :     0.002581  d :     0.035404
      dxz     :     0.008156
      dyz     :     0.004560
      dx2y2   :     0.008961
      dxy     :     0.011146

  3 C s       :     3.120344  s :     3.120344
      pz      :     1.124317  p :     2.921479
      px      :     0.809273
      py      :     0.987889
      dz2     :     0.004115  d :     0.032218
      dxz     :     0.003141
      dyz     :     0.006042
      dx2y2   :     0.010747
      dxy     :     0.008173

  4 C s       :     3.143455  s :     3.143455
      pz      :     1.003692  p :     2.848295
      px      :     0.964549
      py      :     0.880054
      dz2     :     0.003935  d :     0.035382
      dxz     :     0.008003
      dyz     :     0.003521
      dx2y2   :     0.008636
      dxy     :     0.011287

  5 C s       :     3.234166  s :     3.234166
      pz      :     1.051528  p :     2.831719
      px      :     0.846526
      py      :     0.933665
      dz2     :     0.002690  d :     0.030768
      dxz     :     0.005744
      dyz     :     0.003545
      dx2y2   :     0.009068
      dxy     :     0.009721

  6 O s       :     3.802106  s :     3.802106
      pz      :     1.643027  p :     4.785371
      px      :     1.310535
      py      :     1.831809
      dz2     :     0.001525  d :     0.011490
      dxz     :     0.003031
      dyz     :     0.000058
      dx2y2   :     0.004695
      dxy     :     0.002181

  7 H s       :     1.039378  s :     1.039378
      pz      :     0.005137  p :     0.021559
      px      :     0.005719
      py      :     0.010703

  8 H s       :     1.032347  s :     1.032347
      pz      :     0.005767  p :     0.021236
      px      :     0.005791
      py      :     0.009678

  9 H s       :     1.043484  s :     1.043484
      pz      :     0.005315  p :     0.021973
      px      :     0.013368
      py      :     0.003290

 10 H s       :     1.033082  s :     1.033082
      pz      :     0.004920  p :     0.021226
      px      :     0.005431
      py      :     0.010875

 11 H s       :     1.037750  s :     1.037750
      pz      :     0.005889  p :     0.021439
      px      :     0.006331
      py      :     0.009219



                     *******************************
                     * LOEWDIN POPULATION ANALYSIS *
                     *******************************

----------------------
LOEWDIN ATOMIC CHARGES
----------------------
   0 C :    0.027111
   1 C :   -0.118582
   2 C :   -0.061087
   3 C :   -0.155091
   4 C :   -0.063168
   5 C :   -0.110767
   6 O :   -0.524911
   7 H :    0.005225
   8 H :    0.000479
   9 H :   -0.005687
  10 H :    0.000066
  11 H :    0.006412

-------------------------------
LOEWDIN REDUCED ORBITAL CHARGES
-------------------------------
  0 C s       :     2.849020  s :     2.849020
      pz      :     0.913851  p :     2.935106
      px      :     0.972435
      py      :     1.048820
      dz2     :     0.013966  d :     0.188763
      dxz     :     0.042756
      dyz     :     0.014182
      dx2y2   :     0.046868
      dxy     :     0.070991

  1 C s       :     2.863278  s :     2.863278
      pz      :     1.070010  p :     3.168564
      px      :     1.051219
      py      :     1.047334
      dz2     :     0.007413  d :     0.086740
      dxz     :     0.014188
      dyz     :     0.008278
      dx2y2   :     0.028422
      dxy     :     0.028439

  2 C s       :     2.859036  s :     2.859036
      pz      :     1.000306  p :     3.106826
      px      :     1.071317
      py      :     1.035203
      dz2     :     0.006067  d :     0.095225
      dxz     :     0.019231
      dyz     :     0.011086
      dx2y2   :     0.026672
      dxy     :     0.032168

  3 C s       :     2.847667  s :     2.847667
      pz      :     1.119225  p :     3.217794
      px      :     1.022243
      py      :     1.076326
      dz2     :     0.009309  d :     0.089629
      dxz     :     0.007692
      dyz     :     0.015363
      dx2y2   :     0.031962
      dxy     :     0.025304

  4 C s       :     2.858991  s :     2.858991
      pz      :     1.005072  p :     3.108836
      px      :     1.074507
      py      :     1.029257
      dz2     :     0.009174  d :     0.095341
      dxz     :     0.019071
      dyz     :     0.008746
      dx2y2   :     0.025981
      dxy     :     0.032369

  5 C s       :     2.864427  s :     2.864427
      pz      :     1.057088  p :     3.158962
      px      :     1.049500
      py      :     1.052374
      dz2     :     0.006731  d :     0.087377
      dxz     :     0.013746
      dyz     :     0.008832
      dx2y2   :     0.028495
      dxy     :     0.029574

  6 O s       :     3.632896  s :     3.632896
      pz      :     1.653301  p :     4.873354
      px      :     1.389369
      py      :     1.830684
      dz2     :     0.002780  d :     0.018661
      dxz     :     0.004032
      dyz     :     0.000077
      dx2y2   :     0.008642
      dxy     :     0.003131

  7 H s       :     0.926262  s :     0.926262
      pz      :     0.018720  p :     0.068513
      px      :     0.018159
      py      :     0.031634

  8 H s       :     0.933961  s :     0.933961
      pz      :     0.018339  p :     0.065560
      px      :     0.019306
      py      :     0.027916

  9 H s       :     0.937506  s :     0.937506
      pz      :     0.018683  p :     0.068181
      px      :     0.036606
      py      :     0.012892

 10 H s       :     0.934255  s :     0.934255
      pz      :     0.016339  p :     0.065679
      px      :     0.018579
      py      :     0.030761

 11 H s       :     0.925487  s :     0.925487
      pz      :     0.020518  p :     0.068101
      px      :     0.019656
      py      :     0.027927



                      *****************************
                      * MAYER POPULATION ANALYSIS *
                      *****************************

  NA   - Mulliken gross atomic population
  ZA   - Total nuclear charge
  QA   - Mulliken gross atomic charge
  VA   - Mayer's total valence
  BVA  - Mayer's bonded valence
  FA   - Mayer's free valence

  ATOM       NA         ZA         QA         VA         BVA        FA
  0 C      5.7719     6.0000     0.2281     4.1297     4.1297     0.0000
  1 C      6.1082     6.0000    -0.1082     3.7454     3.7454    -0.0000
  2 C      6.0296     6.0000    -0.0296     3.7934     3.7934     0.0000
  3 C      6.0740     6.0000    -0.0740     3.7741     3.7741    -0.0000
  4 C      6.0271     6.0000    -0.0271     3.7761     3.7761    -0.0000
  5 C      6.0967     6.0000    -0.0967     3.7538     3.7538    -0.0000
  6 O      8.5990     8.0000    -0.5990     1.8577     1.8577    -0.0000
  7 H      1.0609     1.0000    -0.0609     0.9950     0.9950    -0.0000
  8 H      1.0536     1.0000    -0.0536     0.9658     0.9658     0.0000
  9 H      1.0655     1.0000    -0.0655     0.9681     0.9681    -0.0000
 10 H      1.0543     1.0000    -0.0543     0.9657     0.9657    -0.0000
 11 H      1.0592     1.0000    -0.0592     0.9996     0.9996    -0.0000

  Mayer bond orders larger than 0.100000
B(  0-C ,  1-C ) :   1.2164 B(  0-C ,  5-C ) :   1.2280 B(  0-C ,  6-O ) :   1.6203 
B(  1-C ,  2-C ) :   1.3962 B(  1-C ,  7-H ) :   0.9936 B(  2-C ,  3-C ) :   1.3553 
B(  2-C ,  8-H ) :   0.9767 B(  3-C ,  4-C ) :   1.3430 B(  3-C ,  9-H ) :   0.9830 
B(  4-C ,  5-C ) :   1.3985 B(  4-C , 10-H ) :   0.9767 B(  5-C , 11-H ) :   0.9911 


-------
TIMINGS
-------

Total SCF time: 0 days 0 hours 1 min 32 sec 

Total time                  ....      92.367 sec
Sum of individual times     ....      85.135 sec  ( 92.2%)

SCF preparation             ....       6.113 sec  (  6.6%)
Fock matrix formation       ....      51.176 sec  ( 55.4%)
  Startup                   ....       1.093 sec  (  2.1% of F)
  Split-RI-J                ....       4.646 sec  (  9.1% of F)
  Chain of spheres X        ....       9.847 sec  ( 19.2% of F)
  XC integration            ....      23.442 sec  ( 45.8% of F)
    XC Preparation          ....       0.000 sec  (  0.0% of XC)
    Basis function eval.    ....       0.030 sec  (  0.1% of XC)
    Density eval.           ....       0.040 sec  (  0.2% of XC)
    XC-Functional eval.     ....       0.018 sec  (  0.1% of XC)
    XC-Potential eval.      ....       0.048 sec  (  0.2% of XC)
Diagonalization             ....       0.000 sec  (  0.0%)
Density matrix formation    ....       8.197 sec  (  8.9%)
Total Energy calculation    ....       1.988 sec  (  2.2%)
Population analysis         ....       1.056 sec  (  1.1%)
Orbital Transformation      ....       1.461 sec  (  1.6%)
Orbital Orthonormalization  ....       0.000 sec  (  0.0%)
DIIS solution               ....      10.469 sec  ( 11.3%)
SOSCF solution              ....       4.674 sec  (  5.1%)
Finished LeanSCF after  92.7 sec

Maximum memory used throughout the entire LEANSCF-calculation: 9.9 MB


           ************************************************************
           *        Program running with 64 parallel MPI-processes    *
           *              working on a common directory               *
           ************************************************************

------------------------------------------------------------------------------
                         ORCA PROPERTY INTEGRAL CALCULATIONS
------------------------------------------------------------------------------

GBWName                                   ... /users/s1155246976/scratch/phenol_pka_B/phenol_pka_B.gbw
Number of atoms                           ...     12
Number of basis functions                 ...    123
Max core memory                           ...   2109 MB

Dipole integrals                          ... YES
Quadrupole integrals                      ...  NO
Linear momentum integrals                 ...  NO
Angular momentum integrals                ...  NO
Higher moments length integrals           ...  NO
Higher moments velocity integrals         ...  NO
Kinetic energy integrals                  ...  NO
GIAO right hand sides                     ...  NO
GIAO dipole derivative integrals          ...  NO
SOC integrals                             ...  NO
EPR diamagnetic integrals (GIAO)          ...  NO
EPR gauge integrals                       ...  NO
Field gradient integrals                  ...  NO (   0 nuclei)
Spin-dipole/Fermi contact integrals       ...  NO (   0 nuclei)
Contact density integrals                 ...  NO (   0 nuclei)
Nucleus-orbit integrals                   ...  NO (   0 nuclei)
Geometric perturbations                   ...  NO (  12 nuclei)

Choice of electric origin   ... Center of mass
Position of electric origin ... (  0.3534,  0.1015, -0.0930) 
Choice of magnetic origin   ... GIAO
Position of magnetic origin ... (  0.0000,  0.0000,  0.0000) 

Calculating integrals                     ... Electric Dipole (Length)     done (  4.6 sec)

Property integrals calculated in   4.7 sec

Maximum memory used throughout the entire PROPINT-calculation: 7.9 MB

-------------------------   --------------------
FINAL SINGLE POINT ENERGY      -306.514689774036
-------------------------   --------------------



           ************************************************************
           *        Program running with 64 parallel MPI-processes    *
           *              working on a common directory               *
           ************************************************************
------------------------------------------------------------------------------
                         ORCA SCF GRADIENT CALCULATION
------------------------------------------------------------------------------

Nuc. rep. gradient        (SHARK) ... done (  0.0 sec)
HCore & Overlap gradient  (SHARK) ... done (  0.4 sec)
Split-RIJ-J gradient      (SHARK) ... done (  0.7 sec)
done (  3.3 sec)
XC gradient                       ... done (  0.7 sec)

------------------
CARTESIAN GRADIENT
------------------

   1   C   :   -0.152596979    0.003766669    0.020784248
   2   C   :    0.039754503    0.015212569   -0.011915434
   3   C   :   -0.012322883   -0.003846603    0.003475240
   4   C   :    0.013385954    0.000517497   -0.002192010
   5   C   :   -0.014448581    0.003051023    0.000764520
   6   C   :    0.044352626   -0.021582580    0.002243303
   7   O   :    0.083124729    0.002306196   -0.013117008
   8   H   :   -0.007596432    0.000863082    0.000757508
   9   H   :    0.003337868    0.004397314   -0.002367210
  10   H   :    0.004848805   -0.000197862   -0.000606103
  11   H   :    0.003914241   -0.004872481    0.001408824
  12   H   :   -0.005753851    0.000385175    0.000764122

Difference to translation invariance:
           :    0.0000000002    0.0000000000   -0.0000000000

Difference to rotation invariance:
           :   -0.0002611912   -0.0001945219    0.0001966946

Norm of the Cartesian gradient     ...    0.1897010002
RMS gradient                       ...    0.0316168334
MAX gradient                       ...    0.1525969789

-------
TIMINGS
-------

Total SCF gradient time     ....        5.100 sec

Densities                   ....       0.013 sec  (  0.3%)
One electron gradient       ....       0.354 sec  (  6.9%)
RI-J Coulomb gradient       ....       0.735 sec  ( 14.4%)
COSX gradient               ....       3.258 sec  ( 63.9%)
XC gradient                 ....       0.737 sec  ( 14.5%)

Maximum memory used throughout the entire SCFGRAD-calculation: 12.9 MB
------------------------------------------------------------------------------
                         ORCA GEOMETRY RELAXATION STEP
------------------------------------------------------------------------------

Reading the OPT-File                    .... done
Getting information on internals        .... done
Copying old internal coords+grads       .... done
Making the new internal coordinates     .... (2022 redundants) done
Validating the new internal coordinates .... (2022 redundants) done
Calculating the B-matrix                .... done
Calculating the G,G- and P matrices     .... done
Transforming gradient to internals      .... done
Projecting the internal gradient        .... done
Number of atoms                         ....  12
Number of internal coordinates          ....  54
Current Energy                          ....  -306.514689774 Eh
Current gradient norm                   ....     0.189701000 Eh/bohr
Maximum allowed component of the step   ....  0.300
Current trust radius                    ....  0.300
Evaluating the initial hessian          ....  (Almloef) done
Projecting the Hessian                  .... done
Forming the augmented Hessian           .... done
Diagonalizing the augmented Hessian     .... done
Last element of RFO vector              ....  0.984276220
Lowest eigenvalues of augmented Hessian:
 -0.018682293  0.025809420  0.025868109  0.025872687  0.026000870
Length of the computed step             ....  0.179457890
The final length of the internal step   ....  0.179457890
Converting the step to Cartesian space:
 Initial RMS(Int)=    0.0244211256
Transforming coordinates:
 Iter   0:  RMS(Cart)=    0.0203203355 RMS(Int)=    2.0943524900
done
Storing new coordinates                 .... done

                                .--------------------.
          ----------------------|Geometry convergence|-------------------------
          Item                value                   Tolerance       Converged
          ---------------------------------------------------------------------
          RMS gradient        0.0143439276            0.0001000000      NO
          MAX gradient        0.0839914632            0.0003000000      NO
          RMS step            0.0244211256            0.0020000000      NO
          MAX step            0.1322734625            0.0040000000      NO
          -------------------------------------------------------------------------
          ........................................................
          Max(Bonds)      0.0700      Max(Angles)    3.01
          Max(Dihed)        0.08      Max(Improp)    0.00
          ---------------------------------------------------------------------

The optimization has not yet converged - more geometry cycles are needed


    ---------------------------------------------------------------------------
                         Redundant Internal Coordinates
                            (Angstroem and degrees)

        Definition                    Value    dE/dq     Step     New-Value
    ----------------------------------------------------------------------------
     1. B(C   1,C   0)                1.3921 -0.031418  0.0266    1.4187   
     2. B(C   2,C   1)                1.3960  0.000316 -0.0003    1.3957   
     3. B(C   3,C   2)                1.3960 -0.005643  0.0041    1.4001   
     4. B(C   4,C   3)                1.3954 -0.007508  0.0058    1.4011   
     5. B(C   5,C   4)                1.3947  0.000949 -0.0007    1.3940   
     6. B(C   5,C   0)                1.3904 -0.036073  0.0303    1.4207   
     7. B(O   6,C   0)                1.3637  0.083991 -0.0700    1.2937   
     8. B(H   7,C   1)                1.0851 -0.004083  0.0056    1.0907   
     9. B(H   8,C   2)                1.0869 -0.005997  0.0083    1.0952   
    10. B(H   9,C   3)                1.0870 -0.004889  0.0068    1.0938   
    11. B(H  10,C   4)                1.0866 -0.006326  0.0087    1.0954   
    12. B(H  11,C   5)                1.0861 -0.002960  0.0041    1.0902   
    13. A(C   1,C   0,C   5)          120.86  0.024844   -3.01    117.85   
    14. A(C   1,C   0,O   6)          121.38 -0.005077    0.57    121.95   
    15. A(C   5,C   0,O   6)          117.76 -0.019768    2.44    120.20   
    16. A(C   2,C   1,H   7)          119.32 -0.002418    0.43    119.74   
    17. A(C   0,C   1,C   2)          119.39 -0.008512    1.19    120.58   
    18. A(C   0,C   1,H   7)          121.30  0.010930   -1.62    119.67   
    19. A(C   3,C   2,H   8)          119.88  0.003819   -0.45    119.42   
    20. A(C   1,C   2,H   8)          120.02  0.003140   -0.35    119.67   
    21. A(C   1,C   2,C   3)          120.10 -0.006958    0.80    120.91   
    22. A(C   4,C   3,H   9)          119.94 -0.002608    0.46    120.40   
    23. A(C   2,C   3,H   9)          120.02 -0.002343    0.42    120.44   
    24. A(C   2,C   3,C   4)          120.04  0.004951   -0.88    119.15   
    25. A(C   3,C   4,H  10)          120.13  0.004134   -0.52    119.61   
    26. A(C   3,C   4,C   5)          119.95 -0.006184    0.72    120.67   
    27. A(C   5,C   4,H  10)          119.93  0.002050   -0.20    119.72   
    28. A(C   0,C   5,C   4)          119.66 -0.008142    1.17    120.83   
    29. A(C   4,C   5,H  11)          120.31 -0.001065    0.21    120.51   
    30. A(C   0,C   5,H  11)          120.03  0.009207   -1.37    118.66   
    31. D(H   7,C   1,C   0,C   5)   -180.00 -0.000025    0.03   -179.97   
    32. D(H   7,C   1,C   0,O   6)      0.00  0.000006   -0.01     -0.01   
    33. D(C   2,C   1,C   0,O   6)    180.00  0.000037   -0.05    179.95   
    34. D(C   2,C   1,C   0,C   5)     -0.00  0.000006   -0.01     -0.01   
    35. D(H   8,C   2,C   1,C   0)    180.00 -0.000044    0.06    180.06   
    36. D(C   3,C   2,C   1,C   0)     -0.00 -0.000004    0.01      0.01   
    37. D(C   3,C   2,C   1,H   7)    180.00  0.000026   -0.03    179.97   
    38. D(H   8,C   2,C   1,H   7)     -0.00 -0.000014    0.02      0.02   
    39. D(H   9,C   3,C   2,H   8)      0.00  0.000048   -0.06     -0.06   
    40. D(H   9,C   3,C   2,C   1)   -180.00  0.000008   -0.01   -180.01   
    41. D(C   4,C   3,C   2,H   8)   -180.00  0.000043   -0.06   -180.06   
    42. D(C   4,C   3,C   2,C   1)      0.00  0.000004   -0.01     -0.01   
    43. D(H  10,C   4,C   3,C   2)    180.00  0.000013   -0.02    179.98   
    44. D(C   5,C   4,C   3,H   9)    180.00 -0.000010    0.01    180.01   
    45. D(C   5,C   4,C   3,C   2)     -0.00 -0.000005    0.01      0.01   
    46. D(H  10,C   4,C   3,H   9)      0.00  0.000009   -0.01     -0.01   
    47. D(H  11,C   5,C   4,H  10)     -0.00  0.000015   -0.02     -0.02   
    48. D(C   0,C   5,C   4,H  10)    180.00 -0.000011    0.01    180.01   
    49. D(C   0,C   5,C   4,C   3)      0.00  0.000007   -0.01     -0.01   
    50. D(H  11,C   5,C   0,O   6)      0.00 -0.000063    0.08      0.08   
    51. D(H  11,C   5,C   0,C   1)   -180.00 -0.000034    0.04   -179.96   
    52. D(H  11,C   5,C   4,C   3)   -180.00  0.000033   -0.04   -180.04   
    53. D(C   4,C   5,C   0,O   6)   -180.00 -0.000037    0.05   -179.95   
    54. D(C   4,C   5,C   0,C   1)      0.00 -0.000008    0.01      0.01   
    ----------------------------------------------------------------------------

Geometry step timings:
Preparation and reading OPT file:      0.003 s ( 9.099 %)
Internal coordinates            :      0.000 s ( 0.138 %)
B/P matrices and projection     :      0.000 s ( 1.164 %)
Hessian update/contruction      :      0.011 s (38.102 %)
Making the step                 :      0.000 s ( 1.178 %)
Converting the step to Cartesian:      0.000 s ( 0.283 %)
Storing new data                :      0.005 s (19.214 %)
Checking convergence            :      0.000 s ( 0.167 %)
Final printing                  :      0.008 s (30.605 %)
Total time                      :      0.028 s

Time for energy+gradient        :    137.607 s
Time for complete geometry iter :    166.819 s

         *************************************************************
         *                GEOMETRY OPTIMIZATION CYCLE   2            *
         *************************************************************
---------------------------------
CARTESIAN COORDINATES (ANGSTROEM)
---------------------------------
  C      1.165253   -0.015957   -0.163587
  C      0.422388   -1.093295    0.384413
  C     -0.960351   -0.993358    0.545385
  C     -1.645645    0.168700    0.171061
  C     -0.925089    1.240761   -0.371544
  C      0.456227    1.156682   -0.538820
  O      2.447456   -0.080173   -0.323494
  H      0.937184   -2.007312    0.682968
  H     -1.518802   -1.833923    0.970886
  H     -2.729472    0.238996    0.300326
  H     -1.453506    2.153529   -0.667304
  H      1.014366    1.992091   -0.961913

----------------------------
CARTESIAN COORDINATES (A.U.)
----------------------------
  NO LB      ZA    FRAG     MASS         X           Y           Z
   0 C     6.0000    0    12.011    2.202010   -0.030154   -0.309134
   1 C     6.0000    0    12.011    0.798198   -2.066028    0.726435
   2 C     6.0000    0    12.011   -1.814800   -1.877174    1.030628
   3 C     6.0000    0    12.011   -3.109817    0.318798    0.323259
   4 C     6.0000    0    12.011   -1.748166    2.344699   -0.702117
   5 C     6.0000    0    12.011    0.862144    2.185812   -1.018222
   6 O     8.0000    0    15.999    4.625022   -0.151505   -0.611314
   7 H     1.0000    0     1.008    1.771022   -3.793269    1.290623
   8 H     1.0000    0     1.008   -2.870120   -3.465613    1.834709
   9 H     1.0000    0     1.008   -5.157954    0.451636    0.567535
  10 H     1.0000    0     1.008   -2.746728    4.069581   -1.261022
  11 H     1.0000    0     1.008    1.916874    3.764507   -1.817753

--------------------------------
INTERNAL COORDINATES (ANGSTROEM)
--------------------------------
 C      0   0   0     0.000000000000     0.00000000     0.00000000
 C      1   0   0     1.418735269022     0.00000000     0.00000000
 C      2   1   0     1.395659866001   120.59315177     0.00000000
 C      3   2   1     1.400044499834   120.90024761     0.00000000
 C      4   3   2     1.401047618829   119.13858293     0.00000000
 C      5   4   3     1.393945916961   120.66107148     0.00000000
 O      1   2   3     1.293730497309   121.93759925   179.95343341
 H      2   1   3     1.090677265564   119.66697153   180.03892170
 H      3   2   1     1.095203295387   119.67230852   180.05661445
 H      4   3   2     1.093769756196   120.44934138   179.98940881
 H      5   4   3     1.095373756408   119.60997819   179.98350227
 H      6   5   4     1.090154051226   120.51033175   179.95773075

---------------------------
INTERNAL COORDINATES (A.U.)
---------------------------
 C      0   0   0     0.000000000000     0.00000000     0.00000000
 C      1   0   0     2.681021114986     0.00000000     0.00000000
 C      2   1   0     2.637414922847   120.59315177     0.00000000
 C      3   2   1     2.645700679988   120.90024761     0.00000000
 C      4   3   2     2.647596300169   119.13858293     0.00000000
 C      5   4   3     2.634176028554   120.66107148     0.00000000
 O      1   2   3     2.444796331015   121.93759925   179.95343341
 H      2   1   3     2.061081332410   119.66697153   180.03892170
 H      3   2   1     2.069634289250   119.67230852   180.05661445
 H      4   3   2     2.066925292776   120.44934138   179.98940881
 H      5   4   3     2.069956413896   119.60997819   179.98350227
 H      6   5   4     2.060092600602   120.51033175   179.95773075



           ************************************************************
           *        Program running with 64 parallel MPI-processes    *
           *              working on a common directory               *
           ************************************************************
------------------------------------------------------------------------------
                   ___                                                        
                  /   \      - P O W E R E D   B Y -                         
                 /     \                                                     
                 |  |  |   _    _      __       _____    __    __             
                 |  |  |  | |  | |    /  \     |  _  \  |  |  /  |          
                  \  \/   | |  | |   /    \    | | | |  |  | /  /          
                 / \  \   | |__| |  /  /\  \   | |_| |  |  |/  /          
                |  |  |   |  __  | /  /__\  \  |    /   |      \           
                |  |  |   | |  | | |   __   |  |    \   |  |\   \          
                \     /   | |  | | |  |  |  |  | |\  \  |  | \   \       
                 \___/    |_|  |_| |__|  |__|  |_| \__\ |__|  \__/        
                                                                              
                      - O R C A' S   B I G   F R I E N D -                    
                                      &                                       
                       - I N T E G R A L  F E E D E R -                       
                                                                              
 v1 FN, 2020, v2 2021, v3 2022-2024                                           
------------------------------------------------------------------------------


----------------------
SHARK INTEGRAL PACKAGE
----------------------

Number of atoms                             ...     12
Number of basis functions                   ...    123
Number of shells                            ...     57
Maximum angular momentum                    ...      2
Integral batch strategy                     ... SHARK/LIBINT Hybrid
RI-J (if used) integral strategy            ... SPLIT-RIJ (Revised 2003 algorithm where possible)
Printlevel                                  ...      1
Contraction scheme used                     ... SEGMENTED contraction
Prescreening option                         ... SCHWARTZ
   Thresh                                   ... 2.500e-11
   Tcut                                     ... 2.500e-12
   Tpresel                                  ... 2.500e-12 
Coulomb Range Separation                    ... NOT USED
Exchange Range Separation                   ... NOT USED
Multipole approximations                    ... NOT USED
Finite Nucleus Model                        ... NOT USED
CABS basis                                  ... NOT available
Auxiliary Coulomb fitting basis             ... AVAILABLE
   # of basis functions in Aux-J            ...    398
   # of shells in Aux-J                     ...    130
   Maximum angular momentum in Aux-J        ...      4
Auxiliary J/K fitting basis                 ... NOT available
Auxiliary Correlation fitting basis         ... NOT available
Auxiliary 'external' fitting basis          ... NOT available

Checking pre-screening integrals            ... done (  0.3 sec) Dimension = 57
   => SHARK Basis and OBASIS are compatible. Storing Pre-screening
Shell pair information
Shell pair cut-off parameter TPreSel        ...   2.5e-12
Total number of shell pairs                 ...      1653
Shell pairs after pre-screening             ...      1601
Total number of primitive shell pairs       ...      6101
Primitive shell pairs kept                  ...      4517
          la=0 lb=0:    475 shell pairs
          la=1 lb=0:    573 shell pairs
          la=1 lb=1:    185 shell pairs
          la=2 lb=0:    210 shell pairs
          la=2 lb=1:    130 shell pairs
          la=2 lb=2:     28 shell pairs

Checking whether 4 symmetric matrices of dimension 123 fit in memory
:Max Core in MB      =   2109.00
 MB in use           =      5.52
 MB left             =   2103.48
 MB needed           =      0.23
 Data fit in memory  = YES
Calculating RI/J V-Matrix + Cholesky decomp.... done (  0.5 sec)
Calculating Nuclear repulsion               ... done (  0.0 sec) ENN=    259.969329973706 Eh

Diagonalization of the overlap matrix:
Smallest eigenvalue                        ... 2.990e-04
Time for diagonalization                   ...    0.035 sec
Threshold for overlap eigenvalues          ... 1.000e-07
Number of eigenvalues below threshold      ... 0
Time for construction of square roots      ...    0.095 sec
Total time needed                          ...    0.371 sec

-------------------
DFT GRID GENERATION
-------------------

General Integration Accuracy     IntAcc      ... 4.388
Radial Grid Type                 RadialGrid  ... OptM3 with GC (2021)
Angular Grid (max. ang.)         AngularGrid ... 4 (Lebedev-302)
Angular grid pruning method      GridPruning ... 4 (adaptive)
Weight generation scheme         WeightScheme... mBecke (2022)
Basis function cutoff            BFCut       ... 1.0000e-11
Integration weight cutoff        WCut        ... 1.0000e-14
Partially contracted basis set               ... off
Rotationally invariant grid construction     ... off
Angular grids for H and He will be reduced by one unit

Total number of grid points                  ...    58440
Total number of batches                      ...      919
Average number of points per batch           ...       63
Average number of grid points per atom       ...     4870

--------------------
COSX GRID GENERATION
[...]
     13       0.048065   0.004642   0.103847  -0.006543  -0.216246  -0.091588
     14      -0.029210  -0.004591  -0.045615   0.039979   0.101082   0.083719
     15       0.005167  -0.113448   0.137556   0.226482  -0.083062   0.181194
     16       0.068541   0.101074  -0.101750  -0.008381   0.150881   0.000701
     17      -0.028635  -0.024846   0.021585  -0.029419  -0.049353  -0.026541
     18       0.000403  -0.000232  -0.103555  -0.000989   0.003081  -0.225200
     19       0.033375  -0.005814   0.006551   0.032189   0.018059   0.014572
     20      -0.013573   0.002391   0.012364  -0.013028  -0.007862   0.026813
     21       0.460579  -0.267694  -0.401237   0.123520  -0.259433   0.124487
     22       0.292553  -0.090926  -0.175026   0.213683  -0.020516  -0.098928
     23      -0.188231   0.077048   0.131030  -0.105643   0.046502   0.021800
     24       0.289276  -0.408219  -0.455592  -0.270815  -0.264859   0.368508
     25      -0.146600   0.239795   0.156153   0.296793  -0.041125  -0.279117
     26       0.018768  -0.038912   0.002406  -0.081876   0.054798   0.059663
     27      -0.001058   0.008215  -0.107887   0.007901  -0.007773   0.205594
     28      -0.029457   0.501166  -0.000122   0.480756  -0.487471  -0.018723
     29       0.012131  -0.206070   0.015613  -0.197813   0.200614  -0.021543
     30      -0.291783   0.411074  -0.459277   0.273528   0.263754   0.376481
     31      -0.108189   0.186038  -0.099996   0.262397  -0.078476   0.228670
     32       0.087890  -0.136797   0.108900  -0.147618  -0.006684  -0.149052
     33      -0.454563   0.263987  -0.393339  -0.121535   0.262985   0.129174
     34       0.356288  -0.122679   0.223997   0.230635  -0.058403   0.079529
     35      -0.079495   0.012915  -0.034795  -0.076691  -0.013996  -0.052058
                 30         31         32         33         34         35    
      0       0.576892   0.000869  -0.000074  -0.000676  -0.005310   0.001662
      1      -0.038136  -0.000099  -0.000293  -0.002715   0.000694  -0.000115
      2      -0.068497  -0.000092   0.000139   0.001200   0.000512  -0.000196
      3      -0.262912   0.007107   0.005501  -0.033326  -0.024215   0.008908
      4      -0.025784  -0.014714  -0.013052   0.054126   0.040706  -0.012226
      5       0.048811   0.004966   0.004500  -0.017229  -0.013096   0.003695
      6       0.187673   0.028774   0.027176   0.012576   0.008372  -0.009146
      7      -0.060883   0.046394   0.041673   0.014580   0.006813  -0.018251
      8      -0.002396  -0.023303  -0.021147  -0.007818  -0.004039   0.008843
      9      -0.069437  -0.017582   0.001368  -0.003011  -0.027043  -0.080154
     10       0.004305   0.000945  -0.002980  -0.002392   0.002093   0.005243
     11       0.008234   0.002134   0.001021   0.001416   0.003050   0.009463
     12       0.190526   0.023174  -0.029853  -0.009714   0.010737  -0.008695
     13       0.035993  -0.042628   0.052261   0.013711  -0.011451   0.019586
     14      -0.042352   0.014041  -0.016973  -0.004197   0.003120  -0.006724
     15      -0.263630   0.006483  -0.006854   0.027743  -0.032914   0.009497
     16       0.061757   0.011755  -0.014251   0.039236  -0.048197   0.011348
     17       0.013378  -0.005781   0.006898  -0.020205   0.024641  -0.006058
     18      -0.282124   0.000261  -0.000015   0.000190   0.001525  -0.000529
     19       0.017994  -0.000006   0.000201   0.000137  -0.000119   0.000035
     20       0.033793  -0.000030  -0.000077  -0.000080  -0.000165   0.000058
     21       0.274175  -0.105414  -0.089171   0.364144   0.272502  -0.085137
     22       0.211813   0.184880   0.155916  -0.623012  -0.471033   0.142998
     23      -0.127582  -0.060083  -0.050679   0.201194   0.152490  -0.045962
     24      -0.132827  -0.347048  -0.309618  -0.111062  -0.062302   0.107436
     25       0.130875  -0.543076  -0.482453  -0.165761  -0.090346   0.173746
     26      -0.033894   0.274284   0.243812   0.084470   0.046267  -0.087131
     27      -0.077072   0.243468  -0.019385   0.035011   0.317507   0.903349
     28       0.004868  -0.015642   0.005582   0.000951  -0.021191  -0.059160
     29       0.008779  -0.028931   0.000552  -0.005458  -0.037355  -0.106741
     30      -0.134454  -0.281773   0.341789   0.087870  -0.082419   0.103142
     31      -0.114769   0.501014  -0.605175  -0.149870   0.137349  -0.189383
     32       0.066778  -0.163406   0.197215   0.048342  -0.044057   0.062288
     33       0.268995  -0.095142   0.109209  -0.302617   0.369059  -0.091840
     34      -0.247338  -0.146776   0.167972  -0.453219   0.558434  -0.135281
     35       0.059802   0.074363  -0.085084   0.230773  -0.283782   0.069091


-----------
IR SPECTRUM
-----------

 Mode   freq       eps      Int      T**2         TX        TY        TZ
       cm**-1   L/(mol*cm) km/mol    a.u.
----------------------------------------------------------------------------
  6:    201.78   0.000256    1.29  0.000395  ( 0.002491  0.007454  0.018261)
  7:    438.06   0.000007    0.04  0.000005  (-0.000014  0.000052  0.002291)
  8:    453.97   0.000265    1.34  0.000182  ( 0.000101 -0.012540  0.004966)
  9:    514.85   0.002595   13.11  0.001573  (-0.004546 -0.014298 -0.036712)
 10:    532.14   0.001176    5.94  0.000690  (-0.026017  0.001616  0.003176)
 11:    614.43   0.000037    0.19  0.000019  ( 0.000023 -0.003981  0.001732)
 12:    709.91   0.005952   30.08  0.002616  ( 0.006612  0.018556  0.047205)
 13:    735.18   0.003051   15.42  0.001295  (-0.004806 -0.013581 -0.032975)
 14:    816.05   0.000008    0.04  0.000003  (-0.000299 -0.000419 -0.001631)
 15:    835.82   0.000035    0.18  0.000013  (-0.003586  0.000197  0.000588)
 16:    876.39   0.007247   36.63  0.002581  (-0.006277 -0.018500 -0.046893)
 17:    969.50   0.006374   32.21  0.002052  (-0.044917  0.002694  0.005168)
 18:    975.93   0.000057    0.29  0.000018  (-0.002117 -0.002272 -0.002915)
 19:    980.84   0.000076    0.39  0.000024  ( 0.000022  0.001686  0.004626)
 20:   1037.07   0.002383   12.04  0.000717  ( 0.026557 -0.001535 -0.003065)
 21:   1066.15   0.001110    5.61  0.000325  ( 0.000406 -0.016632  0.006930)
 22:   1129.79   0.001210    6.12  0.000334  ( 0.000867  0.016857 -0.007027)
 23:   1146.91   0.003966   20.04  0.001079  ( 0.032553 -0.002323 -0.003729)
 24:   1244.96   0.000558    2.82  0.000140  ( 0.000078  0.010936 -0.004502)
 25:   1340.53   0.003689   18.64  0.000859  ( 0.000038  0.027128 -0.011088)
 26:   1421.55   0.001291    6.53  0.000284  ( 0.016677 -0.000906 -0.002135)
 27:   1511.96   0.006631   33.51  0.001369  ( 0.000051 -0.034224  0.014047)
 28:   1588.44   0.009268   46.84  0.001821  (-0.001270 -0.039426  0.016271)
 29:   1634.65   0.008430   42.60  0.001609  ( 0.039723 -0.003096 -0.004674)
 30:   1719.84   0.122138  617.24  0.022162  ( 0.147518 -0.009752 -0.017474)
 31:   3135.69   0.007321   37.00  0.000729  ( 0.026633  0.000964 -0.004285)
 32:   3138.71   0.011326   57.24  0.001126  (-0.001274  0.031113 -0.012508)
 33:   3178.76   0.020209  102.13  0.001984  (-0.001906  0.041308 -0.016554)
 34:   3180.47   0.006453   32.61  0.000633  (-0.024422 -0.003486  0.004956)
 35:   3199.52   0.007260   36.69  0.000708  (-0.026347  0.001947  0.003191)

* The epsilon (eps) is given for a Dirac delta lineshape.
** The dipole moment derivative (T) already includes vibrational overlap.

The first frequency considered to be a vibration is 6
The total number of vibrations considered is 30


--------------------------
THERMOCHEMISTRY AT 298.15K
--------------------------

Temperature         ...   298.15 K
Pressure            ...     1.00 atm
Total Mass          ...    93.10 AMU
Quasi RRHO          ...     True
Cut-Off Frequency   ...     1.00 cm^-1

Throughout the following assumptions are being made:
  (1) The electronic state is orbitally nondegenerate
  (2) There are no thermally accessible electronically excited states
  (3) Hindered rotations indicated by low frequency modes are not
      treated as such but are treated as vibrations and this may
      cause some error
  (4) All equations used are the standard statistical mechanics
      equations for an ideal gas
  (5) All vibrations are strictly harmonic

freq.     201.78  E(vib)   ...       0.35 
freq.     438.06  E(vib)   ...       0.17 
freq.     453.97  E(vib)   ...       0.16 
freq.     514.85  E(vib)   ...       0.13 
freq.     532.14  E(vib)   ...       0.13 
freq.     614.43  E(vib)   ...       0.10 
freq.     709.91  E(vib)   ...       0.07 
freq.     735.18  E(vib)   ...       0.06 
freq.     816.05  E(vib)   ...       0.05 
freq.     835.82  E(vib)   ...       0.04 
freq.     876.39  E(vib)   ...       0.04 
freq.     969.50  E(vib)   ...       0.03 
freq.     975.93  E(vib)   ...       0.03 
freq.     980.84  E(vib)   ...       0.02 
freq.    1037.07  E(vib)   ...       0.02 
freq.    1066.15  E(vib)   ...       0.02 
freq.    1129.79  E(vib)   ...       0.01 
freq.    1146.91  E(vib)   ...       0.01 
freq.    1244.96  E(vib)   ...       0.01 
freq.    1340.53  E(vib)   ...       0.01 
freq.    1421.55  E(vib)   ...       0.00 
freq.    1511.96  E(vib)   ...       0.00 
freq.    1588.44  E(vib)   ...       0.00 
freq.    1634.65  E(vib)   ...       0.00 
freq.    1719.84  E(vib)   ...       0.00 
freq.    3135.69  E(vib)   ...       0.00 
freq.    3138.71  E(vib)   ...       0.00 
freq.    3178.76  E(vib)   ...       0.00 
freq.    3180.47  E(vib)   ...       0.00 
freq.    3199.52  E(vib)   ...       0.00 

------------
INNER ENERGY
------------

The inner energy is: U= E(el) + E(ZPE) + E(vib) + E(rot) + E(trans)
    E(el)   - is the total energy from the electronic structure calculation
              = E(kin-el) + E(nuc-el) + E(el-el) + E(nuc-nuc)
    E(ZPE)  - the the zero temperature vibrational energy from the frequency calculation
    E(vib)  - the the finite temperature correction to E(ZPE) due to population
              of excited vibrational states
    E(rot)  - is the rotational thermal energy
    E(trans)- is the translational thermal energy

Summary of contributions to the inner energy U:
Electronic energy                ...   -306.53358557 Eh
Zero point energy                ...      0.09187812 Eh      57.65 kcal/mol
Thermal vibrational correction   ...      0.00233718 Eh       1.47 kcal/mol
Thermal rotational correction    ...      0.00141627 Eh       0.89 kcal/mol
Thermal translational correction ...      0.00141627 Eh       0.89 kcal/mol
-----------------------------------------------------------------------
Total thermal energy                   -306.43653774 Eh


Summary of corrections to the electronic energy:
(perhaps to be used in another calculation)
Total thermal correction                  0.00516972 Eh       3.24 kcal/mol
Non-thermal (ZPE) correction              0.09187812 Eh      57.65 kcal/mol
-----------------------------------------------------------------------
Total correction                          0.09704784 Eh      60.90 kcal/mol


--------
ENTHALPY
--------

The enthalpy is H = U + kB*T
                kB is Boltzmann's constant
Total thermal energy              ...   -306.43653774 Eh 
Thermal Enthalpy correction       ...      0.00094421 Eh       0.59 kcal/mol
-----------------------------------------------------------------------
Total Enthalpy                    ...   -306.43559353 Eh


Note: Only C1 symmetry has been detected, increase convergence thresholds 
      if your molecule has a higher symmetry. Symmetry factor of 1.0 is   
      used for the rotational entropy correction. 
 

Note: Rotational entropy computed according to Herzberg 
Infrared and Raman Spectra, Chapter V,1, Van Nostrand Reinhold, 1945 
Point Group:  C1, Symmetry Number:   1  
Rotational constants in cm-1:     0.190684     0.089585     0.060950 

Vibrational entropy computed according to the QRRHO of S. Grimme
Chem.Eur.J. 2012 18 9955 using a reference frequency of 100.0 cm-1


-------
ENTROPY
-------

The entropy contributions are T*S = T*(S(el)+S(vib)+S(rot)+S(trans))
     S(el)   - electronic entropy
     S(vib)  - vibrational entropy
     S(rot)  - rotational entropy
     S(trans)- translational entropy
The entropies will be listed as multiplied by the temperature to get
units of energy

Electronic entropy                ...      0.00000000 Eh      0.00 kcal/mol
Vibrational entropy               ...      0.00338987 Eh      2.13 kcal/mol
Rotational entropy                ...      0.01275284 Eh      8.00 kcal/mol
Translational entropy             ...      0.01877006 Eh     11.78 kcal/mol
-----------------------------------------------------------------------
Final entropy term                ...      0.03491277 Eh     21.91 kcal/mol

In case the symmetry of your molecule has not been determined correctly
or in case you have a reason to use a different symmetry number we print 
out the resulting rotational entropy values for sn=1,12:

 non-linear molecules -----------------------------------
|  sn= 1 | S(rot)=       0.01275284 Eh      8.00 kcal/mol|
|  sn= 2 | S(rot)=       0.01209839 Eh      7.59 kcal/mol|
|  sn= 3 | S(rot)=       0.01171556 Eh      7.35 kcal/mol|
|  sn= 4 | S(rot)=       0.01144393 Eh      7.18 kcal/mol|
|  sn= 5 | S(rot)=       0.01123324 Eh      7.05 kcal/mol|
|  sn= 6 | S(rot)=       0.01106110 Eh      6.94 kcal/mol|
|  sn= 7 | S(rot)=       0.01091555 Eh      6.85 kcal/mol|
|  sn= 8 | S(rot)=       0.01078947 Eh      6.77 kcal/mol|
|  sn= 9 | S(rot)=       0.01067827 Eh      6.70 kcal/mol|
|  sn=10 | S(rot)=       0.01057879 Eh      6.64 kcal/mol|
|  sn=11 | S(rot)=       0.01048880 Eh      6.58 kcal/mol|
|  sn=12 | S(rot)=       0.01040664 Eh      6.53 kcal/mol|
 linear molecules ---------------------------------------
|  Dinfh | S(rot)=       0.00796734 Eh      5.00 kcal/mol|
|  Cinfv | S(rot)=       0.00862180 Eh      5.41 kcal/mol|
 --------------------------------------------------------


-------------------
GIBBS FREE ENERGY
-------------------

The Gibbs free energy is G = H - T*S

Total enthalpy                    ...   -306.43559353 Eh 
Total entropy correction          ...     -0.03491277 Eh    -21.91 kcal/mol
-----------------------------------------------------------------------
Final Gibbs free energy         ...   -306.47050630 Eh

For completeness - the Gibbs free energy minus the electronic energy
G-E(el)                           ...      0.06307927 Eh     39.58 kcal/mol


Maximum memory used throughout the entire PROP-calculation: 29.5 MB

--------------------------------
SUGGESTED CITATIONS FOR THIS RUN
--------------------------------

Below you find a list of papers that are relevant to this ORCA run
We neither can nor want to force you to cite these papers, but we appreciate if you do
You receive ORCA, which is the product of decades of hard work by many enthusiastic individuals, for free
The only thing we kindly ask in return is that you cite our papers,
We deeply appreciate it, if you show your appreciation for ORCA by not just citing the generic ORCA reference.

Please note that relegating all ORCA citations to the supporting information does *not* help us.
SI sections are not indexed - citations you put there will not count into any citation statistics
But we need these citations in order to attract the funding resources that allow us to do what we are doing

Therefore, if you are a happy ORCA user, please consider citing a few of the papers listed below in the main body of your paper

In addition to the list printed below, the program has created the file /users/s1155246976/scratch/phenol_pka_B/phenol_pka_B.bibtex that contains the list in bibtex format
You can import this file easily into all common literature databanks and citation aid programs


List of essential papers. We consider these as the minimum necessary citations

  1. Neese, F.
     Software update: the ORCA program system, version 6.0
     WIRES Comput. Molec. Sci. 2025 15(1), e70019
     doi.org/10.1002/wcms.7019

List of papers to cite with high priority. The work reported in these papers was absolutely
necessary for this run to complete.
Our perspective: the developers of density functionals and basis sets usually get cited in chemistry papers
Good! But without the algorithms to do something with them, the functionals or basis sets would not do anything.
Hence, in our opinion, the algorithm design and method developments papers are equally worthy of getting cited

  1. Neese, F.
     An improvement of the resolution of the identity approximation for the formation of the Coulomb matrix
     J. Comp. Chem. 2003 24(14), 1740-1747
     doi.org/10.1002/jcc.10318
  2. Neese, F.; Wennmohs, F.; Hansen, A.; Becker, U.
     Efficient, approximate and parallel Hartree-Fock and hybrid DFT calculations. A 'chain-of-spheres' algorithm for the Hartree-Fock exchange
     Chem. Phys. 2009 356(1-3), 98-109
     doi.org/10.1016/j.chemphys.2008.10.036
  3. Bykov, D.; Petrenko, T.; Izsak, R.; Kossmann, S.; Becker, U.; Valeev, E.; Neese, F.
     Efficient implementation of the analytic second derivatives of Hartree-Fock and hybrid DFT energies: a detailed analysis of different approximations
     Molec. Phys. 2015 113 , 1961-1977
     doi.org/10.1080/00268976.2015.1025114
  4. Helmich-Paris, B.; de Souza, B.; Neese, F.; Izsák, R.
     An improved chain of spheres for exchange algorithm
     J. Chem. Phys. 2021 155(10), 104109
     doi.org/10.1063/5.0058766
  5. Neese, F.
     The SHARK Integral Generation and Digestion System
     J. Comp. Chem. 2022 44(3), 381
     doi.org/10.1002/jcc.26942

List of suggested additional citations. These are papers that are important in the 'surrounding' of 
of this run, or papers that preceded the highly important papers. If you like your results we are grateful for a citation.

  1. Izsak, R.; Neese, F.
     An overlap fitted chain of spheres exchange method
     J. Chem. Phys. 2011 135 , 144105
     doi.org/10.1063/1.3646921
  2. Izsak, R.; Hansen, A.; Neese, F.
     The resolution of identity and chain of spheres approximations for the LPNO-CCSD singles Fock term
     Molec. Phys. 2012 110 , 2413-2417
     doi.org/10.1080/00268976.2012.687466
  3. Neese, F.
     The ORCA program system
     WIRES Comput. Molec. Sci. 2012 2(1), 73-78
     doi.org/10.1002/wcms.81
  4. Izsak, R.; Neese, F.; Klopper, W.
     Robust fitting techniques in the chain of spheres approximation to the Fock exchange: The role of the complementary space
     J. Chem. Phys. 2013 139 , 
     doi.org/10.1063/1.4819264
  5. Neese, F.
     Software update: the ORCA program system, version 4.0
     WIRES Comput. Molec. Sci. 2018 8(1), 1-6
     doi.org/10.1002/wcms.1327
  6. Neese, F.; Wennmohs, F.; Becker, U.; Riplinger, C.
     The ORCA quantum chemistry program package
     J. Chem. Phys. 2020 152(22), 224108
     doi.org/10.1063/5.0004608
  7. Neese, F.
     Software update: The ORCA program system—Version 5.0
     WIRES Comput. Molec. Sci. 2022 12(1), e1606
     doi.org/10.1002/wcms.1606

List of optional additional citations

  1. Neese, F.
     Approximate second-order SCF convergence for spin unrestricted wavefunctions
     Chem. Phys. Lett. 2000 325(1-3), 93-98
     doi.org/10.1016/s0009-2614(00)00662-x

Timings for individual modules:

Sum of individual times          ...      962.008 sec (=  16.033 min)
Startup calculation              ...      102.355 sec (=   1.706 min)  10.6 %
SCF iterations                   ...      583.334 sec (=   9.722 min)  60.6 %
Property integrals               ...       56.837 sec (=   0.947 min)   5.9 %
SCF Response                     ...      143.059 sec (=   2.384 min)  14.9 %
Property calculations            ...       20.725 sec (=   0.345 min)   2.2 %
SCF Gradient evaluation          ...       55.275 sec (=   0.921 min)   5.7 %
Geometry relaxation              ...        0.423 sec (=   0.007 min)   0.0 %
                             ****ORCA TERMINATED NORMALLY****
TOTAL RUN TIME: 0 days 0 hours 17 minutes 7 seconds 802 msec
