
                                 *****************
                                 * O   R   C   A *
                                 *****************

                                            #,                                       
                                            ###                                      
                                            ####                                     
                                            #####                                    
                                            ######                                   
                                           ########,                                 
                                     ,,################,,,,,                         
                               ,,#################################,,                 
                          ,,##########################################,,             
                       ,#########################################, ''#####,          
                    ,#############################################,,   '####,        
                  ,##################################################,,,,####,       
                ,###########''''           ''''###############################       
              ,#####''   ,,,,##########,,,,          '''####'''          '####       
            ,##' ,,,,###########################,,,                        '##       
           ' ,,###''''                  '''############,,,                           
         ,,##''                                '''############,,,,        ,,,,,,###''
      ,#''                                            '''#######################'''  
     '                                                          ''''####''''         
             ,#######,   #######,   ,#######,      ##                                
            ,#'     '#,  ##    ##  ,#'     '#,    #''#        ,####,    ,#,          
            ##       ##  ##   ,#'  ##            #'  '#       #'       ,# #          
            ##       ##  #######   ##           ,######,      #####,      #          
            '#,     ,#'  ##    ##  '#,     ,#' ,#      #,     #,   #      #          
             '#######'   ##     ##  '#######'  #'      '#     '####' #    #          



                #########################################################
                #                        -***-                          #
                #          Department of theory and spectroscopy        #
                #                                                       #
                #                      Frank Neese                      #
                #                                                       #
                #     Directorship, Architecture, Infrastructure        #
                #                    SHARK, DRIVERS                     #
                #        Core code/Algorithms in most modules           #
                #                                                       #
                #        Max Planck Institute fuer Kohlenforschung      #
                #                Kaiser Wilhelm Platz 1                 #
                #                 D-45470 Muelheim/Ruhr                 #
                #                      Germany                          #
                #                                                       #
                #                  All rights reserved                  #
                #                        -***-                          #
                #########################################################


                         Program Version 6.1.0  -  RELEASE   -
                                (GIT: $679e74b$)
                          ($2025-06-10 18:02:51 +0200$)


 With contributions from (in alphabetic order):
[Max-Planck-Institut fuer Kohlenforschung]                               
  Daniel Aravena         : Magnetic Suceptibility                        
  Michael Atanasov       : Ab Initio Ligand Field Theory (pilot matlab implementation)
  Alexander A. Auer      : GIAO ZORA, VPT2 properties, NMR spectrum      
  Ute Becker             : All parallelization in ORCA, NUMFREQ, NUMCALC 
  Giovanni Bistoni       : ED, misc. LED, open-shell LED, HFLD           
  Dmytro Bykov           : pre 5.0 version of the SCF Hessian            
  Marcos Casanova-Páez   : Triplet and SCS-CIS(D). UHF-(DLPNO)-IP/EA/STEOM-CCSD. UHF-CVS-IP/STEOM-CCSD   
  Vijay G. Chilkuri      : MRCI spin determinant printing, contributions to CSF-ICE 
  Pauline Colinet        : FMM embedding                                 
  Dipayan Datta          : RHF DLPNO-CCSD density                        
  Achintya Kumar Dutta   : EOM-CC, STEOM-CC                              
  Nicolas Foglia         : Exact transition moments, OPA infrastructure, MCD improvements    
  Dmitry Ganyushin       : Spin-Orbit,Spin-Spin,Magnetic field MRCI      
  Miquel Garcia-Rates    : C-PCM and meta-GGA Hessian, CCSD/C-PCM, Gaussian charge scheme 
  Tiago L. C. Gouveia    : GS-ROHF, GS-ROCIS                             
  Yang Guo               : DLPNO-NEVPT2, F12-NEVPT2, CIM, IAO-localization        
  Andreas Hansen         : Spin unrestricted coupled pair/coupled cluster methods 
  Ingolf Harden          : AUTO-CI MPn and infrastructure                
  Benjamin Helmich-Paris : MC-RPA, TRAH-(SCF,CASSCF), AVAS, COSX integrals, SCF dyn. polar., MC-PDFT, srDFT 
  Lee Huntington         : MR-EOM, pCC                                   
  Robert Izsak           : Overlap fitted RIJCOSX, COSX-SCS-MP3, EOM     
  Riya Kayal             : Wick's Theorem for AUTO-CI, AUTO-CI UHF-CCSDT 
  Emily Kempfer          : AUTO-CI RHF CISDT and CCSDT, approximate NEVPT4
  Christian Kollmar      : KDIIS, OOCD, Brueckner-CCSD(T), CCSD density, CASPT2, CASPT2-K, improved NEVPT2 
  Axel Koslowski         : Symmetry handling                             
  Simone Kossmann        : meta-GGA functionals, TD-DFT gradient, OOMP2, (MP2 Hessian; deprecated post 5.0) 
  Lucas Lang             : DCDCAS, Hyperfine gauge corrections, ICE-SOC+SSC
  Marvin Lechner         : AUTO-CI (C++ implementation), FIC-MRCC        
  Spencer Leger          : CASSCF response                               
  Dagmar Lenk            : GEPOL surface, SMD, ORCA-2-JSON               
  Dimitrios Liakos       : Extrapolation schemes; Compound Job, Property file
  Dimitrios Manganas     : Further ROCIS development; embedding schemes. LFT, Crystal Embedding 
  Dimitrios Pantazis     : SARC Basis sets                               
  Anastasios Papadopoulos: AUTO-CI, single reference methods and gradients 
  Taras Petrenko         : pre 6.0 DFT Hessian and TD-DFT gradient,  ECA, NRVS 
  Petra Pikulova         : Analytic Raman intensities                    
  Peter Pinski           : DLPNO-MP2, DLPNO-MP2 Gradient                 
  Shashank Vittal Rao    : ES-AILFT, MagRelax                            
  Christoph Reimann      : Effective Core Potentials                     
  Marius Retegan         : Local ZFS, SOC                                
  Christoph Riplinger    : Optimizer, TS searches, QM/MM, DLPNO-CCSD(T), (RO)-DLPNO pert. Triples 
  Michael Roemelt        : Original ROCIS implementation, recursive CI coupling coefficients
  Masaaki Saitow         : Open-shell DLPNO-CCSD energy and density      
  Barbara Sandhoefer     : DKH picture change effects                    
  Yorick L. A. Schmerwitz: GMF and freeze-and-release deltaSCF, NEB S-IDPP initial path                    
  Kantharuban Sivalingam : CASSCF convergence/infrastructure, NEVPT2, NEVPT3, NEVPT4(SD), FIC-MRCI and CEPA variants
  Bernardo de Souza      : ESD, SOC TD-DFT                               
  Georgi L. Stoychev     : AutoAux, RI-MP2 NMR, DLPNO-MP2 response, X2C  
  Van Anh Tran           : RI-MP2 g-tensors                              
  Willem Van den Heuvel  : Paramagnetic NMR                              
  Zikuan Wang            : NOTCH, Electric field optimization            
  Frank Wennmohs         : Technical directorship and infrastructure     
  Hang Xu                : AUTO-CI-Response properties                   
                                                                         
[FACCTs GmbH]                                                            
  Markus Bursch, Nicolas Foglia, Miquel Garcia-Rates, Ingolf Harden, Hagen Neugebauer, Anastasios Papadopoulos, 
  Christoph Riplinger, Bernardo de Souza, Georgi L. Stoychev                                                    
                                                                 
  APM, various basis sets, CI-OPT, improved COSX, DLPNO-Multilevel,           
  DOCKER, DRACO, updates on ESD, Fragmentator, GOAT, IRC, LR-CPCM, L-BFGS, MBIS, meta-GGA TD-DFT gradient, ML-optimized integration grids, 
  MM, NACMEs, nearIR, NEB, NEB-TS, NL-DFT gradient (VV10), 2- and 3-layer-ONIOM, interface openCOSMO-RS, QMMM,   
  Crystal-QMMM, RESP, rigid body optimization, SF, symmetry and pop. for TD-DFT, various functionals, SOLVATOR                                   
                                                                         
[Other institutions]                                                     
  V. Asgeirsson          : NEB                                           
  Christoph Bannwarth    : sTDA-DFT, sTD-DFT, PBEh-3c, B97-3c, D3        
  Giovanni Bistoni       : ETS/NOCV, ADLD/ADEX, COVALED                  
  Martin Brehm           : Molecular dynamics                            
  Ronald Cardenas        : ETS/NOCV                                      
  Martina Colucci        : COVALED                                       
  Sebastian Ehlert       : rSCAN, r2SCAN, r2SCAN-3c, D4, dhf basis sets  
  Marvin Friede          : D4 for Fr, Ra, Ac-Lr                          
  Lars Goerigk           : TD-DFT with DH, B97 family of functionals     
  Stefan Grimme          : VdW corrections, initial TS optimization, DFT functionals, gCP, sTDA/sTD-DF 
  Waldemar Hujo          : DFT-NL                                        
  H. Jonsson             : NEB                                           
  Holger Kruse           : gCP                                           
  Marcel Mueller         : wB97X-3c, vDZP basis set                      
  Hagen Neugebauer       : wr2SCAN, Native XTB                           
  Gianluca Regni         : ADLD/ADEX                                     
  Tobias Risthaus        : pre 6.0 range-separated hybrid DFT and stability analysis
  Lukas Wittmann         : regularized MP2, r2SCAN double-hybrids, wr2SCAN        
                                                                         
We gratefully acknowledge several colleagues who have allowed us to      
interface, adapt or use parts of their codes:                            
  Ed Valeev, F. Pavosevic, A. Kumar             : LibInt (2-el integral package), F12 methods 
  Garnet Chan, S. Sharma, J. Yang, R. Olivares  : DMRG                   
  Ulf Ekstrom                                   : XCFun DFT Library      
  Mihaly Kallay                                 : mrcc  (arbitrary order and MRCC methods)
  Frank Weinhold                                : gennbo (NPA and NBO analysis)           
  Simon Mueller                                 : openCOSMO-RS                            
  Christopher J. Cramer and Donald G. Truhlar   : smd solvation model                     
  S Lehtola, MJT Oliveira, MAL Marques          : LibXC Library                           
  Liviu Ungur et al                             : ANISO software                          


 Your calculation uses the libint2 library for the computation of 2-el integrals
 For citations please refer to: http://libint.valeyev.net

 Your ORCA version has been built with support for libXC version: 7.0.0
 For citations please refer to: https://libxc.gitlab.io

 This ORCA versions uses:
   CBLAS   interface :  Fast vector & matrix operations
   LAPACKE interface :  Fast linear algebra routines
   SCALAPACK package :  Parallel linear algebra routines
   Shared memory     :  Shared parallel matrices
   BLAS/LAPACK       :  OpenBLAS 0.3.29  USE64BITINT DYNAMIC_ARCH NO_AFFINITY Cooperlake SINGLE_THREADED
        Core in use  :  Cooperlake
   Copyright (c) 2011-2014, The OpenBLAS Project


  ***********************************
  * Starting time: Mon Mar  2 16:27:50 2026
  * Host name:     chpc-cn075.rc.cuhk.edu.hk
  * Process ID:    2556958
  * Working dir.:  /ss02/scratch/s1/xlzhang/jingyi/phenol_pka_HB
  ***********************************

NOTE: MaxCore=2109 MB was set to SCF,MP2,MDCI,CIPSI,MRCI,RASCI and CIS
      => If you want to overwrite this, your respective input block should be placed after the MaxCore statement
XCFun DFT library Copyright 2009-2010 Ulf Ekstrom and contributors.
See http://admol.org/xcfun for more information.
This is free software; see the source code for copying conditions.
There is ABSOLUTELY NO WARRANTY; not even for MERCHANTABILITY or FITNESS FOR A PARTICULAR PURPOSE.
For details see the documentation.
Scientific users of this library should cite U. Ekstrom, L. Visscher, R. Bast, A. J. Thorvaldsen and K. Ruud;
J.Chem.Theor.Comp. 2010, DOI: 10.1021/ct100117s
XCFun Version 0.99 

Warning: RI is on but no J-basis has been assigned. Assigning Def2/J (nothing to worry about!)
================================================================================

----- Orbital basis set information -----
Your calculation utilizes the basis: def2-SVP
   F. Weigend and R. Ahlrichs, Phys. Chem. Chem. Phys. 7, 3297 (2005).

----- AuxJ basis set information -----
Your calculation utilizes the auxiliary basis: def2/J
   H-Rn: F. Weigend, Phys. Chem. Chem. Phys. 8, 1057 (2006).
   Fr-Lr: K. Eichkorn, F. Weigend, O. Treutler, R. Ahlrichs; Theor. Chem. Acc. 97, 119 (1997).

================================================================================
                                        WARNINGS
                       Please study these warnings very carefully!
================================================================================

WARNING: Functional chosen is sensitive to the integration grid.
         DEFGRID3 seems to be a minimum grid for robust results!

WARNING: Geometry Optimization
  ===> : Switching off AutoStart
         For restart on a previous wavefunction, please use MOREAD

================================================================================
                                       INPUT FILE
================================================================================
NAME = /users/s1155246976/scratch/phenol_pka_HB/phenol_pka_HB.inp
|  1> ! Opt Freq M062X def2-SVP defgrid2
|  2> # Number of processors
|  3> %pal nprocs 64 end
|  4> # Memory per core
|  5> %maxcore 2109
|  6> * xyz 0 1
|  7> C        1.1188632087   -0.0146102860   -0.1571888087
|  8> C        0.4201635620   -1.0902066527    0.3839458152
|  9> C       -0.9630342548   -0.9961788917    0.5472470704
| 10> C       -1.6351146606    0.1677279819    0.1699394003
| 11> C       -0.9250885213    1.2400039475   -0.3714921604
| 12> C        0.4568758916    1.1481040178   -0.5354833197
| 13> O        2.4701450445   -0.0626495556   -0.3346144593
| 14> H        2.7899891139   -0.9267422904   -0.0283773304
| 15> H        0.9295661661   -2.0008726801    0.6815611049
| 16> H       -1.5187180001   -1.8298223936    0.9687184053
| 17> H       -2.7122043211    0.2394478615    0.2977145629
| 18> H       -1.4467942180    2.1466793681   -0.6656809037
| 19> H        1.0153509891    1.9791195735   -0.9562893769
| 20> *
| 21> 
| 22>                          ****END OF INPUT****
================================================================================

                       *****************************
                       * Geometry Optimization Run *
                       *****************************

Geometry optimization settings:
Update method            Update   .... BFGS
Choice of coordinates    CoordSys .... (2022) Redundant Internals
Initial Hessian          InHess   .... Almloef's Model
Max. no of cycles        MaxIter  .... 50

Convergence Tolerances:
Energy Change            TolE     ....  5.0000e-06 Eh
Max. Gradient            TolMAXG  ....  3.0000e-04 Eh/bohr
RMS Gradient             TolRMSG  ....  1.0000e-04 Eh/bohr
Max. Displacement        TolMAXD  ....  4.0000e-03 bohr
RMS Displacement         TolRMSD  ....  2.0000e-03 bohr
Strict Convergence                .... False

------------------------------------------------------------------------------
                        ORCA OPTIMIZATION COORDINATE SETUP
------------------------------------------------------------------------------

The optimization will be done in redundant internal coordinates (2022)
Making redundant internal coordinates   ...  (2022 redundants) done
Evaluating the initial hessian          ...  (Almloef) done
Evaluating the coordinates              ...  done
Calculating the B-matrix                .... done
Calculating the G-matrix                .... done
The number of degrees of freedom        ....   58

    -----------------------------------------------------------------
                    Redundant Internal Coordinates


    -----------------------------------------------------------------
         Definition                    Initial Value    Approx d2E/dq
    -----------------------------------------------------------------
      1. B(C   1,C   0)                  1.3921         0.620017   
      2. B(C   2,C   1)                  1.3960         0.611233   
      3. B(C   3,C   2)                  1.3960         0.611243   
      4. B(C   4,C   3)                  1.3954         0.612589   
      5. B(C   5,C   4)                  1.3947         0.614120   
      6. B(C   5,C   0)                  1.3904         0.623857   
      7. B(O   6,C   0)                  1.3637         0.616301   
      8. B(H   7,O   6)                  0.9709         0.499461   
      9. B(H   8,C   1)                  1.0851         0.366680   
     10. B(H   9,C   2)                  1.0869         0.364204   
     11. B(H  10,C   3)                  1.0870         0.364076   
     12. B(H  11,C   4)                  1.0866         0.364574   
     13. B(H  12,C   5)                  1.0861         0.365330   
     14. A(C   1,C   0,O   6)          121.3781         0.430766   
     15. A(C   1,C   0,C   5)          120.8583         0.434553   
     16. A(C   5,C   0,O   6)          117.7636         0.431244   
     17. A(C   2,C   1,H   8)          119.3151         0.353140   
     18. A(C   0,C   1,H   8)          121.2954         0.353994   
     19. A(C   0,C   1,C   2)          119.3894         0.432958   
     20. A(C   1,C   2,H   9)          120.0178         0.352735   
     21. A(C   1,C   2,C   3)          120.1045         0.431850   
     22. A(C   3,C   2,H   9)          119.8777         0.352736   
     23. A(C   2,C   3,H  10)          120.0191         0.352715   
     24. A(C   2,C   3,C   4)          120.0398         0.432022   
     25. A(C   4,C   3,H  10)          119.9410         0.352847   
     26. A(C   3,C   4,C   5)          119.9464         0.432387   
     27. A(C   5,C   4,H  11)          119.9256         0.353077   
     28. A(C   3,C   4,H  11)          120.1280         0.352928   
     29. A(C   0,C   5,C   4)          119.6616         0.433806   
     30. A(C   4,C   5,H  12)          120.3089         0.353201   
     31. A(C   0,C   5,H  12)          120.0295         0.354144   
     32. A(C   0,O   6,H   7)          108.4649         0.367192   
     33. D(H   8,C   1,C   0,C   5)   -179.9999         0.026601   
     34. D(H   8,C   1,C   0,O   6)      0.0000         0.026601   
     35. D(C   2,C   1,C   0,O   6)    179.9999         0.026601   
     36. D(C   2,C   1,C   0,C   5)     -0.0000         0.026601   
     37. D(H   9,C   2,C   1,C   0)    180.0000         0.025809   
     38. D(C   3,C   2,C   1,C   0)     -0.0001         0.025809   
     39. D(C   3,C   2,C   1,H   8)    179.9998         0.025809   
     40. D(H   9,C   2,C   1,H   8)     -0.0001         0.025809   
     41. D(H  10,C   3,C   2,H   9)      0.0000         0.025810   
     42. D(H  10,C   3,C   2,C   1)   -179.9999         0.025810   
     43. D(C   4,C   3,C   2,H   9)   -179.9999         0.025810   
     44. D(C   4,C   3,C   2,C   1)      0.0001         0.025810   
     45. D(H  11,C   4,C   3,C   2)    180.0000         0.025930   
     46. D(C   5,C   4,C   3,H  10)    180.0000         0.025930   
     47. D(C   5,C   4,C   3,C   2)     -0.0001         0.025930   
     48. D(H  11,C   4,C   3,H  10)      0.0001         0.025930   
     49. D(H  12,C   5,C   4,H  11)     -0.0000         0.026068   
     50. D(C   0,C   5,C   4,H  11)    179.9999         0.026068   
     51. D(C   0,C   5,C   4,C   3)      0.0000         0.026068   
     52. D(H  12,C   5,C   0,O   6)      0.0001         0.026952   
     53. D(H  12,C   5,C   0,C   1)   -180.0000         0.026952   
     54. D(H  12,C   5,C   4,C   3)   -180.0000         0.026068   
     55. D(C   4,C   5,C   0,O   6)   -179.9999         0.026952   
     56. D(C   4,C   5,C   0,C   1)      0.0001         0.026952   
     57. D(H   7,O   6,C   0,C   5)    179.9999         0.027843   
     58. D(H   7,O   6,C   0,C   1)     -0.0000         0.027843   
    -----------------------------------------------------------------

Number of atoms                         .... 13
Number of degrees of freedom            .... 58


         *************************************************************
         *                GEOMETRY OPTIMIZATION CYCLE   1            *
         *************************************************************
---------------------------------
CARTESIAN COORDINATES (ANGSTROEM)
---------------------------------
  C      1.118863   -0.014610   -0.157189
  C      0.420164   -1.090207    0.383946
  C     -0.963034   -0.996179    0.547247
  C     -1.635115    0.167728    0.169939
  C     -0.925089    1.240004   -0.371492
  C      0.456876    1.148104   -0.535483
  O      2.470145   -0.062650   -0.334614
  H      2.789989   -0.926742   -0.028377
  H      0.929566   -2.000873    0.681561
  H     -1.518718   -1.829822    0.968718
  H     -2.712204    0.239448    0.297715
  H     -1.446794    2.146679   -0.665681
  H      1.015351    1.979120   -0.956289

----------------------------
CARTESIAN COORDINATES (A.U.)
----------------------------
  NO LB      ZA    FRAG     MASS         X           Y           Z
   0 C     6.0000    0    12.011    2.114345   -0.027609   -0.297044
   1 C     6.0000    0    12.011    0.793994   -2.060192    0.725552
   2 C     6.0000    0    12.011   -1.819871   -1.882505    1.034147
   3 C     6.0000    0    12.011   -3.089919    0.316960    0.321139
   4 C     6.0000    0    12.011   -1.748164    2.343268   -0.702018
   5 C     6.0000    0    12.011    0.863370    2.169602   -1.011917
   6 O     8.0000    0    15.999    4.667898   -0.118391   -0.632330
   7 H     1.0000    0     1.008    5.272315   -1.751289   -0.053625
   8 H     1.0000    0     1.008    1.756625   -3.781101    1.287964
   9 H     1.0000    0     1.008   -2.869961   -3.457863    1.830612
  10 H     1.0000    0     1.008   -5.125323    0.452491    0.562599
  11 H     1.0000    0     1.008   -2.734045    4.056636   -1.257955
  12 H     1.0000    0     1.008    1.918735    3.739994   -1.807125

--------------------------------
INTERNAL COORDINATES (ANGSTROEM)
--------------------------------
 C      0   0   0     0.000000000000     0.00000000     0.00000000
 C      1   0   0     1.392090306532     0.00000000     0.00000000
 C      2   1   0     1.395974469748   119.38942662     0.00000000
 C      3   2   1     1.395970042727   120.10447206     0.00000000
 C      4   3   2     1.395371276691   120.03983965     0.00000000
 C      1   2   3     1.390409471097   120.85831302     0.00000000
 O      1   2   3     1.363726597481   121.37807383   179.99989962
 H      7   1   2     0.970946786483   108.46489451     0.00000000
 H      2   1   3     1.085070729117   121.29544669   180.00010352
 H      3   2   1     1.086914899701   120.01783464   179.99997614
 H      4   3   2     1.087010749746   120.01911356   180.00005836
 H      5   4   3     1.086638932201   120.12802715   179.99998244
 H      6   1   2     1.086075055472   120.02954841   180.00002541

---------------------------
INTERNAL COORDINATES (A.U.)
---------------------------
 C      0   0   0     0.000000000000     0.00000000     0.00000000
 C      1   0   0     2.630669433032     0.00000000     0.00000000
 C      2   1   0     2.638009437770   119.38942662     0.00000000
 C      3   2   1     2.638001071911   120.10447206     0.00000000
 C      4   3   2     2.636869568086   120.03983965     0.00000000
 C      1   2   3     2.627493114383   120.85831302     0.00000000
 O      1   2   3     2.577069790784   121.37807383   179.99989962
 H      7   1   2     1.834823517064   108.46489451     0.00000000
 H      2   1   3     2.050486513966   121.29544669   180.00010352
 H      3   2   1     2.053971491314   120.01783464   179.99997614
 H      4   3   2     2.054152621648   120.01911356   180.00005836
 H      5   4   3     2.053449988316   120.12802715   179.99998244
 H      6   1   2     2.052384415726   120.02954841   180.00002541

---------------------
BASIS SET INFORMATION
---------------------
There are 3 groups of distinct atoms

 Group   1 Type C   : 7s4p1d contracted to 3s2p1d pattern {511/31/1}
 Group   2 Type O   : 7s4p1d contracted to 3s2p1d pattern {511/31/1}
 Group   3 Type H   : 4s1p contracted to 2s1p pattern {31/1}

Atom   0C    basis set group =>   1
Atom   1C    basis set group =>   1
Atom   2C    basis set group =>   1
Atom   3C    basis set group =>   1
Atom   4C    basis set group =>   1
Atom   5C    basis set group =>   1
Atom   6O    basis set group =>   2
Atom   7H    basis set group =>   3
Atom   8H    basis set group =>   3
Atom   9H    basis set group =>   3
Atom  10H    basis set group =>   3
Atom  11H    basis set group =>   3
Atom  12H    basis set group =>   3
---------------------------------
AUXILIARY/J BASIS SET INFORMATION
---------------------------------
There are 3 groups of distinct atoms

 Group   1 Type C   : 12s5p4d2f1g contracted to 6s4p3d1f1g pattern {711111/2111/211/2/1}
 Group   2 Type O   : 12s5p4d2f1g contracted to 6s4p3d1f1g pattern {711111/2111/211/2/1}
 Group   3 Type H   : 5s2p1d contracted to 3s1p1d pattern {311/2/1}

Atom   0C    basis set group =>   1
Atom   1C    basis set group =>   1
Atom   2C    basis set group =>   1
Atom   3C    basis set group =>   1
Atom   4C    basis set group =>   1
Atom   5C    basis set group =>   1
Atom   6O    basis set group =>   2
Atom   7H    basis set group =>   3
Atom   8H    basis set group =>   3
Atom   9H    basis set group =>   3
Atom  10H    basis set group =>   3
Atom  11H    basis set group =>   3
Atom  12H    basis set group =>   3


           ************************************************************
           *        Program running with 64 parallel MPI-processes    *
           *              working on a common directory               *
           ************************************************************
------------------------------------------------------------------------------
                             ORCA STARTUP CALCULATIONS
                           -- RI-GTO INTEGRALS CHOSEN --
------------------------------------------------------------------------------
------------------------------------------------------------------------------
                   ___                                                        
                  /   \      - P O W E R E D   B Y -                         
                 /     \                                                     
                 |  |  |   _    _      __       _____    __    __             
                 |  |  |  | |  | |    /  \     |  _  \  |  |  /  |          
                  \  \/   | |  | |   /    \    | | | |  |  | /  /          
                 / \  \   | |__| |  /  /\  \   | |_| |  |  |/  /          
                |  |  |   |  __  | /  /__\  \  |    /   |      \           
                |  |  |   | |  | | |   __   |  |    \   |  |\   \          
                \     /   | |  | | |  |  |  |  | |\  \  |  | \   \       
                 \___/    |_|  |_| |__|  |__|  |_| \__\ |__|  \__/        
                                                                              
                      - O R C A' S   B I G   F R I E N D -                    
                                      &                                       
                       - I N T E G R A L  F E E D E R -                       
                                                                              
 v1 FN, 2020, v2 2021, v3 2022-2024                                           
------------------------------------------------------------------------------


----------------------
SHARK INTEGRAL PACKAGE
----------------------

Number of atoms                             ...     13
Number of basis functions                   ...    128
Number of shells                            ...     60
Maximum angular momentum                    ...      2
Integral batch strategy                     ... SHARK/LIBINT Hybrid
RI-J (if used) integral strategy            ... SPLIT-RIJ (Revised 2003 algorithm where possible)
Printlevel                                  ...      1
Contraction scheme used                     ... SEGMENTED contraction
Prescreening option                         ... SCHWARTZ
   Thresh                                   ... 2.500e-11
   Tcut                                     ... 2.500e-12
   Tpresel                                  ... 2.500e-12 
Coulomb Range Separation                    ... NOT USED
Exchange Range Separation                   ... NOT USED
Multipole approximations                    ... NOT USED
Finite Nucleus Model                        ... NOT USED
CABS basis                                  ... NOT available
Auxiliary Coulomb fitting basis             ... AVAILABLE
   # of basis functions in Aux-J            ...    409
   # of shells in Aux-J                     ...    135
   Maximum angular momentum in Aux-J        ...      4
Auxiliary J/K fitting basis                 ... NOT available
Auxiliary Correlation fitting basis         ... NOT available
Auxiliary 'external' fitting basis          ... NOT available

Checking pre-screening integrals            ... done (  0.3 sec) Dimension = 60
   => SHARK Basis and OBASIS are compatible. Storing Pre-screening
Shell pair information
Shell pair cut-off parameter TPreSel        ...   2.5e-12
Total number of shell pairs                 ...      1830
Shell pairs after pre-screening             ...      1767
Total number of primitive shell pairs       ...      6664
Primitive shell pairs kept                  ...      4910
          la=0 lb=0:    538 shell pairs
          la=1 lb=0:    637 shell pairs
          la=1 lb=1:    203 shell pairs
          la=2 lb=0:    224 shell pairs
          la=2 lb=1:    137 shell pairs
          la=2 lb=2:     28 shell pairs

Checking whether 4 symmetric matrices of dimension 128 fit in memory
:Max Core in MB      =   2109.00
 MB in use           =      5.61
 MB left             =   2103.39
 MB needed           =      0.25
 Data fit in memory  = YES
Calculating RI/J V-Matrix + Cholesky decomp.... done (  1.3 sec)
Calculating Nuclear repulsion               ... done (  0.0 sec) ENN=    271.386394297292 Eh

Diagonalization of the overlap matrix:
Smallest eigenvalue                        ... 2.779e-04
Time for diagonalization                   ...    0.015 sec
Threshold for overlap eigenvalues          ... 1.000e-07
Number of eigenvalues below threshold      ... 0
Time for construction of square roots      ...    0.063 sec
Total time needed                          ...    0.340 sec

-------------------
DFT GRID GENERATION
-------------------

General Integration Accuracy     IntAcc      ... 4.388
Radial Grid Type                 RadialGrid  ... OptM3 with GC (2021)
Angular Grid (max. ang.)         AngularGrid ... 4 (Lebedev-302)
Angular grid pruning method      GridPruning ... 4 (adaptive)
Weight generation scheme         WeightScheme... mBecke (2022)
Basis function cutoff            BFCut       ... 1.0000e-11
Integration weight cutoff        WCut        ... 1.0000e-14
Partially contracted basis set               ... off
Rotationally invariant grid construction     ... off
Angular grids for H and He will be reduced by one unit

Total number of grid points                  ...    61626
Total number of batches                      ...      968
Average number of points per batch           ...       63
Average number of grid points per atom       ...     4740

--------------------
COSX GRID GENERATION
--------------------

GRIDX 1
-------
General Integration Accuracy     IntAcc      ... 3.816
Radial Grid Type                 RadialGrid  ... OptM3 with GC (2021)
Angular Grid (max. ang.)         AngularGrid ... 1 (Lebedev-50)
Angular grid pruning method      GridPruning ... 4 (adaptive)
Weight generation scheme         WeightScheme... mBecke (2022)
Basis function cutoff            BFCut       ... 1.0000e-11
Integration weight cutoff        WCut        ... 1.0000e-14
Partially contracted basis set               ... on
Rotationally invariant grid construction     ... off
Angular grids for H and He will be reduced by one unit

Total number of grid points                  ...     7887
Total number of batches                      ...       67
Average number of points per batch           ...      117
Average number of grid points per atom       ...      607
UseSFitting                                  ... on

GRIDX 2
-------
General Integration Accuracy     IntAcc      ... 4.020
Radial Grid Type                 RadialGrid  ... OptM3 with GC (2021)
Angular Grid (max. ang.)         AngularGrid ... 2 (Lebedev-110)
Angular grid pruning method      GridPruning ... 4 (adaptive)
Weight generation scheme         WeightScheme... mBecke (2022)
Basis function cutoff            BFCut       ... 1.0000e-11
Integration weight cutoff        WCut        ... 1.0000e-14
Partially contracted basis set               ... on
Rotationally invariant grid construction     ... off
Angular grids for H and He will be reduced by one unit

Total number of grid points                  ...    17315
Total number of batches                      ...      142
Average number of points per batch           ...      121
Average number of grid points per atom       ...     1332
UseSFitting                                  ... on

GRIDX 3
-------
General Integration Accuracy     IntAcc      ... 4.338
Radial Grid Type                 RadialGrid  ... OptM3 with GC (2021)
Angular Grid (max. ang.)         AngularGrid ... 3 (Lebedev-194)
Angular grid pruning method      GridPruning ... 4 (adaptive)
Weight generation scheme         WeightScheme... mBecke (2022)
Basis function cutoff            BFCut       ... 1.0000e-11
Integration weight cutoff        WCut        ... 1.0000e-14
Partially contracted basis set               ... on
Rotationally invariant grid construction     ... off
Angular grids for H and He will be reduced by one unit

Total number of grid points                  ...    38101
Total number of batches                      ...      306
Average number of points per batch           ...      124
Average number of grid points per atom       ...     2931
UseSFitting                                  ... on
Grids setup in   3.9 sec
Initializing property integral containers    ... done (  0.4 sec)

SHARK setup successfully completed in   7.8 seconds

Maximum memory used throughout the entire STARTUP-calculation: 16.0 MB


           ************************************************************
           *        Program running with 64 parallel MPI-processes    *
           *              working on a common directory               *
           ************************************************************
-------------------------------------------------------------------------------
                                 ORCA GUESS
                   Start orbitals & Density for SCF / CASSCF
-------------------------------------------------------------------------------

------------
SCF SETTINGS
------------
Hamiltonian:
 Density Functional     Method          .... DFT(GTOs)
 Exchange Functional    Exchange        .... M062X
 Correlation Functional Correlation     .... M062X
 Gradients option       PostSCFGGA      .... off
 Hybrid DFT is turned on
   Fraction HF Exchange ScalHFX         ....  0.540000
   Scaling of DF-GGA-X  ScalDFX         ....  0.460000
   Scaling of DF-GGA-C  ScalDFC         ....  1.000000
   Scaling of DF-LDA-C  ScalLDAC        ....  1.000000
   Perturbative correction              ....  0.000000
 RI-approximation to the Coulomb term is turned on
   Number of AuxJ basis functions       .... 409
   RIJ-COSX (HFX calculated with COS-X)).... on


General Settings:
 Integral files         IntName         .... /users/s1155246976/scratch/phenol_pka_HB/phenol_pka_HB
 Hartree-Fock type      HFTyp           .... RHF
 Total Charge           Charge          ....    0
 Multiplicity           Mult            ....    1
 Number of Electrons    NEL             ....   50
 Basis Dimension        Dim             ....  128
 Nuclear Repulsion      ENuc            ....    271.3863942973 Eh

Convergence Acceleration:
 AO-DIIS                CNVDIIS         .... on
   Start iteration      DIISMaxIt       ....    12
   Startup error        DIISStart       ....  0.200000
   # of expansion vecs  DIISMaxEq       ....     5
   Bias factor          DIISBfac        ....   1.050
   Max. coefficient     DIISMaxC        ....  10.000
 MO-DIIS                CNVKDIIS        .... off
 Trust-Rad. Augm. Hess. CNVTRAH         .... auto
   Auto Start mean grad. ratio tolernc. ....  1.125000
   Auto Start start iteration           ....    50
   Auto Start num. interpolation iter.  ....    10
   Max. Number of Micro iterations      ....    24
   Max. Number of Macro iterations      .... Maxiter - #DIIS iter
   Number of Davidson start vectors     ....     2
   Converg. threshold    (grad. norm)   ....   1.000e-05
   Grad. Scal. Fac. for Micro threshold ....   0.100
   Minimum threshold for Micro iter.    ....   1.000e-02
   NR start threshold (gradient norm)   ....   1.000e-04
   Initial trust radius                 ....   0.400
   Minimum AH scaling param. (alpha)    ....   1.000
   Maximum AH scaling param. (alpha)    .... 1000.000
   Quad. conv. algorithm                .... NR
   White noise on init. David. guess    .... on
   Maximum white noise                  ....   0.010
   Pseudo random numbers                .... off
   Inactive MOs                         .... canonical
   Orbital update algorithm             .... Taylor
   Preconditioner                       .... Diag
   Full preconditioner red. dimension   ....   250
 SOSCF                 CNVSOSCF           .... on
   Start iteration     SOSCFMaxIt         ....   150
   Startup grad/error  SOSCFStart         ....  0.003300
   Hessian update      SOSCFHessUp        .... L-BFGS
   Autom. constraints  SOSCFAutoConstrain .... off
 Level Shifting         CNVShift        .... on
   Level shift para.    LevelShift      ....    0.2500
   Turn off err/grad.   ShiftErr        ....    0.0010
 Zerner damping         CNVZerner       .... off
 Static damping         CNVDamp         .... on
   Fraction old density DampFac         ....    0.7000
   Max. Damping (<1)    DampMax         ....    0.9800
   Min. Damping (>=0)   DampMin         ....    0.0000
   Turn off err/grad.   DampErr         ....    0.1000

SCF Procedure:
 Maximum # iterations   MaxIter         ....   125
 SCF integral mode      SCFMode         .... Direct
   Integral package                     .... SHARK and LIBINT hybrid scheme
 Reset frequency        DirectResetFreq ....    20
 Integral Threshold     Thresh          ....  2.500e-11 Eh
 Primitive CutOff       TCut            ....  2.500e-12 Eh

Convergence Tolerance:
 Convergence Check Mode ConvCheckMode   .... Total+1el-Energy
 Convergence forced     ConvForced      .... 0
 Energy Change          TolE            ....  1.000e-08 Eh
 1-El. energy change                    ....  1.000e-05 Eh
 Orbital Gradient       TolG            ....  1.000e-05
 Orbital Rotation angle TolX            ....  1.000e-05
 DIIS Error             TolErr          ....  5.000e-07

------------------------------
INITIAL GUESS: MODEL POTENTIAL
------------------------------
Loading Hartree-Fock densities                     ... done
Calculating cut-offs                               ... done
Initializing the effective Hamiltonian             ... done
Setting up the integral package (SHARK)            ... done
Starting the Coulomb interaction                   ... done (   0.7 sec)
Making the grid                                    ... done (   0.8 sec)
Mapping shells                                     ... done
Starting the XC term evaluation                    ... done (   0.0 sec)
  promolecular density results
     # of electrons  =     49.995602663
     EX              =    -40.603707850
     EC              =     -1.652631947
     EX+EC           =    -42.256339797
Transforming the Hamiltonian                       ... done (   0.8 sec)
Diagonalizing the Hamiltonian                      ... done (   0.0 sec)
Back transforming the eigenvectors                 ... done (   0.4 sec)
Now organizing SCF variables                       ... done
                      ------------------
                      INITIAL GUESS DONE (   6.0 sec)
                      ------------------
             **** ENERGY FILE WAS UPDATED (/users/s1155246976/scratch/phenol_pka_HB/phenol_pka_HB.en.tmp) ****
Finished Guess after  10.5 sec
Maximum memory used throughout the entire GUESS-calculation: 7.9 MB


           ************************************************************
           *        Program running with 64 parallel MPI-processes    *
           *              working on a common directory               *
           ************************************************************

-------------------------------------------------------------------------------------------
                                      ORCA LEAN-SCF
                              memory conserving SCF solver
-------------------------------------------------------------------------------------------

----------------------------------------D-I-I-S--------------------------------------------
Iteration    Energy (Eh)           Delta-E    RMSDP     MaxDP     DIISErr   Damp  Time(sec)
-------------------------------------------------------------------------------------------
               ***  Starting incremental Fock matrix formation  ***
    1    -306.9466433071378901     0.00e+00  3.83e-02  5.08e-02  1.94e-01  0.700   7.5
    2    -307.0145726241400439    -6.79e-02  2.75e-02  3.52e-02  1.03e-01  0.700   7.5
                               ***Turning on AO-DIIS***
    3    -307.0484285523571657    -3.39e-02  1.23e-02  1.53e-02  4.64e-02  0.700   9.1
    4    -307.0683075343252426    -1.99e-02  2.34e-02  2.65e-02  3.17e-02  0.000  12.0
                              *** Initializing SOSCF ***
---------------------------------------S-O-S-C-F--------------------------------------
Iteration    Energy (Eh)           Delta-E    RMSDP     MaxDP     MaxGrad    Time(sec)
--------------------------------------------------------------------------------------
    5    -307.1103422782778694    -4.20e-02  1.95e-03  3.84e-03  3.16e-03     7.8
               *** Restarting incremental Fock matrix formation ***
    6    -307.1104685367473053    -1.26e-04  1.28e-03  1.98e-03  5.57e-04     8.8
    7    -307.1104704945157096    -1.96e-06  4.62e-04  6.46e-04  5.40e-04     7.5
    8    -307.1104758959813239    -5.40e-06  1.21e-04  2.32e-04  3.62e-05     4.9
    9    -307.1104759402430204    -4.43e-08  3.87e-05  9.30e-05  4.58e-05    13.2
   10    -307.1104759678642608    -2.76e-08  1.37e-05  1.83e-05  6.85e-06    11.1
   11    -307.1104759688993795    -1.04e-09  5.22e-06  8.12e-06  4.51e-06     6.3
                 **** Energy Check signals convergence ****

               *****************************************************
               *                     SUCCESS                       *
               *           SCF CONVERGED AFTER  11 CYCLES          *
               *****************************************************

Recomputing exchange energy using gridx3       ... done (    0.373 sec)
Old exchange energy                            :    -22.357073447 Eh
New exchange energy                            :    -22.357127803 Eh
Exchange energy change after final integration :     -0.000054355 Eh
Total energy after final integration           :   -307.110530322 Eh
             **** ENERGY FILE WAS UPDATED (/users/s1155246976/scratch/phenol_pka_HB/phenol_pka_HB.en.tmp) ****

----------------
TOTAL SCF ENERGY
----------------

Total Energy       :       -307.11053032164313 Eh           -8356.90239 eV

Components:
Nuclear Repulsion  :        271.38639429729227 Eh            7384.79922 eV
Electronic Energy  :       -578.49687026387096 Eh          -15741.70013 eV
One Electron Energy:       -952.46507588471331 Eh          -25917.89236 eV
Two Electron Energy:        373.96820562084235 Eh           10176.19222 eV

Virial components:
Potential Energy   :       -611.22013668862814 Eh          -16632.14548 eV
Kinetic Energy     :        304.10960636698496 Eh            8275.24309 eV
Virial Ratio       :          2.00986790253195

DFT components:
N(Alpha)           :       24.999992477869 electrons
N(Beta)            :       24.999992477869 electrons
N(Total)           :       49.999984955737 electrons
E(XC)              :      -20.842393824803 Eh       

---------------
SCF CONVERGENCE
---------------

  Last Energy change         ...    1.0351e-09  Tolerance :   1.0000e-08
  Last MAX-Density change    ...    8.1249e-06  Tolerance :   1.0000e-07
  Last RMS-Density change    ...    5.2213e-06  Tolerance :   5.0000e-09
  Last DIIS Error            ...    3.1604e-03  Tolerance :   5.0000e-07
  Last Orbital Gradient      ...    4.5119e-06  Tolerance :   1.0000e-05
  Last Orbital Rotation      ...    6.0069e-06  Tolerance :   1.0000e-05


----------------
ORBITAL ENERGIES
----------------

  NO   OCC          E(Eh)            E(eV) 
   0   2.0000     -19.657245      -534.9008 
   1   2.0000     -10.616188      -288.8812 
   2   2.0000     -10.560852      -287.3754 
   3   2.0000     -10.558746      -287.3181 
   4   2.0000     -10.556771      -287.2643 
   5   2.0000     -10.550739      -287.1002 
   6   2.0000     -10.549693      -287.0718 
   7   2.0000      -1.165001       -31.7013 
   8   2.0000      -0.946528       -25.7563 
   9   2.0000      -0.837064       -22.7777 
  10   2.0000      -0.823581       -22.4108 
  11   2.0000      -0.703821       -19.1519 
  12   2.0000      -0.678884       -18.4734 
  13   2.0000      -0.619825       -16.8663 
  14   2.0000      -0.569917       -15.5082 
  15   2.0000      -0.538927       -14.6649 
  16   2.0000      -0.506530       -13.7834 
  17   2.0000      -0.492049       -13.3893 
  18   2.0000      -0.491210       -13.3665 
  19   2.0000      -0.459228       -12.4962 
  20   2.0000      -0.420960       -11.4549 
  21   2.0000      -0.408512       -11.1162 
  22   2.0000      -0.402831       -10.9616 
  23   2.0000      -0.310231        -8.4418 
  24   2.0000      -0.278686        -7.5834 
  25   0.0000       0.024317         0.6617 
  26   0.0000       0.043871         1.1938 
  27   0.0000       0.087848         2.3905 
  28   0.0000       0.107080         2.9138 
  29   0.0000       0.144499         3.9320 
  30   0.0000       0.158343         4.3087 
  31   0.0000       0.188204         5.1213 
  32   0.0000       0.199000         5.4151 
  33   0.0000       0.210804         5.7363 
  34   0.0000       0.279237         7.5984 
  35   0.0000       0.318767         8.6741 
*Only the first 10 virtual orbitals were printed.

                    ********************************
                    * MULLIKEN POPULATION ANALYSIS *
                    ********************************

-----------------------
MULLIKEN ATOMIC CHARGES
-----------------------
   0 C :    0.169243
   1 C :   -0.075342
   2 C :   -0.022656
   3 C :   -0.022242
   4 C :   -0.017882
   5 C :   -0.046963
   6 O :   -0.250518
   7 H :    0.194646
   8 H :   -0.002452
   9 H :    0.020090
  10 H :    0.015238
  11 H :    0.021823
  12 H :    0.017015
Sum of atomic charges:   -0.0000000

--------------------------------
MULLIKEN REDUCED ORBITAL CHARGES
--------------------------------
  0 C s       :     2.961136  s :     2.961136
      pz      :     0.968283  p :     2.796458
      px      :     0.792298
      py      :     1.035877
      dz2     :     0.007457  d :     0.073163
      dxz     :     0.017789
      dyz     :     0.006697
      dx2y2   :     0.021708
      dxy     :     0.019513

  1 C s       :     3.188947  s :     3.188947
      pz      :     1.046346  p :     2.855680
      px      :     0.931784
      py      :     0.877551
      dz2     :     0.003445  d :     0.030715
      dxz     :     0.005923
      dyz     :     0.003542
      dx2y2   :     0.007375
      dxy     :     0.010430

  2 C s       :     3.158384  s :     3.158384
      pz      :     0.960745  p :     2.830746
      px      :     0.946421
      py      :     0.923580
      dz2     :     0.002737  d :     0.033526
      dxz     :     0.006812
      dyz     :     0.004205
      dx2y2   :     0.009540
      dxy     :     0.010231

  3 C s       :     3.145559  s :     3.145559
      pz      :     1.014831  p :     2.844428
      px      :     0.860601
      py      :     0.968995
      dz2     :     0.003773  d :     0.032255
      dxz     :     0.003498
      dyz     :     0.005783
      dx2y2   :     0.010473
      dxy     :     0.008728

  4 C s       :     3.159620  s :     3.159620
      pz      :     0.965377  p :     2.824642
      px      :     0.949279
      py      :     0.909986
      dz2     :     0.003505  d :     0.033621
      dxz     :     0.006840
      dyz     :     0.003586
      dx2y2   :     0.009381
      dxy     :     0.010309

  5 C s       :     3.219194  s :     3.219194
      pz      :     1.007271  p :     2.797352
      px      :     0.881781
      py      :     0.908300
      dz2     :     0.002883  d :     0.030417
      dxz     :     0.005833
      dyz     :     0.003742
      dx2y2   :     0.007829
      dxy     :     0.010132

  6 O s       :     3.688968  s :     3.688968
      pz      :     1.786456  p :     4.546920
      px      :     1.324141
      py      :     1.436323
      dz2     :     0.001861  d :     0.014630
      dxz     :     0.002603
      dyz     :     0.001838
      dx2y2   :     0.006064
      dxy     :     0.002264

  7 H s       :     0.737818  s :     0.737818
      pz      :     0.019653  p :     0.067536
      px      :     0.016430
      py      :     0.031454

  8 H s       :     0.980128  s :     0.980128
      pz      :     0.005214  p :     0.022324
      px      :     0.005183
      py      :     0.011927

  9 H s       :     0.957844  s :     0.957844
      pz      :     0.005580  p :     0.022065
      px      :     0.006159
      py      :     0.010327

 10 H s       :     0.962679  s :     0.962679
      pz      :     0.004085  p :     0.022082
      px      :     0.015081
      py      :     0.002916

 11 H s       :     0.956170  s :     0.956170
      pz      :     0.004530  p :     0.022007
      px      :     0.005694
      py      :     0.011783

 12 H s       :     0.960709  s :     0.960709
      pz      :     0.005742  p :     0.022275
      px      :     0.006204
      py      :     0.010330



                     *******************************
                     * LOEWDIN POPULATION ANALYSIS *
                     *******************************

----------------------
LOEWDIN ATOMIC CHARGES
----------------------
   0 C :    0.054874
   1 C :   -0.086831
   2 C :   -0.018921
   3 C :   -0.058148
   4 C :   -0.017218
   5 C :   -0.058290
   6 O :   -0.078020
   7 H :    0.097574
   8 H :    0.028410
   9 H :    0.033389
  10 H :    0.030514
  11 H :    0.034186
  12 H :    0.038482

-------------------------------
LOEWDIN REDUCED ORBITAL CHARGES
-------------------------------
  0 C s       :     2.836617  s :     2.836617
      pz      :     0.970343  p :     2.937175
      px      :     0.879470
      py      :     1.087362
      dz2     :     0.015736  d :     0.171334
      dxz     :     0.036961
      dyz     :     0.015746
      dx2y2   :     0.055077
      dxy     :     0.047814

  1 C s       :     2.856133  s :     2.856133
      pz      :     1.045000  p :     3.144375
      px      :     1.065859
      py      :     1.033516
      dz2     :     0.007739  d :     0.086323
      dxz     :     0.014521
      dyz     :     0.008501
      dx2y2   :     0.024537
      dxy     :     0.031025

  2 C s       :     2.857878  s :     2.857878
      pz      :     0.972108  p :     3.070828
      px      :     1.056361
      py      :     1.042358
      dz2     :     0.006299  d :     0.090215
      dxz     :     0.016017
      dyz     :     0.009901
      dx2y2   :     0.028092
      dxy     :     0.029907

  3 C s       :     2.855245  s :     2.855245
      pz      :     1.016375  p :     3.114825
      px      :     1.041126
      py      :     1.057324
      dz2     :     0.008507  d :     0.088078
      dxz     :     0.008044
      dyz     :     0.014589
      dx2y2   :     0.030799
      dxy     :     0.026139

  4 C s       :     2.858079  s :     2.858079
      pz      :     0.970697  p :     3.068825
      px      :     1.060486
      py      :     1.037642
      dz2     :     0.007953  d :     0.090313
      dxz     :     0.016259
      dyz     :     0.008561
      dx2y2   :     0.027679
      dxy     :     0.029861

  5 C s       :     2.856927  s :     2.856927
      pz      :     1.021220  p :     3.116407
      px      :     1.058635
      py      :     1.036551
      dz2     :     0.006523  d :     0.084956
      dxz     :     0.013828
      dyz     :     0.009020
      dx2y2   :     0.025100
      dxy     :     0.030485

  6 O s       :     3.419712  s :     3.419712
      pz      :     1.764710  p :     4.631610
      px      :     1.366397
      py      :     1.500503
      dz2     :     0.002941  d :     0.026699
      dxz     :     0.004305
      dyz     :     0.002783
      dx2y2   :     0.011852
      dxy     :     0.004817

  7 H s       :     0.727381  s :     0.727381
      pz      :     0.053022  p :     0.175046
      px      :     0.037445
      py      :     0.084578

  8 H s       :     0.902479  s :     0.902479
      pz      :     0.017854  p :     0.069112
      px      :     0.017280
      py      :     0.033978

  9 H s       :     0.899646  s :     0.899646
      pz      :     0.017821  p :     0.066964
      px      :     0.019320
      py      :     0.029824

 10 H s       :     0.901780  s :     0.901780
      pz      :     0.014669  p :     0.067706
      px      :     0.041364
      py      :     0.011673

 11 H s       :     0.898921  s :     0.898921
      pz      :     0.015302  p :     0.066893
      px      :     0.018245
      py      :     0.033347

 12 H s       :     0.892372  s :     0.892372
      pz      :     0.019249  p :     0.069146
      px      :     0.019397
      py      :     0.030500



                      *****************************
                      * MAYER POPULATION ANALYSIS *
                      *****************************

  NA   - Mulliken gross atomic population
  ZA   - Total nuclear charge
  QA   - Mulliken gross atomic charge
  VA   - Mayer's total valence
  BVA  - Mayer's bonded valence
  FA   - Mayer's free valence

  ATOM       NA         ZA         QA         VA         BVA        FA
  0 C      5.8308     6.0000     0.1692     3.9931     3.9931    -0.0000
  1 C      6.0753     6.0000    -0.0753     3.8048     3.8048    -0.0000
  2 C      6.0227     6.0000    -0.0227     3.8925     3.8925    -0.0000
  3 C      6.0222     6.0000    -0.0222     3.8394     3.8394    -0.0000
  4 C      6.0179     6.0000    -0.0179     3.8613     3.8613    -0.0000
  5 C      6.0470     6.0000    -0.0470     3.8550     3.8550    -0.0000
  6 O      8.2505     8.0000    -0.2505     2.1726     2.1726     0.0000
  7 H      0.8054     1.0000     0.1946     1.0020     1.0020    -0.0000
  8 H      1.0025     1.0000    -0.0025     0.9883     0.9883    -0.0000
  9 H      0.9799     1.0000     0.0201     0.9774     0.9774     0.0000
 10 H      0.9848     1.0000     0.0152     0.9782     0.9782     0.0000
 11 H      0.9782     1.0000     0.0218     0.9774     0.9774    -0.0000
 12 H      0.9830     1.0000     0.0170     0.9915     0.9915    -0.0000

  Mayer bond orders larger than 0.100000
B(  0-C ,  1-C ) :   1.3398 B(  0-C ,  5-C ) :   1.3733 B(  0-C ,  6-O ) :   1.1513 
B(  1-C ,  2-C ) :   1.3893 B(  1-C ,  8-H ) :   0.9861 B(  2-C ,  3-C ) :   1.4036 
B(  2-C ,  9-H ) :   0.9832 B(  3-C ,  4-C ) :   1.3842 B(  3-C , 10-H ) :   0.9899 
B(  4-C ,  5-C ) :   1.3968 B(  4-C , 11-H ) :   0.9870 B(  5-C , 12-H ) :   0.9929 
B(  6-O ,  7-H ) :   0.9593 

-------
TIMINGS
-------

Total SCF time: 0 days 0 hours 1 min 48 sec 

Total time                  ....     108.260 sec
Sum of individual times     ....     101.823 sec  ( 94.1%)

SCF preparation             ....       4.146 sec  (  3.8%)
Fock matrix formation       ....      65.135 sec  ( 60.2%)
  Startup                   ....       1.757 sec  (  2.7% of F)
  Split-RI-J                ....       4.738 sec  (  7.3% of F)
  Chain of spheres X        ....      11.355 sec  ( 17.4% of F)
  XC integration            ....      33.059 sec  ( 50.8% of F)
    XC Preparation          ....       0.000 sec  (  0.0% of XC)
    Basis function eval.    ....       0.027 sec  (  0.1% of XC)
    Density eval.           ....       0.031 sec  (  0.1% of XC)
    XC-Functional eval.     ....       0.015 sec  (  0.0% of XC)
    XC-Potential eval.      ....       0.034 sec  (  0.1% of XC)
Diagonalization             ....       0.000 sec  (  0.0%)
Density matrix formation    ....       5.863 sec  (  5.4%)
Total Energy calculation    ....       4.058 sec  (  3.7%)
Population analysis         ....       1.591 sec  (  1.5%)
Orbital Transformation      ....       1.809 sec  (  1.7%)
Orbital Orthonormalization  ....       0.000 sec  (  0.0%)
DIIS solution               ....       7.499 sec  (  6.9%)
SOSCF solution              ....      11.722 sec  ( 10.8%)
Finished LeanSCF after 108.8 sec

Maximum memory used throughout the entire LEANSCF-calculation: 10.5 MB


           ************************************************************
           *        Program running with 64 parallel MPI-processes    *
           *              working on a common directory               *
           ************************************************************

------------------------------------------------------------------------------
                         ORCA PROPERTY INTEGRAL CALCULATIONS
------------------------------------------------------------------------------

GBWName                                   ... /users/s1155246976/scratch/phenol_pka_HB/phenol_pka_HB.gbw
Number of atoms                           ...     13
Number of basis functions                 ...    128
Max core memory                           ...   2109 MB

Dipole integrals                          ... YES
Quadrupole integrals                      ...  NO
Linear momentum integrals                 ...  NO
Angular momentum integrals                ...  NO
Higher moments length integrals           ...  NO
Higher moments velocity integrals         ...  NO
Kinetic energy integrals                  ...  NO
GIAO right hand sides                     ...  NO
GIAO dipole derivative integrals          ...  NO
SOC integrals                             ...  NO
EPR diamagnetic integrals (GIAO)          ...  NO
EPR gauge integrals                       ...  NO
Field gradient integrals                  ...  NO (   0 nuclei)
Spin-dipole/Fermi contact integrals       ...  NO (   0 nuclei)
Contact density integrals                 ...  NO (   0 nuclei)
Nucleus-orbit integrals                   ...  NO (   0 nuclei)
Geometric perturbations                   ...  NO (  13 nuclei)

Choice of electric origin   ... Center of mass
Position of electric origin ... (  0.4061,  0.0816, -0.0926) 
Choice of magnetic origin   ... GIAO
Position of magnetic origin ... (  0.0000,  0.0000,  0.0000) 

Calculating integrals                     ... Electric Dipole (Length)     done (  0.5 sec)

Property integrals calculated in   0.5 sec

Maximum memory used throughout the entire PROPINT-calculation: 8.1 MB

-------------------------   --------------------
FINAL SINGLE POINT ENERGY      -307.110530321643
-------------------------   --------------------



           ************************************************************
           *        Program running with 64 parallel MPI-processes    *
           *              working on a common directory               *
           ************************************************************
------------------------------------------------------------------------------
                         ORCA SCF GRADIENT CALCULATION
------------------------------------------------------------------------------

Nuc. rep. gradient        (SHARK) ... done (  0.0 sec)
HCore & Overlap gradient  (SHARK) ... done (  0.4 sec)
Split-RIJ-J gradient      (SHARK) ... done (  0.6 sec)
done (  1.5 sec)
XC gradient                       ... done (  0.3 sec)

------------------
CARTESIAN GRADIENT
------------------

   1   C   :   -0.017060037    0.003018563    0.001345795
   2   C   :    0.012771279   -0.001235379   -0.001258788
   3   C   :   -0.002097967   -0.006366020    0.003035063
   4   C   :    0.000853374    0.001418701   -0.000737754
   5   C   :   -0.005563761    0.006698305   -0.002015567
   6   C   :    0.009980616   -0.005588664    0.000729561
   7   O   :    0.003888924    0.006507382   -0.003261922
   8   H   :    0.001569676   -0.007385431    0.002728148
   9   H   :   -0.004991172    0.003531194   -0.000705805
  10   H   :    0.000786479    0.002595383   -0.001283168
  11   H   :    0.002588115    0.000084197   -0.000391270
  12   H   :    0.001190516   -0.002653470    0.000894108
  13   H   :   -0.003916043   -0.000624761    0.000921597

Difference to translation invariance:
           :    0.0000000001    0.0000000002   -0.0000000001

Difference to rotation invariance:
           :   -0.0000473036    0.0000629279    0.0005903977

Norm of the Cartesian gradient     ...    0.0308059190
RMS gradient                       ...    0.0049328949
MAX gradient                       ...    0.0170600367

-------
TIMINGS
-------

Total SCF gradient time     ....        2.818 sec

Densities                   ....       0.014 sec  (  0.5%)
One electron gradient       ....       0.356 sec  ( 12.6%)
RI-J Coulomb gradient       ....       0.566 sec  ( 20.1%)
COSX gradient               ....       1.549 sec  ( 55.0%)
XC gradient                 ....       0.322 sec  ( 11.4%)

Maximum memory used throughout the entire SCFGRAD-calculation: 13.5 MB
------------------------------------------------------------------------------
                         ORCA GEOMETRY RELAXATION STEP
------------------------------------------------------------------------------

Reading the OPT-File                    .... done
Getting information on internals        .... done
Copying old internal coords+grads       .... done
Making the new internal coordinates     .... (2022 redundants) done
Validating the new internal coordinates .... (2022 redundants) done
Calculating the B-matrix                .... done
Calculating the G,G- and P matrices     .... done
Transforming gradient to internals      .... done
Projecting the internal gradient        .... done
Number of atoms                         ....  13
Number of internal coordinates          ....  58
Current Energy                          ....  -307.110530322 Eh
Current gradient norm                   ....     0.030805919 Eh/bohr
Maximum allowed component of the step   ....  0.300
Current trust radius                    ....  0.300
Evaluating the initial hessian          ....  (Almloef) done
Projecting the Hessian                  .... done
Forming the augmented Hessian           .... done
Diagonalizing the augmented Hessian     .... done
Last element of RFO vector              ....  0.999160949
Lowest eigenvalues of augmented Hessian:
 -0.000707897  0.025809602  0.025868109  0.025872687  0.026000912
Length of the computed step             ....  0.040990439
The final length of the internal step   ....  0.040990439
Converting the step to Cartesian space:
 Initial RMS(Int)=    0.0053823084
Transforming coordinates:
 Iter   0:  RMS(Cart)=    0.0068002413 RMS(Int)=    1.6497194067
done
Storing new coordinates                 .... done

                                .--------------------.
          ----------------------|Geometry convergence|-------------------------
          Item                value                   Tolerance       Converged
          ---------------------------------------------------------------------
          RMS gradient        0.0023460198            0.0001000000      NO
          MAX gradient        0.0079620104            0.0003000000      NO
          RMS step            0.0053823084            0.0020000000      NO
          MAX step            0.0159186342            0.0040000000      NO
          -------------------------------------------------------------------------
          ........................................................
          Max(Bonds)      0.0084      Max(Angles)    0.59
          Max(Dihed)        0.17      Max(Improp)    0.00
          ---------------------------------------------------------------------

The optimization has not yet converged - more geometry cycles are needed


    ---------------------------------------------------------------------------
                         Redundant Internal Coordinates
                            (Angstroem and degrees)

        Definition                    Value    dE/dq     Step     New-Value
    ----------------------------------------------------------------------------
     1. B(C   1,C   0)                1.3921 -0.004820  0.0042    1.3963   
     2. B(C   2,C   1)                1.3960  0.000846 -0.0008    1.3952   
     3. B(C   3,C   2)                1.3960  0.002207 -0.0020    1.3939   
     4. B(C   4,C   3)                1.3954 -0.000730  0.0005    1.3959   
     5. B(C   5,C   4)                1.3947  0.001431 -0.0012    1.3935   
     6. B(C   5,C   0)                1.3904 -0.005049  0.0044    1.3948   
     7. B(O   6,C   0)                1.3637  0.005505 -0.0047    1.3590   
     8. B(H   7,O   6)                0.9709  0.007962 -0.0084    0.9625   
     9. B(H   8,C   1)                1.0851 -0.005501  0.0079    1.0930   
    10. B(H   9,C   2)                1.0869 -0.002892  0.0042    1.0911   
    11. B(H  10,C   3)                1.0870 -0.002605  0.0038    1.0908   
    12. B(H  11,C   4)                1.0866 -0.003027  0.0044    1.0910   
    13. B(H  12,C   5)                1.0861 -0.002847  0.0041    1.0902   
    14. A(C   1,C   0,O   6)          121.38 -0.004086    0.52    121.90   
    15. A(C   1,C   0,C   5)          120.86  0.004233   -0.52    120.33   
    16. A(C   5,C   0,O   6)          117.76 -0.000147    0.00    117.76   
    17. A(C   2,C   1,H   8)          119.32 -0.001978    0.33    119.65   
    18. A(C   0,C   1,H   8)          121.30  0.003708   -0.59    120.71   
    19. A(C   0,C   1,C   2)          119.39 -0.001731    0.25    119.64   
    20. A(C   1,C   2,H   9)          120.02  0.001677   -0.24    119.78   
    21. A(C   1,C   2,C   3)          120.10 -0.001688    0.21    120.31   
    22. A(C   3,C   2,H   9)          119.88  0.000011    0.03    119.91   
    23. A(C   2,C   3,H  10)          120.02 -0.000793    0.13    120.15   
    24. A(C   2,C   3,C   4)          120.04  0.002167   -0.35    119.69   
    25. A(C   4,C   3,H  10)          119.94 -0.001374    0.22    120.17   
    26. A(C   3,C   4,C   5)          119.95 -0.003222    0.43    120.38   
    27. A(C   5,C   4,H  11)          119.93  0.001907   -0.26    119.66   
    28. A(C   3,C   4,H  11)          120.13  0.001316   -0.17    119.96   
    29. A(C   0,C   5,C   4)          119.66  0.000240   -0.01    119.65   
    30. A(C   4,C   5,H  12)          120.31 -0.003091    0.49    120.80   
    31. A(C   0,C   5,H  12)          120.03  0.002851   -0.47    119.56   
    32. A(C   0,O   6,H   7)          108.46 -0.002061    0.32    108.79   
    33. D(H   8,C   1,C   0,C   5)   -180.00 -0.000017    0.04   -179.96   
    34. D(H   8,C   1,C   0,O   6)      0.00  0.000029   -0.06     -0.06   
    35. D(C   2,C   1,C   0,O   6)    180.00  0.000065   -0.14    179.86   
    36. D(C   2,C   1,C   0,C   5)     -0.00  0.000020   -0.04     -0.04   
    37. D(H   9,C   2,C   1,C   0)    180.00 -0.000058    0.12    180.12   
    38. D(C   3,C   2,C   1,C   0)     -0.00 -0.000003    0.01      0.01   
    39. D(C   3,C   2,C   1,H   8)    180.00  0.000033   -0.07    179.93   
    40. D(H   9,C   2,C   1,H   8)     -0.00 -0.000022    0.05      0.05   
    41. D(H  10,C   3,C   2,H   9)      0.00  0.000051   -0.11     -0.11   
    42. D(H  10,C   3,C   2,C   1)   -180.00 -0.000003    0.01   -179.99   
    43. D(C   4,C   3,C   2,H   9)   -180.00  0.000048   -0.10   -180.10   
    44. D(C   4,C   3,C   2,C   1)      0.00 -0.000006    0.01      0.01   
    45. D(H  11,C   4,C   3,C   2)    180.00  0.000009   -0.02    179.98   
    46. D(C   5,C   4,C   3,H  10)    180.00 -0.000004    0.01    180.01   
    47. D(C   5,C   4,C   3,C   2)     -0.00 -0.000001    0.00      0.00   
    48. D(H  11,C   4,C   3,H  10)      0.00  0.000006   -0.01     -0.01   
    49. D(H  12,C   5,C   4,H  11)     -0.00  0.000017   -0.04     -0.04   
    50. D(C   0,C   5,C   4,H  11)    180.00  0.000008   -0.02    179.98   
    51. D(C   0,C   5,C   4,C   3)      0.00  0.000017   -0.04     -0.04   
    52. D(H  12,C   5,C   0,O   6)      0.00 -0.000080    0.17      0.17   
    53. D(H  12,C   5,C   0,C   1)   -180.00 -0.000036    0.08   -179.92   
    54. D(H  12,C   5,C   4,C   3)   -180.00  0.000027   -0.06   -180.06   
    55. D(C   4,C   5,C   0,O   6)   -180.00 -0.000071    0.15   -179.85   
    56. D(C   4,C   5,C   0,C   1)      0.00 -0.000027    0.06      0.06   
    57. D(H   7,O   6,C   0,C   5)    180.00  0.000077   -0.16    179.84   
    58. D(H   7,O   6,C   0,C   1)     -0.00  0.000033   -0.06     -0.06   
    ----------------------------------------------------------------------------

Geometry step timings:
Preparation and reading OPT file:      0.002 s (11.796 %)
Internal coordinates            :      0.000 s ( 0.269 %)
B/P matrices and projection     :      0.000 s ( 2.448 %)
Hessian update/contruction      :      0.009 s (56.796 %)
Making the step                 :      0.000 s ( 2.168 %)
Converting the step to Cartesian:      0.000 s ( 0.403 %)
Storing new data                :      0.002 s (13.402 %)
Checking convergence            :      0.000 s ( 0.269 %)
Final printing                  :      0.002 s (12.389 %)
Total time                      :      0.016 s

Time for energy+gradient        :    144.627 s
Time for complete geometry iter :    149.450 s

         *************************************************************
         *                GEOMETRY OPTIMIZATION CYCLE   2            *
         *************************************************************
---------------------------------
CARTESIAN COORDINATES (ANGSTROEM)
---------------------------------
  C      1.124210   -0.017336   -0.158056
  C      0.415348   -1.091582    0.383444
  C     -0.966944   -0.994418    0.546165
  C     -1.639508    0.167443    0.171001
  C     -0.923467    1.236617   -0.369951
  C      0.457209    1.147851   -0.536199
  O      2.471027   -0.061369   -0.334242
  H      2.795579   -0.915199   -0.030777
  H      0.931891   -2.007261    0.682364
  H     -1.522782   -1.831738    0.970967
  H     -2.720229    0.240619    0.299493
  H     -1.445384    2.148014   -0.665402
  H      1.023052    1.978359   -0.958805

----------------------------
CARTESIAN COORDINATES (A.U.)
----------------------------
  NO LB      ZA    FRAG     MASS         X           Y           Z
   0 C     6.0000    0    12.011    2.124449   -0.032760   -0.298683
   1 C     6.0000    0    12.011    0.784894   -2.062791    0.724604
   2 C     6.0000    0    12.011   -1.827259   -1.879178    1.032103
   3 C     6.0000    0    12.011   -3.098222    0.316422    0.323144
   4 C     6.0000    0    12.011   -1.745099    2.336868   -0.699105
   5 C     6.0000    0    12.011    0.863999    2.169124   -1.013269
   6 O     8.0000    0    15.999    4.669563   -0.115971   -0.631626
   7 H     1.0000    0     1.008    5.282878   -1.729476   -0.058161
   8 H     1.0000    0     1.008    1.761019   -3.793173    1.289480
   9 H     1.0000    0     1.008   -2.877641   -3.461483    1.834861
  10 H     1.0000    0     1.008   -5.140489    0.454704    0.565960
  11 H     1.0000    0     1.008   -2.731379    4.059158   -1.257428
  12 H     1.0000    0     1.008    1.933287    3.738556   -1.811879

--------------------------------
INTERNAL COORDINATES (ANGSTROEM)
--------------------------------
 C      0   0   0     0.000000000000     0.00000000     0.00000000
 C      1   0   0     1.396321502944     0.00000000     0.00000000
 C      2   1   0     1.395223763424   119.64402292     0.00000000
 C      3   2   1     1.393919782070   120.31037007     0.00000000
 C      4   3   2     1.395878473222   119.68502055     0.00000000
 C      5   4   3     1.393478490767   120.37770056     0.00000000
 O      1   2   3     1.359005370437   121.90142289   179.86356222
 H      7   1   2     0.962523008113   108.78592793   359.93633366
 H      2   1   3     1.092994607464   120.70852368   180.07766316
 H      3   2   1     1.091108025413   119.77978846   180.12460702
 H      4   3   2     1.090790074687   120.14946023   180.00748242
 H      5   4   3     1.091023658793   119.96021197   179.98155616
 H      6   5   4     1.090191650680   120.79595262   179.94413016

---------------------------
INTERNAL COORDINATES (A.U.)
---------------------------
 C      0   0   0     0.000000000000     0.00000000     0.00000000
 C      1   0   0     2.638665235470     0.00000000     0.00000000
 C      2   1   0     2.636590808411   119.64402292     0.00000000
 C      3   2   1     2.634126640768   120.31037007     0.00000000
 C      4   3   2     2.637828030626   119.68502055     0.00000000
 C      5   4   3     2.633292721059   120.37770056     0.00000000
 O      1   2   3     2.568147964654   121.90142289   179.86356222
 H      7   1   2     1.818904882932   108.78592793   359.93633366
 H      2   1   3     2.065460473960   120.70852368   180.07766316
 H      3   2   1     2.061895350554   119.77978846   180.12460702
 H      4   3   2     2.061294510758   120.14946023   180.00748242
 H      5   4   3     2.061735920748   119.96021197   179.98155616
 H      6   5   4     2.060163653273   120.79595262   179.94413016



           ************************************************************
           *        Program running with 64 parallel MPI-processes    *
           *              working on a common directory               *
           ************************************************************
------------------------------------------------------------------------------
                   ___                                                        
                  /   \      - P O W E R E D   B Y -                         
                 /     \                                                     
                 |  |  |   _    _      __       _____    __    __             
                 |  |  |  | |  | |    /  \     |  _  \  |  |  /  |          
                  \  \/   | |  | |   /    \    | | | |  |  | /  /          
                 / \  \   | |__| |  /  /\  \   | |_| |  |  |/  /          
                |  |  |   |  __  | /  /__\  \  |    /   |      \           
                |  |  |   | |  | | |   __   |  |    \   |  |\   \          
                \     /   | |  | | |  |  |  |  | |\  \  |  | \   \       
                 \___/    |_|  |_| |__|  |__|  |_| \__\ |__|  \__/        
                                                                              
                      - O R C A' S   B I G   F R I E N D -                    
                                      &                                       
                       - I N T E G R A L  F E E D E R -                       
                                                                              
 v1 FN, 2020, v2 2021, v3 2022-2024                                           
------------------------------------------------------------------------------


----------------------
SHARK INTEGRAL PACKAGE
----------------------

Number of atoms                             ...     13
Number of basis functions                   ...    128
Number of shells                            ...     60
Maximum angular momentum                    ...      2
Integral batch strategy                     ... SHARK/LIBINT Hybrid
RI-J (if used) integral strategy            ... SPLIT-RIJ (Revised 2003 algorithm where possible)
Printlevel                                  ...      1
Contraction scheme used                     ... SEGMENTED contraction
Prescreening option                         ... SCHWARTZ
   Thresh                                   ... 2.500e-11
   Tcut                                     ... 2.500e-12
   Tpresel                                  ... 2.500e-12 
Coulomb Range Separation                    ... NOT USED
Exchange Range Separation                   ... NOT USED
Multipole approximations                    ... NOT USED
Finite Nucleus Model                        ... NOT USED
CABS basis                                  ... NOT available
Auxiliary Coulomb fitting basis             ... AVAILABLE
   # of basis functions in Aux-J            ...    409
   # of shells in Aux-J                     ...    135
   Maximum angular momentum in Aux-J        ...      4
Auxiliary J/K fitting basis                 ... NOT available
Auxiliary Correlation fitting basis         ... NOT available
Auxiliary 'external' fitting basis          ... NOT available

Checking pre-screening integrals            ... done (  0.1 sec) Dimension = 60
   => SHARK Basis and OBASIS are compatible. Storing Pre-screening
Shell pair information
Shell pair cut-off parameter TPreSel        ...   2.5e-12
Total number of shell pairs                 ...      1830
Shell pairs after pre-screening             ...      1767
Total number of primitive shell pairs       ...      6664
Primitive shell pairs kept                  ...      4909
          la=0 lb=0:    538 shell pairs
          la=1 lb=0:    637 shell pairs
          la=1 lb=1:    203 shell pairs
          la=2 lb=0:    224 shell pairs
          la=2 lb=1:    137 shell pairs
          la=2 lb=2:     28 shell pairs

Checking whether 4 symmetric matrices of dimension 128 fit in memory
[...]
      7      -0.127449   0.169045   0.141934  -0.017200   0.024149   0.052816
      8       0.033297  -0.066056  -0.013723   0.008189  -0.012565  -0.027141
      9      -0.131138  -0.040979   0.131625   0.003971  -0.038157  -0.017606
     10       0.035799  -0.319615  -0.092838  -0.000229   0.003603  -0.003027
     11       0.004583   0.136631   0.018636  -0.000487   0.004109   0.003821
     12       0.170295   0.179320  -0.258690  -0.001564   0.030554  -0.019979
     13       0.089462   0.194046  -0.007049   0.003046  -0.052799   0.037205
     14      -0.061446  -0.105561   0.040665  -0.001030   0.017049  -0.012228
     15       0.027272  -0.010076   0.329925   0.000218   0.009857  -0.007668
     16      -0.103576  -0.168462  -0.161505  -0.000907   0.018256  -0.014870
     17       0.038285   0.070265   0.017683   0.000324  -0.008933   0.007240
     18       0.072880  -0.028306   0.039589   0.000439   0.000218   0.000232
     19      -0.015347  -0.040098  -0.017738   0.000365   0.000204   0.000124
     20      -0.004229   0.020673   0.001629  -0.000209  -0.000115  -0.000080
     21       0.167336   0.325340   0.165296   0.007635   0.001182   0.001595
     22       0.015443   0.083603   0.032263  -0.003754  -0.001921  -0.001051
     23      -0.030900  -0.081719  -0.037505   0.000481   0.000637   0.000207
     24      -0.410328   0.292233  -0.200336   0.459094   0.077140   0.093656
     25      -0.109104  -0.011558  -0.219372  -0.802918  -0.132449  -0.158342
     26       0.105181  -0.038278   0.119397   0.260020   0.042686   0.050805
     27      -0.400721   0.191454   0.254494   0.124715  -0.190458  -0.397000
     28       0.175479   0.070501  -0.199982   0.197358  -0.289108  -0.605891
     29      -0.012112  -0.056852   0.043800  -0.099635   0.147170   0.308028
     30      -0.164283  -0.033265   0.160486  -0.052471   0.458217   0.205825
     31      -0.062911   0.308733   0.065857   0.003932  -0.032942  -0.009997
     32       0.048738  -0.121888  -0.049354   0.006119  -0.053866  -0.026112
     33      -0.437177  -0.299999   0.135567   0.021025  -0.349092   0.235323
     34      -0.184622  -0.005256   0.196084  -0.036959   0.613342  -0.415819
     35       0.140312   0.046339  -0.100410   0.011953  -0.198700   0.134913
     36      -0.334538  -0.159305  -0.296518   0.004951  -0.141169   0.111246
     37       0.096549  -0.107792   0.237647   0.009405  -0.207946   0.164776
     38       0.010350   0.066843  -0.052714  -0.004594   0.105887  -0.083796
                 36         37         38    
      0       0.001859  -0.002135   0.000028
      1      -0.002874   0.002004   0.002031
      2       0.000906  -0.000508  -0.000840
      3      -0.004083  -0.003369   0.001081
      4       0.003768   0.003870  -0.000796
      5      -0.000940  -0.001086   0.000163
      6       0.012431   0.010892  -0.000155
      7       0.022923   0.020830   0.000086
      8      -0.011264  -0.010184  -0.000016
      9       0.053375   0.055123   0.000175
     10      -0.005475  -0.003046  -0.000023
     11      -0.005583  -0.006842  -0.000014
     12      -0.007133   0.020082  -0.000148
     13       0.002472  -0.035279   0.000133
     14       0.000042   0.011431  -0.000026
     15       0.033721  -0.029380   0.000536
     16       0.048951  -0.039136  -0.000664
     17      -0.025013   0.020351   0.000195
     18      -0.000212   0.000249  -0.023806
     19       0.000320  -0.000203   0.054340
     20      -0.000098   0.000052  -0.019191
     21      -0.001312   0.001381   0.363114
     22      -0.000574  -0.000075  -0.875643
     23       0.000426  -0.000167   0.312199
     24       0.026970   0.025595  -0.003846
     25      -0.043197  -0.042320   0.004120
     26       0.013656   0.013520  -0.001156
     27      -0.151677  -0.133793   0.000656
     28      -0.236423  -0.209897   0.000399
     29       0.119686   0.106116  -0.000265
     30      -0.596681  -0.603364  -0.000470
     31       0.043417   0.041198   0.000100
     32       0.069835   0.071708   0.000027
     33       0.032724  -0.212837   0.000091
     34      -0.047469   0.375432  -0.000565
     35       0.014519  -0.121755   0.000224
     36      -0.381105   0.308834   0.000217
     37      -0.552144   0.443699  -0.000025
     38       0.282109  -0.227086  -0.000026


-----------
IR SPECTRUM
-----------

 Mode   freq       eps      Int      T**2         TX        TY        TZ
       cm**-1   L/(mol*cm) km/mol    a.u.
----------------------------------------------------------------------------
  6:    234.69   0.000234    1.18  0.000312  (-0.001851 -0.006591 -0.016274)
  7:    367.22   0.022532  113.87  0.019147  (-0.017312 -0.052756 -0.126746)
  8:    414.22   0.002031   10.27  0.001530  (-0.038905  0.003455  0.002190)
  9:    427.24   0.000006    0.03  0.000004  ( 0.001007  0.001250  0.001365)
 10:    527.60   0.001432    7.24  0.000847  ( 0.003998  0.010676  0.026781)
 11:    536.97   0.000199    1.01  0.000116  (-0.009876 -0.002228  0.003620)
 12:    629.36   0.000069    0.35  0.000034  (-0.003619 -0.004125  0.002036)
 13:    712.38   0.004445   22.46  0.001947  (-0.005481 -0.016203 -0.040674)
 14:    781.84   0.010823   54.70  0.004320  ( 0.008356  0.024272  0.060506)
 15:    846.54   0.003299   16.67  0.001216  (-0.034530  0.002759  0.004035)
 16:    847.22   0.000021    0.10  0.000008  ( 0.002416 -0.000452 -0.001257)
 17:    920.19   0.001495    7.56  0.000507  ( 0.003349  0.008308  0.020658)
 18:   1000.39   0.000004    0.02  0.000001  ( 0.000418  0.000994  0.000211)
 19:   1012.82   0.000034    0.17  0.000010  ( 0.002824  0.001320 -0.000882)
 20:   1028.27   0.000031    0.16  0.000010  (-0.000269 -0.001091 -0.002875)
 21:   1056.61   0.000976    4.93  0.000288  (-0.016806  0.001737  0.001694)
 22:   1095.76   0.002175   10.99  0.000619  ( 0.011576 -0.020916  0.006928)
 23:   1156.52   0.001330    6.72  0.000359  (-0.017326 -0.005983  0.004787)
 24:   1174.23   0.000647    3.27  0.000172  (-0.012151  0.004930 -0.000312)
 25:   1198.91   0.025978  131.28  0.006762  (-0.081348 -0.000758  0.011992)
 26:   1336.17   0.015513   78.40  0.003623  ( 0.059640 -0.004410 -0.006833)
 27:   1348.75   0.004508   22.78  0.001043  ( 0.031384  0.004283 -0.006301)
 28:   1379.25   0.006298   31.83  0.001425  ( 0.034163 -0.015970  0.001696)
 29:   1517.64   0.004432   22.40  0.000911  (-0.028466  0.010054  0.000116)
 30:   1557.99   0.020218  102.17  0.004050  (-0.063061  0.002756  0.008081)
 31:   1693.99   0.005177   26.16  0.000954  ( 0.025894  0.013948 -0.009411)
 32:   1710.84   0.015579   78.73  0.002842  (-0.052334  0.009417  0.003761)
 33:   3197.00   0.001725    8.72  0.000168  (-0.011791  0.005401 -0.000430)
 34:   3220.23   0.000056    0.28  0.000005  ( 0.001621 -0.001623  0.000351)
 35:   3227.31   0.001439    7.27  0.000139  (-0.002344  0.010833 -0.004035)
 36:   3240.79   0.000946    4.78  0.000091  ( 0.008345  0.003758 -0.002711)
 37:   3246.05   0.000390    1.97  0.000037  ( 0.005690 -0.002252  0.000025)
 38:   3892.36   0.018274   92.35  0.001465  ( 0.027104 -0.026101  0.007015)

* The epsilon (eps) is given for a Dirac delta lineshape.
** The dipole moment derivative (T) already includes vibrational overlap.

The first frequency considered to be a vibration is 6
The total number of vibrations considered is 33


--------------------------
THERMOCHEMISTRY AT 298.15K
--------------------------

Temperature         ...   298.15 K
Pressure            ...     1.00 atm
Total Mass          ...    94.11 AMU
Quasi RRHO          ...     True
Cut-Off Frequency   ...     1.00 cm^-1

Throughout the following assumptions are being made:
  (1) The electronic state is orbitally nondegenerate
  (2) There are no thermally accessible electronically excited states
  (3) Hindered rotations indicated by low frequency modes are not
      treated as such but are treated as vibrations and this may
      cause some error
  (4) All equations used are the standard statistical mechanics
      equations for an ideal gas
  (5) All vibrations are strictly harmonic

freq.     234.69  E(vib)   ...       0.32 
freq.     367.22  E(vib)   ...       0.22 
freq.     414.22  E(vib)   ...       0.19 
freq.     427.24  E(vib)   ...       0.18 
freq.     527.60  E(vib)   ...       0.13 
freq.     536.97  E(vib)   ...       0.12 
freq.     629.36  E(vib)   ...       0.09 
freq.     712.38  E(vib)   ...       0.07 
freq.     781.84  E(vib)   ...       0.05 
freq.     846.54  E(vib)   ...       0.04 
freq.     847.22  E(vib)   ...       0.04 
freq.     920.19  E(vib)   ...       0.03 
freq.    1000.39  E(vib)   ...       0.02 
freq.    1012.82  E(vib)   ...       0.02 
freq.    1028.27  E(vib)   ...       0.02 
freq.    1056.61  E(vib)   ...       0.02 
freq.    1095.76  E(vib)   ...       0.02 
freq.    1156.52  E(vib)   ...       0.01 
freq.    1174.23  E(vib)   ...       0.01 
freq.    1198.91  E(vib)   ...       0.01 
freq.    1336.17  E(vib)   ...       0.01 
freq.    1348.75  E(vib)   ...       0.01 
freq.    1379.25  E(vib)   ...       0.01 
freq.    1517.64  E(vib)   ...       0.00 
freq.    1557.99  E(vib)   ...       0.00 
freq.    1693.99  E(vib)   ...       0.00 
freq.    1710.84  E(vib)   ...       0.00 
freq.    3197.00  E(vib)   ...       0.00 
freq.    3220.23  E(vib)   ...       0.00 
freq.    3227.31  E(vib)   ...       0.00 
freq.    3240.79  E(vib)   ...       0.00 
freq.    3246.05  E(vib)   ...       0.00 
freq.    3892.36  E(vib)   ...       0.00 

------------
INNER ENERGY
------------

The inner energy is: U= E(el) + E(ZPE) + E(vib) + E(rot) + E(trans)
    E(el)   - is the total energy from the electronic structure calculation
              = E(kin-el) + E(nuc-el) + E(el-el) + E(nuc-nuc)
    E(ZPE)  - the the zero temperature vibrational energy from the frequency calculation
    E(vib)  - the the finite temperature correction to E(ZPE) due to population
              of excited vibrational states
    E(rot)  - is the rotational thermal energy
    E(trans)- is the translational thermal energy

Summary of contributions to the inner energy U:
Electronic energy                ...   -307.11113398 Eh
Zero point energy                ...      0.10601985 Eh      66.53 kcal/mol
Thermal vibrational correction   ...      0.00260601 Eh       1.64 kcal/mol
Thermal rotational correction    ...      0.00141627 Eh       0.89 kcal/mol
Thermal translational correction ...      0.00141627 Eh       0.89 kcal/mol
-----------------------------------------------------------------------
Total thermal energy                   -306.99967558 Eh


Summary of corrections to the electronic energy:
(perhaps to be used in another calculation)
Total thermal correction                  0.00543855 Eh       3.41 kcal/mol
Non-thermal (ZPE) correction              0.10601985 Eh      66.53 kcal/mol
-----------------------------------------------------------------------
Total correction                          0.11145840 Eh      69.94 kcal/mol


--------
ENTHALPY
--------

The enthalpy is H = U + kB*T
                kB is Boltzmann's constant
Total thermal energy              ...   -306.99967558 Eh 
Thermal Enthalpy correction       ...      0.00094421 Eh       0.59 kcal/mol
-----------------------------------------------------------------------
Total Enthalpy                    ...   -306.99873137 Eh


Note: Only C1 symmetry has been detected, increase convergence thresholds 
      if your molecule has a higher symmetry. Symmetry factor of 1.0 is   
      used for the rotational entropy correction. 
 

Note: Rotational entropy computed according to Herzberg 
Infrared and Raman Spectra, Chapter V,1, Van Nostrand Reinhold, 1945 
Point Group:  C1, Symmetry Number:   1  
Rotational constants in cm-1:     0.188771     0.087595     0.059832 

Vibrational entropy computed according to the QRRHO of S. Grimme
Chem.Eur.J. 2012 18 9955 using a reference frequency of 100.0 cm-1


-------
ENTROPY
-------

The entropy contributions are T*S = T*(S(el)+S(vib)+S(rot)+S(trans))
     S(el)   - electronic entropy
     S(vib)  - vibrational entropy
     S(rot)  - rotational entropy
     S(trans)- translational entropy
The entropies will be listed as multiplied by the temperature to get
units of energy

Electronic entropy                ...      0.00000000 Eh      0.00 kcal/mol
Vibrational entropy               ...      0.00376224 Eh      2.36 kcal/mol
Rotational entropy                ...      0.01277695 Eh      8.02 kcal/mol
Translational entropy             ...      0.01878531 Eh     11.79 kcal/mol
-----------------------------------------------------------------------
Final entropy term                ...      0.03532450 Eh     22.17 kcal/mol

In case the symmetry of your molecule has not been determined correctly
or in case you have a reason to use a different symmetry number we print 
out the resulting rotational entropy values for sn=1,12:

 non-linear molecules -----------------------------------
|  sn= 1 | S(rot)=       0.01277695 Eh      8.02 kcal/mol|
|  sn= 2 | S(rot)=       0.01212250 Eh      7.61 kcal/mol|
|  sn= 3 | S(rot)=       0.01173967 Eh      7.37 kcal/mol|
|  sn= 4 | S(rot)=       0.01146804 Eh      7.20 kcal/mol|
|  sn= 5 | S(rot)=       0.01125735 Eh      7.06 kcal/mol|
|  sn= 6 | S(rot)=       0.01108521 Eh      6.96 kcal/mol|
|  sn= 7 | S(rot)=       0.01093966 Eh      6.86 kcal/mol|
|  sn= 8 | S(rot)=       0.01081358 Eh      6.79 kcal/mol|
|  sn= 9 | S(rot)=       0.01070238 Eh      6.72 kcal/mol|
|  sn=10 | S(rot)=       0.01060290 Eh      6.65 kcal/mol|
|  sn=11 | S(rot)=       0.01051291 Eh      6.60 kcal/mol|
|  sn=12 | S(rot)=       0.01043075 Eh      6.55 kcal/mol|
 linear molecules ---------------------------------------
|  Dinfh | S(rot)=       0.00798483 Eh      5.01 kcal/mol|
|  Cinfv | S(rot)=       0.00863928 Eh      5.42 kcal/mol|
 --------------------------------------------------------


-------------------
GIBBS FREE ENERGY
-------------------

The Gibbs free energy is G = H - T*S

Total enthalpy                    ...   -306.99873137 Eh 
Total entropy correction          ...     -0.03532450 Eh    -22.17 kcal/mol
-----------------------------------------------------------------------
Final Gibbs free energy         ...   -307.03405588 Eh

For completeness - the Gibbs free energy minus the electronic energy
G-E(el)                           ...      0.07707810 Eh     48.37 kcal/mol


Maximum memory used throughout the entire PROP-calculation: 32.3 MB

--------------------------------
SUGGESTED CITATIONS FOR THIS RUN
--------------------------------

Below you find a list of papers that are relevant to this ORCA run
We neither can nor want to force you to cite these papers, but we appreciate if you do
You receive ORCA, which is the product of decades of hard work by many enthusiastic individuals, for free
The only thing we kindly ask in return is that you cite our papers,
We deeply appreciate it, if you show your appreciation for ORCA by not just citing the generic ORCA reference.

Please note that relegating all ORCA citations to the supporting information does *not* help us.
SI sections are not indexed - citations you put there will not count into any citation statistics
But we need these citations in order to attract the funding resources that allow us to do what we are doing

Therefore, if you are a happy ORCA user, please consider citing a few of the papers listed below in the main body of your paper

In addition to the list printed below, the program has created the file /users/s1155246976/scratch/phenol_pka_HB/phenol_pka_HB.bibtex that contains the list in bibtex format
You can import this file easily into all common literature databanks and citation aid programs


List of essential papers. We consider these as the minimum necessary citations

  1. Neese, F.
     Software update: the ORCA program system, version 6.0
     WIRES Comput. Molec. Sci. 2025 15(1), e70019
     doi.org/10.1002/wcms.7019

List of papers to cite with high priority. The work reported in these papers was absolutely
necessary for this run to complete.
Our perspective: the developers of density functionals and basis sets usually get cited in chemistry papers
Good! But without the algorithms to do something with them, the functionals or basis sets would not do anything.
Hence, in our opinion, the algorithm design and method developments papers are equally worthy of getting cited

  1. Neese, F.
     An improvement of the resolution of the identity approximation for the formation of the Coulomb matrix
     J. Comp. Chem. 2003 24(14), 1740-1747
     doi.org/10.1002/jcc.10318
  2. Neese, F.; Wennmohs, F.; Hansen, A.; Becker, U.
     Efficient, approximate and parallel Hartree-Fock and hybrid DFT calculations. A 'chain-of-spheres' algorithm for the Hartree-Fock exchange
     Chem. Phys. 2009 356(1-3), 98-109
     doi.org/10.1016/j.chemphys.2008.10.036
  3. Bykov, D.; Petrenko, T.; Izsak, R.; Kossmann, S.; Becker, U.; Valeev, E.; Neese, F.
     Efficient implementation of the analytic second derivatives of Hartree-Fock and hybrid DFT energies: a detailed analysis of different approximations
     Molec. Phys. 2015 113 , 1961-1977
     doi.org/10.1080/00268976.2015.1025114
  4. Helmich-Paris, B.; de Souza, B.; Neese, F.; Izsák, R.
     An improved chain of spheres for exchange algorithm
     J. Chem. Phys. 2021 155(10), 104109
     doi.org/10.1063/5.0058766
  5. Neese, F.
     The SHARK Integral Generation and Digestion System
     J. Comp. Chem. 2022 44(3), 381
     doi.org/10.1002/jcc.26942

List of suggested additional citations. These are papers that are important in the 'surrounding' of 
of this run, or papers that preceded the highly important papers. If you like your results we are grateful for a citation.

  1. Izsak, R.; Neese, F.
     An overlap fitted chain of spheres exchange method
     J. Chem. Phys. 2011 135 , 144105
     doi.org/10.1063/1.3646921
  2. Izsak, R.; Hansen, A.; Neese, F.
     The resolution of identity and chain of spheres approximations for the LPNO-CCSD singles Fock term
     Molec. Phys. 2012 110 , 2413-2417
     doi.org/10.1080/00268976.2012.687466
  3. Neese, F.
     The ORCA program system
     WIRES Comput. Molec. Sci. 2012 2(1), 73-78
     doi.org/10.1002/wcms.81
  4. Izsak, R.; Neese, F.; Klopper, W.
     Robust fitting techniques in the chain of spheres approximation to the Fock exchange: The role of the complementary space
     J. Chem. Phys. 2013 139 , 
     doi.org/10.1063/1.4819264
  5. Neese, F.
     Software update: the ORCA program system, version 4.0
     WIRES Comput. Molec. Sci. 2018 8(1), 1-6
     doi.org/10.1002/wcms.1327
  6. Neese, F.; Wennmohs, F.; Becker, U.; Riplinger, C.
     The ORCA quantum chemistry program package
     J. Chem. Phys. 2020 152(22), 224108
     doi.org/10.1063/5.0004608
  7. Neese, F.
     Software update: The ORCA program system—Version 5.0
     WIRES Comput. Molec. Sci. 2022 12(1), e1606
     doi.org/10.1002/wcms.1606

List of optional additional citations

  1. Neese, F.
     Approximate second-order SCF convergence for spin unrestricted wavefunctions
     Chem. Phys. Lett. 2000 325(1-3), 93-98
     doi.org/10.1016/s0009-2614(00)00662-x

Timings for individual modules:

Sum of individual times          ...      687.585 sec (=  11.460 min)
Startup calculation              ...       70.074 sec (=   1.168 min)  10.2 %
SCF iterations                   ...      382.157 sec (=   6.369 min)  55.6 %
Property integrals               ...       47.710 sec (=   0.795 min)   6.9 %
SCF Response                     ...      140.453 sec (=   2.341 min)  20.4 %
Property calculations            ...       14.917 sec (=   0.249 min)   2.2 %
SCF Gradient evaluation          ...       32.144 sec (=   0.536 min)   4.7 %
Geometry relaxation              ...        0.130 sec (=   0.002 min)   0.0 %
                             ****ORCA TERMINATED NORMALLY****
TOTAL RUN TIME: 0 days 0 hours 11 minutes 52 seconds 69 msec
