
                                 *****************
                                 * O   R   C   A *
                                 *****************

                                            #,                                       
                                            ###                                      
                                            ####                                     
                                            #####                                    
                                            ######                                   
                                           ########,                                 
                                     ,,################,,,,,                         
                               ,,#################################,,                 
                          ,,##########################################,,             
                       ,#########################################, ''#####,          
                    ,#############################################,,   '####,        
                  ,##################################################,,,,####,       
                ,###########''''           ''''###############################       
              ,#####''   ,,,,##########,,,,          '''####'''          '####       
            ,##' ,,,,###########################,,,                        '##       
           ' ,,###''''                  '''############,,,                           
         ,,##''                                '''############,,,,        ,,,,,,###''
      ,#''                                            '''#######################'''  
     '                                                          ''''####''''         
             ,#######,   #######,   ,#######,      ##                                
            ,#'     '#,  ##    ##  ,#'     '#,    #''#        ,####,   ,####,        
            ##       ##  ##   ,#'  ##            #'  '#       #'       #'  '#        
            ##       ##  #######   ##           ,######,      #####,   #    #        
            '#,     ,#'  ##    ##  '#,     ,#' ,#      #,     #,   #   #,  ,#        
             '#######'   ##     ##  '#######'  #'      '#     '####' # '####'        



                #########################################################
                #                        -***-                          #
                #          Department of theory and spectroscopy        #
                #                                                       #
                #                      Frank Neese                      #
                #                                                       #
                #     Directorship, Architecture, Infrastructure        #
                #                    SHARK, DRIVERS                     #
                #        Core code/Algorithms in most modules           #
                #                                                       #
                #        Max Planck Institute fuer Kohlenforschung      #
                #                Kaiser Wilhelm Platz 1                 #
                #                 D-45470 Muelheim/Ruhr                 #
                #                      Germany                          #
                #                                                       #
                #                  All rights reserved                  #
                #                        -***-                          #
                #########################################################


                         Program Version 6.0.1  -  RELEASE   -


 With contributions from (in alphabetic order):
[Max-Planck-Institut fuer Kohlenforschung]                               
  Daniel Aravena         : Magnetic Suceptibility                        
  Michael Atanasov       : Ab Initio Ligand Field Theory (pilot matlab implementation)
  Alexander A. Auer      : GIAO ZORA, VPT2 properties, NMR spectrum      
  Ute Becker             : All parallelization in ORCA, NUMFREQ, NUMCALC 
  Giovanni Bistoni       : ED, misc. LED, open-shell LED, HFLD           
  Martin Brehm           : Molecular dynamics                            
  Dmytro Bykov           : pre 5.0 version of the SCF Hessian            
  Marcos Casanova-Páez   : Triplet and SCS-CIS(D). UHF-(DLPNO)-IP/EA/STEOM-CCSD. UHF-CVS-IP/STEOM-CCSD   
  Vijay G. Chilkuri      : MRCI spin determinant printing, contributions to CSF-ICE 
  Pauline Colinet        : FMM embedding                                 
  Dipayan Datta          : RHF DLPNO-CCSD density                        
  Achintya Kumar Dutta   : EOM-CC, STEOM-CC                              
  Nicolas Foglia         : Exact transition moments, OPA infrastructure, MCD improvements    
  Dmitry Ganyushin       : Spin-Orbit,Spin-Spin,Magnetic field MRCI      
  Miquel Garcia-Rates    : C-PCM and meta-GGA Hessian, CCSD/C-PCM, Gaussian charge scheme 
  Tiago L. C. Gouveia    : GS-ROHF, GS-ROCIS                             
  Yang Guo               : DLPNO-NEVPT2, F12-NEVPT2, CIM, IAO-localization        
  Andreas Hansen         : Spin unrestricted coupled pair/coupled cluster methods 
  Ingolf Harden          : AUTO-CI MPn and infrastructure                
  Benjamin Helmich-Paris : MC-RPA, TRAH-(SCF,CASSCF), AVAS, COSX integrals, SCF dyn. polar. 
  Lee Huntington         : MR-EOM, pCC                                   
  Robert Izsak           : Overlap fitted RIJCOSX, COSX-SCS-MP3, EOM     
  Riya Kayal             : Wick's Theorem for AUTO-CI, AUTO-CI UHF-CCSDT 
  Emily Kempfer          : AUTO-CI, RHF CISDT and CCSDT                  
  Christian Kollmar      : KDIIS, OOCD, Brueckner-CCSD(T), CCSD density, CASPT2, CASPT2-K, improved NEVPT2 
  Axel Koslowski         : Symmetry handling                             
  Simone Kossmann        : meta-GGA functionals, TD-DFT gradient, OOMP2, (MP2 Hessian; deprecated post 5.0) 
  Lucas Lang             : DCDCAS                                        
  Marvin Lechner         : AUTO-CI (C++ implementation), FIC-MRCC        
  Spencer Leger          : CASSCF response                               
  Dagmar Lenk            : GEPOL surface, SMD, ORCA-2-JSON               
  Dimitrios Liakos       : Extrapolation schemes; Compound Job, initial MDCI parallelization 
  Dimitrios Manganas     : Further ROCIS development; embedding schemes. LFT, Crystal Embedding 
  Dimitrios Pantazis     : SARC Basis sets                               
  Anastasios Papadopoulos: AUTO-CI, single reference methods and gradients 
  Taras Petrenko         : pre 6.0 DFT Hessian and TD-DFT gradient, (ASA, deprecated), ECA, 1-Electron XAS/XES, NRVS 
  Peter Pinski           : DLPNO-MP2, DLPNO-MP2 Gradient                 
  Christoph Reimann      : Effective Core Potentials                     
  Marius Retegan         : Local ZFS, SOC                                
  Christoph Riplinger    : Optimizer, TS searches, QM/MM, DLPNO-CCSD(T), (RO)-DLPNO pert. Triples 
  Michael Roemelt        : Original ROCIS implementation                 
  Masaaki Saitow         : Open-shell DLPNO-CCSD energy and density      
  Barbara Sandhoefer     : DKH picture change effects                    
  Kantharuban Sivalingam : CASSCF convergence/infrastructure, NEVPT2 and variants, FIC-MRCI 
  Bernardo de Souza      : ESD, SOC TD-DFT                               
  Georgi L. Stoychev     : AutoAux, RI-MP2 NMR, DLPNO-MP2 response, X2C  
  Van Anh Tran           : RI-MP2 g-tensors                              
  Willem Van den Heuvel  : Paramagnetic NMR                              
  Zikuan Wang            : NOTCH, Electric field optimization            
  Frank Wennmohs         : Technical directorship and infrastructure     
  Hang Xu                : AUTO-CI-Response properties                   
                                                                         
[FACCTs GmbH]                                                            
  Markus Bursch, Miquel Garcia-Rates, Christoph Riplinger, Bernardo de Souza, Georgi L. Stoychev 
                                                                 
  APM, Basis sets (HGBS, AHGBS, def-TZVP (Ac-Lr), def2-XVPD (La-Lu)), CI-OPT, improved COSX, DLPNO-Multilevel,           
  DOCKER, DRACO, updates on ESD, GOAT, IRC, LR-CPCM, MBIS, meta-GGA TD-DFT gradient, ML-optimized integration grids, 
  MM, NACMEs, nearIR, NEB, NEB-TS, NL-DFT gradient (VV10), 2- and 3-layer-ONIOM, interface openCOSMO-RS, QMMM,   
  Crystal-QMMM, SF, symmetry and pop. for TD-DFT, r2SCAN hybrids, SOLVATOR                                   
                                                                         
[Other institutions]                                                     
  V. Asgeirsson          : NEB                                           
  Christoph Bannwarth    : sTDA-DFT, sTD-DFT, PBEh-3c, B97-3c, D3        
  Sebastian Ehlert       : rSCAN, r2SCAN, r2SCAN-3c, D4, dhf basis sets  
  Marvin Friede          : D4 for Fr, Ra, Ac-Lr                          
  Lars Goerigk           : TD-DFT with DH, B97 family of functionals     
  Stefan Grimme          : VdW corrections, initial TS optimization, DFT functionals, gCP, sTDA/sTD-DF 
  Waldemar Hujo          : DFT-NL                                        
  H. Jonsson             : NEB                                           
  Holger Kruse           : gCP                                           
  Marcel Mueller         : wB97X-3c, vDZP basis set                      
  Hagen Neugebauer       : wr2SCAN                                       
  Tobias Risthaus        : range-separated hybrid DFT                    
  Lukas Wittmann         : regularized MP2, r2SCAN double-hybrids, wr2SCAN        
                                                                         
We gratefully acknowledge several colleagues who have allowed us to      
interface, adapt or use parts of their codes:                            
  Ed Valeev, F. Pavosevic, A. Kumar             : LibInt (2-el integral package), F12 methods 
  Garnet Chan, S. Sharma, J. Yang, R. Olivares  : DMRG                   
  Ulf Ekstrom                                   : XCFun DFT Library      
  Mihaly Kallay                                 : mrcc  (arbitrary order and MRCC methods)
  Frank Weinhold                                : gennbo (NPA and NBO analysis)           
  Simon Mueller                                 : openCOSMO-RS                            
  Christopher J. Cramer and Donald G. Truhlar   : smd solvation model                     
  S Lehtola, MJT Oliveira, MAL Marques          : LibXC Library                           
  Liviu Ungur et al                             : ANISO software                          


 Your calculation uses the libint2 library for the computation of 2-el integrals
 For citations please refer to: http://libint.valeyev.net

 Your ORCA version has been built with support for libXC version: 6.2.2
 For citations please refer to: https://libxc.gitlab.io

 This ORCA versions uses:
   CBLAS   interface :  Fast vector & matrix operations
   LAPACKE interface :  Fast linear algebra routines
   SCALAPACK package :  Parallel linear algebra routines
   Shared memory     :  Shared parallel matrices
   BLAS/LAPACK       :  OpenBLAS 0.3.27  USE64BITINT DYNAMIC_ARCH NO_AFFINITY Zen SINGLE_THREADED
        Core in use  :  Zen
   Copyright (c) 2011-2014, The OpenBLAS Project


Warning: RI is on but no J-basis has been assigned. Assigning Def2/J (nothing to worry about!)
================================================================================

----- Orbital basis set information -----
Your calculation utilizes the basis: def2-SVP
   F. Weigend and R. Ahlrichs, Phys. Chem. Chem. Phys. 7, 3297 (2005).

----- AuxJ basis set information -----
Your calculation utilizes the auxiliary basis: def2/J
   F. Weigend, Phys. Chem. Chem. Phys. 8, 1057 (2006).

================================================================================
                                        WARNINGS
                       Please study these warnings very carefully!
================================================================================


WARNING: Geometry Optimization
  ===> : Switching off AutoStart
         For restart on a previous wavefunction, please use MOREAD

================================================================================
                                       INPUT FILE
================================================================================
NAME = input.inp
|  1> ! Opt B3LYP def2-SVP TightSCF
|  2> %geom Constraints
|  3>   { D 3 12 13 17 C } 
|  4> end
|  5> end
|  6> * xyz 0 1
|  7>  C                 -1.90820267    1.37405049   -0.04349649
|  8>  C                 -0.50695535    1.35553867   -0.05272788
|  9>  C                  0.21008322    2.55827447    0.00387840
| 10>  C                 -0.47412556    3.77952218    0.06971405
| 11>  C                 -1.87537288    3.79803404    0.07894466
| 12>  C                 -2.59241143    2.59529818    0.02233974
| 13>  H                 -2.45567751    0.45573495   -0.08671518
| 14>  H                  0.01545323    0.42308897   -0.10299550
| 15>  H                  0.07334930    4.69783766    0.11293411
| 16>  H                 -2.39778145    4.73048368    0.12921348
| 17>  H                 -3.66229485    2.60943229    0.02938955
| 18>  C                  1.74991545    2.53793170   -0.00626377
| 19>  C                  2.25461126    2.60451272   -1.45969045
| 20>  H                  2.09770818    1.63527506    0.45106676
| 21>  H                  2.12134089    3.38019323    0.53920727
| 22>  H                  1.90681853    3.50716936   -1.91702098
| 23>  C                  3.79444349    2.58416995   -1.46983262
| 24>  O                  4.43652323    3.07233034   -0.50391150
| 25>  O                  4.49465165    2.01055252   -2.57688799
| 26>  H                  5.33871003    2.45458237   -2.68644592
| 27>  N                  1.74433519    1.44738707   -2.20907590
| 28>  H                  2.07205974    1.49062150   -3.15285946
| 29>  H                  2.06937512    0.60378273   -1.78166419
| 30> *
| 31> 
| 32>                          ****END OF INPUT****
================================================================================

                       *****************************
                       * Geometry Optimization Run *
                       *****************************

Geometry optimization settings:
Update method            Update   .... BFGS
Choice of coordinates    CoordSys .... (2022) Redundant Internals
Initial Hessian          InHess   .... Almloef's Model
Max. no of cycles        MaxIter  .... 69

Convergence Tolerances:
Energy Change            TolE     ....  5.0000e-06 Eh
Max. Gradient            TolMAXG  ....  3.0000e-04 Eh/bohr
RMS Gradient             TolRMSG  ....  1.0000e-04 Eh/bohr
Max. Displacement        TolMAXD  ....  4.0000e-03 bohr
RMS Displacement         TolRMSD  ....  2.0000e-03 bohr
Strict Convergence                .... False

------------------------------------------------------------------------------
                        ORCA OPTIMIZATION COORDINATE SETUP
------------------------------------------------------------------------------

The optimization will be done in redundant internal coordinates (2022)
Making redundant internal coordinates   ...  (2022 redundants) done
Evaluating the initial hessian          ...  (Almloef) done
Evaluating the coordinates              ...  done
Calculating the B-matrix                .... done
Calculating the G-matrix                .... done
Diagonalizing the G-matrix              .... done
Small eigenvalue found = 1.322e-02
Small eigenvalue found = 2.018e-02
The first mode is                       ....   45
The number of degrees of freedom        ....   63
Storing new coordinates                 .... done

    -----------------------------------------------------------------
                    Redundant Internal Coordinates


    -----------------------------------------------------------------
         Definition                    Initial Value    Approx d2E/dq
    -----------------------------------------------------------------
      1. B(C   1,C   0)                  1.4014         0.599171   
      2. B(C   2,C   1)                  1.4014         0.599171   
      3. B(C   3,C   2)                  1.4014         0.599171   
      4. B(C   4,C   3)                  1.4014         0.599171   
      5. B(C   5,C   0)                  1.4014         0.599171   
      6. B(C   5,C   4)                  1.4014         0.599171   
      7. B(H   6,C   0)                  1.0700         0.387554   
      8. B(H   7,C   1)                  1.0700         0.387554   
      9. B(H   8,C   3)                  1.0700         0.387554   
     10. B(H   9,C   4)                  1.0700         0.387554   
     11. B(H  10,C   5)                  1.0700         0.387554   
     12. B(C  11,C   2)                  1.5400         0.360100   
     13. B(C  12,C  11)                  1.5400         0.360100   
     14. B(H  13,C  11)                  1.0700         0.387554   
     15. B(H  14,C  11)                  1.0700         0.387554   
     16. B(H  15,C  12)                  1.0700         0.387554   
     17. B(C  16,C  12)                  1.5400         0.360100   
     18. B(O  17,C  16)                  1.2584         0.907475   
     19. B(O  18,C  16)                  1.4300         0.483123   
     20. B(H  19,O  18)                  0.9600         0.519956   
     21. B(N  20,C  12)                  1.4700         0.417100   
     22. B(H  21,N  20)                  1.0000         0.448900   
     23. B(H  22,N  20)                  1.0000         0.448900   
     24. A(C   5,C   0,H   6)          120.0000         0.355267   
     25. A(C   1,C   0,C   5)          120.0000         0.428769   
     26. A(C   1,C   0,H   6)          120.0000         0.355267   
     27. A(C   0,C   1,C   2)          120.0000         0.428769   
     28. A(C   2,C   1,H   7)          120.0000         0.355267   
     29. A(C   0,C   1,H   7)          120.0000         0.355267   
     30. A(C   1,C   2,C  11)          120.0000         0.391785   
     31. A(C   1,C   2,C   3)          120.0000         0.428769   
     32. A(C   3,C   2,C  11)          120.0000         0.391785   
     33. A(C   2,C   3,C   4)          120.0000         0.428769   
     34. A(C   2,C   3,H   8)          120.0000         0.355267   
     35. A(C   4,C   3,H   8)          120.0000         0.355267   
     36. A(C   3,C   4,H   9)          120.0000         0.355267   
     37. A(C   3,C   4,C   5)          120.0000         0.428769   
     38. A(C   5,C   4,H   9)          120.0000         0.355267   
     39. A(C   4,C   5,H  10)          120.0000         0.355267   
     40. A(C   0,C   5,C   4)          120.0000         0.428769   
     41. A(C   0,C   5,H  10)          120.0000         0.355267   
     42. A(C   2,C  11,C  12)          109.4712         0.358827   
     43. A(C   2,C  11,H  13)          109.4712         0.326284   
     44. A(C  12,C  11,H  13)          109.4712         0.326284   
     45. A(C   2,C  11,H  14)          109.4712         0.326284   
     46. A(C  12,C  11,H  14)          109.4712         0.326284   
     47. A(H  13,C  11,H  14)          109.4712         0.297665   
     48. A(C  11,C  12,N  20)          109.4712         0.365657   
     49. A(H  15,C  12,N  20)          109.4712         0.332290   
     50. A(C  16,C  12,N  20)          109.4712         0.365657   
     51. A(C  11,C  12,H  15)          109.4712         0.326284   
     52. A(C  11,C  12,C  16)          109.4712         0.358827   
     53. A(H  15,C  12,C  16)          109.4712         0.326284   
     54. A(O  17,C  16,O  18)          120.0000         0.438664   
     55. A(C  12,C  16,O  17)          120.0000         0.418876   
     56. A(C  12,C  16,O  18)          120.0000         0.375013   
     57. A(C  16,O  18,H  19)          109.4712         0.354684   
     58. A(C  12,N  20,H  21)          109.4712         0.337586   
     59. A(C  12,N  20,H  22)          109.4712         0.337586   
     60. A(H  21,N  20,H  22)          109.4712         0.306850   
     61. D(H   7,C   1,C   0,C   5)   -180.0000         0.024745   
     62. D(C   2,C   1,C   0,C   5)      0.0001         0.024745   
     63. D(C   2,C   1,C   0,H   6)   -179.9999         0.024745   
     64. D(H   7,C   1,C   0,H   6)      0.0000         0.024745   
     65. D(C   3,C   2,C   1,H   7)    180.0000         0.024745   
     66. D(C   3,C   2,C   1,C   0)     -0.0001         0.024745   
     67. D(C  11,C   2,C   1,C   0)    179.9999         0.024745   
     68. D(C  11,C   2,C   1,H   7)     -0.0000         0.024745   
     69. D(C   4,C   3,C   2,C  11)   -179.9999         0.024745   
     70. D(C   4,C   3,C   2,C   1)      0.0001         0.024745   
     71. D(H   8,C   3,C   2,C  11)      0.0000         0.024745   
     72. D(H   8,C   3,C   2,C   1)   -180.0000         0.024745   
     73. D(C   5,C   4,C   3,C   2)      0.0000         0.024745   
     74. D(C   5,C   4,C   3,H   8)   -179.9999         0.024745   
     75. D(H   9,C   4,C   3,C   2)    179.9999         0.024745   
     76. D(H   9,C   4,C   3,H   8)     -0.0001         0.024745   
     77. D(C   4,C   5,C   0,C   1)     -0.0000         0.024745   
     78. D(H  10,C   5,C   4,C   3)    179.9999         0.024745   
     79. D(H  10,C   5,C   0,C   1)   -179.9999         0.024745   
     80. D(H  10,C   5,C   0,H   6)      0.0001         0.024745   
     81. D(C   0,C   5,C   4,C   3)     -0.0000         0.024745   
     82. D(C   4,C   5,C   0,H   6)    180.0000         0.024745   
     83. D(C   0,C   5,C   4,H   9)   -179.9999         0.024745   
     84. D(H  10,C   5,C   4,H   9)     -0.0000         0.024745   
     85. D(C  12,C  11,C   2,C   1)     90.0000         0.009750   
     86. D(C  12,C  11,C   2,C   3)    -90.0000         0.009750   
     87. D(H  13,C  11,C   2,C   1)    -30.0000         0.009750   
     88. D(H  13,C  11,C   2,C   3)    150.0000         0.009750   
     89. D(H  14,C  11,C   2,C   1)   -150.0000         0.009750   
     90. D(H  15,C  12,C  11,C   2)     60.0000         0.010403   
     91. D(H  15,C  12,C  11,H  13)   -180.0000         0.010403   
     92. D(H  15,C  12,C  11,H  14)    -60.0000         0.010403   
     93. D(C  16,C  12,C  11,C   2)    180.0000         0.010403   
     94. D(C  16,C  12,C  11,H  13)    -60.0000         0.010403   
     95. D(C  16,C  12,C  11,H  14)     60.0000         0.010403   
     96. D(O  17,H  13,C  12,C   3)   -125.9028         0.001524 C 
     97. D(O  17,C  16,C  12,C  11)    -30.0000         0.009750   
     98. D(O  17,C  16,C  12,H  15)     90.0000         0.009750   
     99. D(O  17,C  16,C  12,N  20)   -150.0000         0.009750   
    100. D(O  18,C  16,C  12,C  11)    150.0000         0.009750   
    101. D(O  18,C  16,C  12,H  15)    -90.0000         0.009750   
    102. D(H  19,O  18,C  16,C  12)    150.0000         0.016748   
    103. D(H  19,O  18,C  16,O  17)    -30.0000         0.016748   
    104. D(H  21,N  20,C  12,C  11)    180.0000         0.014836   
    105. D(H  21,N  20,C  12,H  15)     60.0000         0.014836   
    106. D(H  21,N  20,C  12,C  16)    -60.0000         0.014836   
    107. D(H  22,N  20,C  12,C  11)    -60.0000         0.014836   
    108. D(H  22,N  20,C  12,H  15)   -180.0000         0.014836   
    -----------------------------------------------------------------

Number of atoms                         .... 23
Number of degrees of freedom            .... 108


         *************************************************************
         *                GEOMETRY OPTIMIZATION CYCLE   1            *
         *************************************************************
---------------------------------
CARTESIAN COORDINATES (ANGSTROEM)
---------------------------------
  C     -1.908203    1.374050   -0.043496
  C     -0.506955    1.355539   -0.052728
  C      0.210083    2.558274    0.003878
  C     -0.474126    3.779522    0.069714
  C     -1.875373    3.798034    0.078945
  C     -2.592411    2.595298    0.022340
  H     -2.455678    0.455735   -0.086715
  H      0.015453    0.423089   -0.102996
  H      0.073349    4.697838    0.112934
  H     -2.397781    4.730484    0.129213
  H     -3.662295    2.609432    0.029390
  C      1.749915    2.537932   -0.006264
  C      2.254611    2.604513   -1.459690
  H      2.097708    1.635275    0.451067
  H      2.121341    3.380193    0.539207
  H      1.906819    3.507169   -1.917021
  C      3.794443    2.584170   -1.469833
  O      4.436523    3.072330   -0.503911
  O      4.494652    2.010553   -2.576888
  H      5.338710    2.454582   -2.686446
  N      1.744335    1.447387   -2.209076
  H      2.072060    1.490622   -3.152859
  H      2.069375    0.603783   -1.781664

----------------------------
CARTESIAN COORDINATES (A.U.)
----------------------------
  NO LB      ZA    FRAG     MASS         X           Y           Z
   0 C     6.0000    0    12.011   -3.605980    2.596579   -0.082196
   1 C     6.0000    0    12.011   -0.958007    2.561597   -0.099641
   2 C     6.0000    0    12.011    0.397000    4.834438    0.007329
   3 C     6.0000    0    12.011   -0.895967    7.142262    0.131740
   4 C     6.0000    0    12.011   -3.543941    7.177244    0.149184
   5 C     6.0000    0    12.011   -4.898948    4.904403    0.042216
   6 H     1.0000    0     1.008   -4.640558    0.861214   -0.163868
   7 H     1.0000    0     1.008    0.029202    0.799522   -0.194633
   8 H     1.0000    0     1.008    0.138610    8.877627    0.213415
   9 H     1.0000    0     1.008   -4.531150    8.939319    0.244178
  10 H     1.0000    0     1.008   -6.920734    4.931112    0.055538
  11 C     6.0000    0    12.011    3.306861    4.795996   -0.011837
  12 C     6.0000    0    12.011    4.260598    4.921816   -2.758415
  13 H     1.0000    0     1.008    3.964094    3.090222    0.852393
  14 H     1.0000    0     1.008    4.008753    6.387639    1.018954
  15 H     1.0000    0     1.008    3.603365    6.627590   -3.622645
  16 C     6.0000    0    12.011    7.170459    4.883373   -2.777581
  17 O     8.0000    0    15.999    8.383814    5.805863   -0.952255
  18 O     8.0000    0    15.999    8.493661    3.799394   -4.869613
  19 H     1.0000    0     1.008   10.088700    4.638488   -5.076647
  20 N     7.0000    0    14.007    3.296316    2.735165   -4.174548
  21 H     1.0000    0     1.008    3.915625    2.816866   -5.958041
  22 H     1.0000    0     1.008    3.910552    1.140984   -3.366857

--------------------------------
INTERNAL COORDINATES (ANGSTROEM)
--------------------------------
 C      0   0   0     0.000000000000     0.00000000     0.00000000
 C      1   0   0     1.401399999232     0.00000000     0.00000000
 C      2   1   0     1.401400009421   120.00000018     0.00000000
 C      3   2   1     1.401399998794   119.99999939     0.00000000
 C      4   3   2     1.401399994623   120.00000046     0.00000000
 C      5   4   3     1.401399995749   119.99999991     0.00000000
 H      1   2   3     1.069999993740   119.99999985   180.00009043
 H      2   1   3     1.070000000518   120.00000016   179.99994418
 H      4   3   2     1.070000007816   119.99999942   180.00000573
 H      5   4   3     1.069999999724   120.00000003   179.99988608
 H      6   5   4     1.070000002466   120.00000008   179.99987404
 C      3   2   1     1.539999996250   120.00000023   179.99990474
 C     12   3   2     1.540000002270   109.47122064    89.99999963
 H     12   3   2     1.070000003013   109.47122066   330.00000002
 H     12   3   2     1.069999999007   109.47122086   209.99999980
 H     13  12   3     1.070000003013   109.47122031    60.00000017
 C     13  12   3     1.539999996250   109.47122064   180.00000000
 O     17  13  12     1.258400003554   120.00000023   330.00000019
 O     17  13  12     1.430000005446   120.00000007   150.00000033
 H     19  17  13     0.959999998211   109.47122053   149.99999968
 N     13  12   3     1.469999996658   109.47122081   300.00000033
 H     21  13  12     1.000000002368   109.47122082   180.00000000
 H     21  13  12     1.000000004203   109.47122083   299.99999989

---------------------------
INTERNAL COORDINATES (A.U.)
---------------------------
 C      0   0   0     0.000000000000     0.00000000     0.00000000
 C      1   0   0     2.648262202626     0.00000000     0.00000000
 C      2   1   0     2.648262221880   120.00000018     0.00000000
 C      3   2   1     2.648262201799   119.99999939     0.00000000
 C      4   3   2     2.648262193916   120.00000046     0.00000000
 C      5   4   3     2.648262196043   119.99999991     0.00000000
 H      1   2   3     2.022006951466   119.99999985   180.00009043
 H      2   1   3     2.022006964274   120.00000016   179.99994418
 H      4   3   2     2.022006978066   119.99999942   180.00000573
 H      5   4   3     2.022006962775   120.00000003   179.99988608
 H      6   5   4     2.022006967956   120.00000008   179.99987404
 C      3   2   1     2.910178239152   120.00000023   179.99990474
 C     12   3   2     2.910178250528   109.47122064    89.99999963
 H     12   3   2     2.022006968989   109.47122066   330.00000002
 H     12   3   2     2.022006961420   109.47122086   209.99999980
 H     13  12   3     2.022006968989   109.47122031    60.00000017
 C     13  12   3     2.910178239152   109.47122064   180.00000000
 O     17  13  12     2.378031373643   120.00000023   330.00000019
 O     17  13  12     2.702308381799   120.00000007   150.00000033
 H     19  17  13     1.814137085184   109.47122053   149.99999968
 N     13  12   3     2.777897410549   109.47122081   300.00000033
 H     21  13  12     1.889726138397   109.47122082   180.00000000
 H     21  13  12     1.889726141864   109.47122083   299.99999989

---------------------
BASIS SET INFORMATION
---------------------
There are 4 groups of distinct atoms

 Group   1 Type C   : 7s4p1d contracted to 3s2p1d pattern {511/31/1}
 Group   2 Type H   : 4s1p contracted to 2s1p pattern {31/1}
 Group   3 Type O   : 7s4p1d contracted to 3s2p1d pattern {511/31/1}
 Group   4 Type N   : 7s4p1d contracted to 3s2p1d pattern {511/31/1}

Atom   0C    basis set group =>   1
Atom   1C    basis set group =>   1
Atom   2C    basis set group =>   1
Atom   3C    basis set group =>   1
Atom   4C    basis set group =>   1
Atom   5C    basis set group =>   1
Atom   6H    basis set group =>   2
Atom   7H    basis set group =>   2
Atom   8H    basis set group =>   2
Atom   9H    basis set group =>   2
Atom  10H    basis set group =>   2
Atom  11C    basis set group =>   1
Atom  12C    basis set group =>   1
Atom  13H    basis set group =>   2
Atom  14H    basis set group =>   2
Atom  15H    basis set group =>   2
Atom  16C    basis set group =>   1
Atom  17O    basis set group =>   3
Atom  18O    basis set group =>   3
Atom  19H    basis set group =>   2
Atom  20N    basis set group =>   4
Atom  21H    basis set group =>   2
Atom  22H    basis set group =>   2
---------------------------------
AUXILIARY/J BASIS SET INFORMATION
---------------------------------
There are 4 groups of distinct atoms

 Group   1 Type C   : 12s5p4d2f1g contracted to 6s4p3d1f1g pattern {711111/2111/211/2/1}
 Group   2 Type H   : 5s2p1d contracted to 3s1p1d pattern {311/2/1}
 Group   3 Type O   : 12s5p4d2f1g contracted to 6s4p3d1f1g pattern {711111/2111/211/2/1}
 Group   4 Type N   : 12s5p4d2f1g contracted to 6s4p3d1f1g pattern {711111/2111/211/2/1}

Atom   0C    basis set group =>   1
Atom   1C    basis set group =>   1
Atom   2C    basis set group =>   1
Atom   3C    basis set group =>   1
Atom   4C    basis set group =>   1
Atom   5C    basis set group =>   1
Atom   6H    basis set group =>   2
Atom   7H    basis set group =>   2
Atom   8H    basis set group =>   2
Atom   9H    basis set group =>   2
Atom  10H    basis set group =>   2
Atom  11C    basis set group =>   1
Atom  12C    basis set group =>   1
Atom  13H    basis set group =>   2
Atom  14H    basis set group =>   2
Atom  15H    basis set group =>   2
Atom  16C    basis set group =>   1
Atom  17O    basis set group =>   3
Atom  18O    basis set group =>   3
Atom  19H    basis set group =>   2
Atom  20N    basis set group =>   4
Atom  21H    basis set group =>   2
Atom  22H    basis set group =>   2
------------------------------------------------------------------------------
                             ORCA STARTUP CALCULATIONS
                           -- RI-GTO INTEGRALS CHOSEN --
------------------------------------------------------------------------------
------------------------------------------------------------------------------
                   ___                                                        
                  /   \      - P O W E R E D   B Y -                         
                 /     \                                                     
                 |  |  |   _    _      __       _____    __    __             
                 |  |  |  | |  | |    /  \     |  _  \  |  |  /  |          
                  \  \/   | |  | |   /    \    | | | |  |  | /  /          
                 / \  \   | |__| |  /  /\  \   | |_| |  |  |/  /          
                |  |  |   |  __  | /  /__\  \  |    /   |      \           
                |  |  |   | |  | | |   __   |  |    \   |  |\   \          
                \     /   | |  | | |  |  |  |  | |\  \  |  | \   \       
                 \___/    |_|  |_| |__|  |__|  |_| \__\ |__|  \__/        
                                                                              
                      - O R C A' S   B I G   F R I E N D -                    
                                      &                                       
                       - I N T E G R A L  F E E D E R -                       
                                                                              
 v1 FN, 2020, v2 2021, v3 2022-2024                                           
------------------------------------------------------------------------------


----------------------
SHARK INTEGRAL PACKAGE
----------------------

Number of atoms                             ...     23
Number of basis functions                   ...    223
Number of shells                            ...    105
Maximum angular momentum                    ...      2
Integral batch strategy                     ... SHARK/LIBINT Hybrid
RI-J (if used) integral strategy            ... SPLIT-RIJ (Revised 2003 algorithm where possible)
Printlevel                                  ...      1
Contraction scheme used                     ... SEGMENTED contraction
Prescreening option                         ... SCHWARTZ
   Thresh                                   ... 2.500e-11
   Tcut                                     ... 2.500e-12
   Tpresel                                  ... 2.500e-12 
Coulomb Range Separation                    ... NOT USED
Exchange Range Separation                   ... NOT USED
Multipole approximations                    ... NOT USED
Finite Nucleus Model                        ... NOT USED
CABS basis                                  ... NOT available
Auxiliary Coulomb fitting basis             ... AVAILABLE
   # of basis functions in Aux-J            ...    709
   # of shells in Aux-J                     ...    235
   Maximum angular momentum in Aux-J        ...      4
Auxiliary J/K fitting basis                 ... NOT available
Auxiliary Correlation fitting basis         ... NOT available
Auxiliary 'external' fitting basis          ... NOT available

Checking pre-screening integrals            ... done (  0.0 sec) Dimension = 105
Check shell pair data                       ... done (  0.0 sec)
Shell pair information
Shell pair cut-off parameter TPreSel        ...   2.5e-12
Total number of shell pairs                 ...      5565
Shell pairs after pre-screening             ...      4801
Total number of primitive shell pairs       ...     20089
Primitive shell pairs kept                  ...     12066
          la=0 lb=0:   1493 shell pairs
          la=1 lb=0:   1774 shell pairs
          la=1 lb=1:    550 shell pairs
          la=2 lb=0:    575 shell pairs
          la=2 lb=1:    348 shell pairs
          la=2 lb=2:     61 shell pairs

Calculating one electron integrals          ... done (  0.1 sec)
Calculating RI/J V-Matrix + Cholesky decomp.... done (  0.1 sec)
Calculating Nuclear repulsion               ... done (  0.0 sec) ENN=    663.465143258600 Eh

Diagonalization of the overlap matrix:
Smallest eigenvalue                        ... 3.009e-04
Time for diagonalization                   ...    0.009 sec
Threshold for overlap eigenvalues          ... 1.000e-07
Number of eigenvalues below threshold      ... 0
Time for construction of square roots      ...    0.005 sec
Total time needed                          ...    0.016 sec

-------------------
DFT GRID GENERATION
-------------------

General Integration Accuracy     IntAcc      ... 4.388
Radial Grid Type                 RadialGrid  ... OptM3 with GC (2021)
Angular Grid (max. ang.)         AngularGrid ... 4 (Lebedev-302)
Angular grid pruning method      GridPruning ... 4 (adaptive)
Weight generation scheme         WeightScheme... mBecke (2022)
Basis function cutoff            BFCut       ... 1.0000e-11
Integration weight cutoff        WCut        ... 1.0000e-14
Partially contracted basis set               ... off
Rotationally invariant grid construction     ... off
Angular grids for H and He will be reduced by one unit

Total number of grid points                  ...   107247
Total number of batches                      ...     1687
Average number of points per batch           ...       63
Average number of grid points per atom       ...     4663

--------------------
COSX GRID GENERATION
--------------------

GRIDX 1
-------
General Integration Accuracy     IntAcc      ... 3.816
Radial Grid Type                 RadialGrid  ... OptM3 with GC (2021)
Angular Grid (max. ang.)         AngularGrid ... 1 (Lebedev-50)
Angular grid pruning method      GridPruning ... 4 (adaptive)
Weight generation scheme         WeightScheme... mBecke (2022)
Basis function cutoff            BFCut       ... 1.0000e-11
Integration weight cutoff        WCut        ... 1.0000e-14
Partially contracted basis set               ... on
Rotationally invariant grid construction     ... off
Angular grids for H and He will be reduced by one unit

Total number of grid points                  ...    13693
Total number of batches                      ...      120
Average number of points per batch           ...      114
Average number of grid points per atom       ...      595
UseSFitting                                  ... on

GRIDX 2
-------
General Integration Accuracy     IntAcc      ... 4.020
Radial Grid Type                 RadialGrid  ... OptM3 with GC (2021)
Angular Grid (max. ang.)         AngularGrid ... 2 (Lebedev-110)
Angular grid pruning method      GridPruning ... 4 (adaptive)
Weight generation scheme         WeightScheme... mBecke (2022)
Basis function cutoff            BFCut       ... 1.0000e-11
Integration weight cutoff        WCut        ... 1.0000e-14
Partially contracted basis set               ... on
Rotationally invariant grid construction     ... off
Angular grids for H and He will be reduced by one unit

Total number of grid points                  ...    29614
Total number of batches                      ...      242
Average number of points per batch           ...      122
Average number of grid points per atom       ...     1288
UseSFitting                                  ... on

GRIDX 3
-------
General Integration Accuracy     IntAcc      ... 4.338
Radial Grid Type                 RadialGrid  ... OptM3 with GC (2021)
Angular Grid (max. ang.)         AngularGrid ... 3 (Lebedev-194)
Angular grid pruning method      GridPruning ... 4 (adaptive)
Weight generation scheme         WeightScheme... mBecke (2022)
Basis function cutoff            BFCut       ... 1.0000e-11
Integration weight cutoff        WCut        ... 1.0000e-14
Partially contracted basis set               ... on
Rotationally invariant grid construction     ... off
Angular grids for H and He will be reduced by one unit

Total number of grid points                  ...    64953
Total number of batches                      ...      519
Average number of points per batch           ...      125
Average number of grid points per atom       ...     2824
UseSFitting                                  ... on
Initializing property integral containers    ... done (  0.0 sec)

SHARK setup successfully completed in   3.4 seconds

Maximum memory used throughout the entire STARTUP-calculation: 45.0 MB
-------------------------------------------------------------------------------
                                 ORCA GUESS
                   Start orbitals & Density for SCF / CASSCF
-------------------------------------------------------------------------------

------------
SCF SETTINGS
------------
Hamiltonian:
 Density Functional     Method          .... DFT(GTOs)
 Exchange Functional    Exchange        .... B88
   X-Alpha parameter    XAlpha          ....  0.666667
   Becke's b parameter  XBeta           ....  0.004200
 Correlation Functional Correlation     .... LYP
 LDA part of GGA corr.  LDAOpt          .... VWN-5
 Gradients option       PostSCFGGA      .... off
 Hybrid DFT is turned on
   Fraction HF Exchange ScalHFX         ....  0.200000
   Scaling of DF-GGA-X  ScalDFX         ....  0.720000
   Scaling of DF-GGA-C  ScalDFC         ....  0.810000
   Scaling of DF-LDA-C  ScalLDAC        ....  1.000000
   Perturbative correction              ....  0.000000
   NL short-range parameter             ....  4.800000
 RI-approximation to the Coulomb term is turned on
   Number of AuxJ basis functions       .... 709
   RIJ-COSX (HFX calculated with COS-X)).... on


General Settings:
 Integral files         IntName         .... input
 Hartree-Fock type      HFTyp           .... RHF
 Total Charge           Charge          ....    0
 Multiplicity           Mult            ....    1
 Number of Electrons    NEL             ....   88
 Basis Dimension        Dim             ....  223
 Nuclear Repulsion      ENuc            ....    663.4651432586 Eh

Convergence Acceleration:
 AO-DIIS                CNVDIIS         .... on
   Start iteration      DIISMaxIt       ....    12
   Startup error        DIISStart       ....  0.200000
   # of expansion vecs  DIISMaxEq       ....     5
   Bias factor          DIISBfac        ....   1.050
   Max. coefficient     DIISMaxC        ....  10.000
 MO-DIIS                CNVKDIIS        .... off
 Trust-Rad. Augm. Hess. CNVTRAH         .... auto
   Auto Start mean grad. ratio tolernc. ....  1.125000
   Auto Start start iteration           ....    50
   Auto Start num. interpolation iter.  ....    10
   Max. Number of Micro iterations      ....    24
   Max. Number of Macro iterations      .... Maxiter - #DIIS iter
   Number of Davidson start vectors     ....     2
   Converg. threshold    (grad. norm)   ....   1.000e-05
   Grad. Scal. Fac. for Micro threshold ....   0.100
   Minimum threshold for Micro iter.    ....   1.000e-02
   NR start threshold (gradient norm)   ....   1.000e-04
   Initial trust radius                 ....   0.400
   Minimum AH scaling param. (alpha)    ....   1.000
   Maximum AH scaling param. (alpha)    .... 1000.000
   Quad. conv. algorithm                .... NR
   White noise on init. David. guess    .... on
   Maximum white noise                  ....   0.010
   Pseudo random numbers                .... off
   Inactive MOs                         .... canonical
   Orbital update algorithm             .... Taylor
   Preconditioner                       .... Diag
   Full preconditioner red. dimension   ....   250
 SOSCF                  CNVSOSCF        .... on
   Start iteration      SOSCFMaxIt      ....   150
   Startup grad/error   SOSCFStart      ....  0.003300
   Hessian update       SOSCFHessUp     .... L-BFGS
 Level Shifting         CNVShift        .... on
   Level shift para.    LevelShift      ....    0.2500
   Turn off err/grad.   ShiftErr        ....    0.0010
 Zerner damping         CNVZerner       .... off
 Static damping         CNVDamp         .... on
   Fraction old density DampFac         ....    0.7000
   Max. Damping (<1)    DampMax         ....    0.9800
   Min. Damping (>=0)   DampMin         ....    0.0000
   Turn off err/grad.   DampErr         ....    0.1000

SCF Procedure:
 Maximum # iterations   MaxIter         ....   125
 SCF integral mode      SCFMode         .... Direct
   Integral package                     .... SHARK and LIBINT hybrid scheme
 Reset frequency        DirectResetFreq ....    20
 Integral Threshold     Thresh          ....  2.500e-11 Eh
 Primitive CutOff       TCut            ....  2.500e-12 Eh

Convergence Tolerance:
 Convergence Check Mode ConvCheckMode   .... Total+1el-Energy
 Convergence forced     ConvForced      .... 0
 Energy Change          TolE            ....  1.000e-08 Eh
 1-El. energy change                    ....  1.000e-05 Eh
 Orbital Gradient       TolG            ....  1.000e-05
 Orbital Rotation angle TolX            ....  1.000e-05
 DIIS Error             TolErr          ....  5.000e-07

------------------------------
INITIAL GUESS: MODEL POTENTIAL
------------------------------
Loading Hartree-Fock densities                     ... done
Calculating cut-offs                               ... done
Initializing the effective Hamiltonian             ... done
Setting up the integral package (SHARK)            ... done
Starting the Coulomb interaction                   ... done (   0.3 sec)
Making the grid                                    ... done (   0.3 sec)
Mapping shells                                     ... done
Starting the XC term evaluation                    ... done (   0.3 sec)
  promolecular density results
     # of electrons  =     87.995899431
     EX              =    -72.478339061
     EC              =     -2.980203873
     EX+EC           =    -75.458542934
Transforming the Hamiltonian                       ... done (   0.0 sec)
Diagonalizing the Hamiltonian                      ... done (   0.0 sec)
Back transforming the eigenvectors                 ... done (   0.0 sec)
Now organizing SCF variables                       ... done
                      ------------------
                      INITIAL GUESS DONE (   0.8 sec)
                      ------------------
             **** ENERGY FILE WAS UPDATED (input.en.tmp) ****
Finished Guess after   0.9 sec
Maximum memory used throughout the entire GUESS-calculation: 23.6 MB

-------------------------------------------------------------------------------------------
                                      ORCA LEAN-SCF
                              memory conserving SCF solver
-------------------------------------------------------------------------------------------

----------------------------------------D-I-I-S--------------------------------------------
Iteration    Energy (Eh)           Delta-E    RMSDP     MaxDP     DIISErr   Damp  Time(sec)
-------------------------------------------------------------------------------------------
               ***  Starting incremental Fock matrix formation  ***
    1    -553.6539039172843104     0.00e+00  3.97e-03  1.71e-01  2.66e-01  0.700   7.8
    2    -553.8396075963149769    -1.86e-01  2.50e-03  1.01e-01  1.11e-01  0.700   3.6
                               ***Turning on AO-DIIS***
    3    -553.9060880769349069    -6.65e-02  1.01e-03  1.76e-02  3.40e-02  0.700   3.5
    4    -553.9482421088192723    -4.22e-02  1.74e-03  2.95e-02  1.59e-02  0.000   3.4
    5    -554.0419708534838037    -9.37e-02  3.03e-04  8.52e-03  6.72e-03  0.000   3.5
                              *** Initializing SOSCF ***
---------------------------------------S-O-S-C-F--------------------------------------
Iteration    Energy (Eh)           Delta-E    RMSDP     MaxDP     MaxGrad    Time(sec)
--------------------------------------------------------------------------------------
    6    -554.0425298995647836    -5.59e-04  1.14e-04  1.96e-03  2.35e-03     3.2
               *** Restarting incremental Fock matrix formation ***
    7    -554.0425302603765658    -3.61e-07  9.60e-05  3.37e-03  8.52e-04     6.9
    8    -554.0425069808794660     2.33e-05  5.67e-05  2.58e-03  2.25e-03     5.1
    9    -554.0425396259719264    -3.26e-05  1.93e-05  6.51e-04  1.12e-04     4.7
   10    -554.0425391138677469     5.12e-07  1.09e-05  3.80e-04  1.45e-04     4.5
   11    -554.0425402082722712    -1.09e-06  4.19e-06  1.55e-04  2.88e-05     4.2
   12    -554.0425401980763809     1.02e-08  2.43e-06  7.75e-05  3.22e-05     3.8
   13    -554.0425402339575385    -3.59e-08  6.45e-07  1.70e-05  3.75e-06     3.5
   14    -554.0425402307665763     3.19e-09  4.01e-07  1.09e-05  6.06e-06     2.9
                 **** Energy Check signals convergence ****

               *****************************************************
               *                     SUCCESS                       *
               *           SCF CONVERGED AFTER  14 CYCLES          *
               *****************************************************

Recomputing exchange energy using gridx3       ... done (   11.296 sec)
Old exchange energy                            :    -14.704975217 Eh
New exchange energy                            :    -14.705032542 Eh
Exchange energy change after final integration :     -0.000057325 Eh
Total energy after final integration           :   -554.042597556 Eh
             **** ENERGY FILE WAS UPDATED (input.en.tmp) ****

----------------
TOTAL SCF ENERGY
----------------

Total Energy       :       -554.04259755591863 Eh          -15076.26554 eV

Components:
Nuclear Repulsion  :        663.46514325860028 Eh           18053.80439 eV
Electronic Energy  :      -1217.50768348936663 Eh          -33130.06837 eV
One Electron Energy:      -2068.60674604570340 Eh          -56289.65127 eV
Two Electron Energy:        851.09906255633666 Eh           23159.58290 eV

Virial components:
Potential Energy   :      -1102.79832897874439 Eh          -30008.66814 eV
Kinetic Energy     :        548.75573142282587 Eh           14932.40260 eV
Virial Ratio       :          2.00963427957169

DFT components:
N(Alpha)           :       43.999974356153 electrons
N(Beta)            :       43.999974356153 electrons
N(Total)           :       87.999948712305 electrons
E(X)               :      -58.436409727891 Eh       
E(C)               :       -3.517136022573 Eh       
E(XC)              :      -61.953545750464 Eh       

---------------
SCF CONVERGENCE
---------------

  Last Energy change         ...   -3.1910e-09  Tolerance :   1.0000e-08
  Last MAX-Density change    ...    1.0888e-05  Tolerance :   1.0000e-07
  Last RMS-Density change    ...    4.0076e-07  Tolerance :   5.0000e-09
  Last DIIS Error            ...    2.3494e-03  Tolerance :   5.0000e-07
  Last Orbital Gradient      ...    6.0559e-06  Tolerance :   1.0000e-05
  Last Orbital Rotation      ...    8.5148e-06  Tolerance :   1.0000e-05


----------------
ORBITAL ENERGIES
----------------

  NO   OCC          E(Eh)            E(eV) 
   0   2.0000     -19.180185      -521.9194 
   1   2.0000     -19.131472      -520.5938 
   2   2.0000     -14.308583      -389.3563 
   3   2.0000     -10.324902      -280.9549 
   4   2.0000     -10.237067      -278.5648 
   5   2.0000     -10.188736      -277.2496 
   6   2.0000     -10.187679      -277.2209 
   7   2.0000     -10.181761      -277.0598 
   8   2.0000     -10.180928      -277.0371 
   9   2.0000     -10.180547      -277.0268 
  10   2.0000     -10.179916      -277.0096 
  11   2.0000     -10.179100      -276.9874 
  12   2.0000      -1.066853       -29.0305 
  13   2.0000      -0.987556       -26.8728 
  14   2.0000      -0.893331       -24.3088 
  15   2.0000      -0.839768       -22.8512 
  16   2.0000      -0.767787       -20.8926 
  17   2.0000      -0.731257       -19.8985 
  18   2.0000      -0.714639       -19.4463 
  19   2.0000      -0.657634       -17.8951 
  20   2.0000      -0.600241       -16.3334 
  21   2.0000      -0.595876       -16.2146 
  22   2.0000      -0.572902       -15.5895 
  23   2.0000      -0.520907       -14.1746 
  24   2.0000      -0.505738       -13.7618 
  25   2.0000      -0.497931       -13.5494 
  26   2.0000      -0.471759       -12.8372 
  27   2.0000      -0.461380       -12.5548 
  28   2.0000      -0.447613       -12.1802 
  29   2.0000      -0.439941       -11.9714 
  30   2.0000      -0.427682       -11.6378 
  31   2.0000      -0.417928       -11.3724 
  32   2.0000      -0.401530       -10.9262 
  33   2.0000      -0.386158       -10.5079 
  34   2.0000      -0.379281       -10.3207 
  35   2.0000      -0.374636       -10.1944 
  36   2.0000      -0.349969        -9.5231 
  37   2.0000      -0.339643        -9.2422 
  38   2.0000      -0.332825        -9.0566 
  39   2.0000      -0.321045        -8.7361 
  40   2.0000      -0.293504        -7.9866 
  41   2.0000      -0.250205        -6.8084 
  42   2.0000      -0.241425        -6.5695 
  43   2.0000      -0.233702        -6.3594 
  44   0.0000      -0.026392        -0.7182 
  45   0.0000      -0.002753        -0.0749 
  46   0.0000      -0.001837        -0.0500 
  47   0.0000       0.044965         1.2236 
  48   0.0000       0.066691         1.8148 
  49   0.0000       0.079461         2.1622 
  50   0.0000       0.086543         2.3549 
  51   0.0000       0.103858         2.8261 
  52   0.0000       0.118597         3.2272 
  53   0.0000       0.130595         3.5537 
  54   0.0000       0.140209         3.8153 
*Only the first 10 virtual orbitals were printed.

                    ********************************
                    * MULLIKEN POPULATION ANALYSIS *
                    ********************************

-----------------------
MULLIKEN ATOMIC CHARGES
-----------------------
   0 C :    0.025890
   1 C :    0.035208
   2 C :   -0.014375
   3 C :   -0.002538
   4 C :    0.033191
   5 C :    0.030248
   6 H :   -0.033078
   7 H :   -0.053832
   8 H :   -0.043957
   9 H :   -0.032808
  10 H :   -0.030919
  11 C :    0.167117
  12 C :    0.023922
  13 H :   -0.018771
  14 H :    0.006393
  15 H :    0.018406
  16 C :    0.182968
  17 O :   -0.248852
  18 O :   -0.238493
  19 H :    0.188634
  20 N :   -0.175205
  21 H :    0.093853
  22 H :    0.087001
Sum of atomic charges:   -0.0000000

--------------------------------
MULLIKEN REDUCED ORBITAL CHARGES
--------------------------------
  0 C s       :     3.158014  s :     3.158014
      pz      :     0.988870  p :     2.781204
      px      :     0.931803
      py      :     0.860531
      dz2     :     0.002516  d :     0.034893
      dxz     :     0.005372
      dyz     :     0.003309
      dx2y2   :     0.011007
      dxy     :     0.012689

  1 C s       :     3.192758  s :     3.192758
      pz      :     0.983733  p :     2.737669
      px      :     0.891730
      py      :     0.862206
      dz2     :     0.002612  d :     0.034364
      dxz     :     0.005263
      dyz     :     0.003174
      dx2y2   :     0.010888
      dxy     :     0.012427

  2 C s       :     3.057921  s :     3.057921
      pz      :     0.963937  p :     2.914696
      px      :     0.980379
      py      :     0.970379
      dz2     :     0.003114  d :     0.041758
      dxz     :     0.005186
      dyz     :     0.006540
      dx2y2   :     0.013587
      dxy     :     0.013331

  3 C s       :     3.205444  s :     3.205444
      pz      :     1.007247  p :     2.762770
      px      :     0.887649
      py      :     0.867873
      dz2     :     0.002536  d :     0.034324
      dxz     :     0.005236
      dyz     :     0.003272
      dx2y2   :     0.010652
      dxy     :     0.012627

  4 C s       :     3.155527  s :     3.155527
      pz      :     0.987414  p :     2.776363
      px      :     0.930519
      py      :     0.858430
      dz2     :     0.002500  d :     0.034920
      dxz     :     0.005521
      dyz     :     0.003216
      dx2y2   :     0.011188
      dxy     :     0.012495

  5 C s       :     3.149642  s :     3.149642
      pz      :     0.995014  p :     2.785392
      px      :     0.828387
      py      :     0.961990
      dz2     :     0.002523  d :     0.034718
      dxz     :     0.002224
      dyz     :     0.006249
      dx2y2   :     0.013339
      dxy     :     0.010384

  6 H s       :     1.009373  s :     1.009373
      pz      :     0.005020  p :     0.023705
      px      :     0.006645
      py      :     0.012040

  7 H s       :     1.030134  s :     1.030134
      pz      :     0.005220  p :     0.023698
      px      :     0.006194
      py      :     0.012285

  8 H s       :     1.020176  s :     1.020176
      pz      :     0.005235  p :     0.023781
      px      :     0.006487
      py      :     0.012059

  9 H s       :     1.009056  s :     1.009056
      pz      :     0.005078  p :     0.023752
      px      :     0.006386
      py      :     0.012287

 10 H s       :     1.007188  s :     1.007188
      pz      :     0.005115  p :     0.023732
      px      :     0.015033
      py      :     0.003584

 11 C s       :     2.942953  s :     2.942953
      pz      :     0.963230  p :     2.855635
      px      :     0.940314
      py      :     0.952092
      dz2     :     0.006939  d :     0.034295
      dxz     :     0.006780
      dyz     :     0.007170
      dx2y2   :     0.008111
      dxy     :     0.005296

 12 C s       :     3.028292  s :     3.028292
      pz      :     1.012343  p :     2.890080
      px      :     0.888515
      py      :     0.989221
      dz2     :     0.011603  d :     0.057706
      dxz     :     0.007455
      dyz     :     0.013387
      dx2y2   :     0.016278
      dxy     :     0.008983

 13 H s       :     0.994896  s :     0.994896
      pz      :     0.006711  p :     0.023876
      px      :     0.005433
      py      :     0.011732

 14 H s       :     0.969549  s :     0.969549
      pz      :     0.007103  p :     0.024059
      px      :     0.006064
      py      :     0.010891

 15 H s       :     0.959804  s :     0.959804
      pz      :     0.005598  p :     0.021790
      px      :     0.005251
      py      :     0.010941

 16 C s       :     3.107795  s :     3.107795
      pz      :     0.794700  p :     2.599122
      px      :     1.004044
      py      :     0.800377
      dz2     :     0.031559  d :     0.110115
      dxz     :     0.030333
      dyz     :     0.019737
      dx2y2   :     0.014833
      dxy     :     0.013653

 17 O s       :     3.781246  s :     3.781246
      pz      :     1.395710  p :     4.451594
      px      :     1.667597
      py      :     1.388287
      dz2     :     0.004262  d :     0.016013
      dxz     :     0.004366
      dyz     :     0.003701
      dx2y2   :     0.001601
      dxy     :     0.002083

 18 O s       :     3.706382  s :     3.706382
      pz      :     1.569979  p :     4.520697
      px      :     1.307039
      py      :     1.643679
      dz2     :     0.003001  d :     0.011415
      dxz     :     0.001269
      dyz     :     0.002558
      dx2y2   :     0.001264
      dxy     :     0.003322

 19 H s       :     0.744276  s :     0.744276
      pz      :     0.015095  p :     0.067090
      px      :     0.031905
      py      :     0.020090

 20 N s       :     3.384581  s :     3.384581
      pz      :     1.042933  p :     3.771080
      px      :     1.701125
      py      :     1.027021
      dz2     :     0.003907  d :     0.019544
      dxz     :     0.004711
      dyz     :     0.003447
      dx2y2   :     0.002670
      dxy     :     0.004809

 21 H s       :     0.859393  s :     0.859393
      pz      :     0.022628  p :     0.046754
      px      :     0.015367
      py      :     0.008759

 22 H s       :     0.866043  s :     0.866043
      pz      :     0.012066  p :     0.046956
      px      :     0.015460
      py      :     0.019429



                     *******************************
                     * LOEWDIN POPULATION ANALYSIS *
                     *******************************

----------------------
LOEWDIN ATOMIC CHARGES
----------------------
   0 C :   -0.019694
   1 C :   -0.014040
   2 C :   -0.010669
   3 C :   -0.029208
   4 C :   -0.020696
   5 C :   -0.026732
   6 H :    0.020312
   7 H :    0.015333
   8 H :    0.017499
   9 H :    0.020194
  10 H :    0.020027
  11 C :   -0.002361
  12 C :    0.008097
  13 H :    0.022310
  14 H :    0.029304
  15 H :    0.034208
  16 C :    0.130088
  17 O :   -0.202617
  18 O :   -0.098150
  19 H :    0.090698
  20 N :   -0.078887
  21 H :    0.048740
  22 H :    0.046244

-------------------------------
LOEWDIN REDUCED ORBITAL CHARGES
-------------------------------
  0 C s       :     2.857855  s :     2.857855
      pz      :     0.967481  p :     3.071605
      px      :     1.058223
      py      :     1.045902
      dz2     :     0.006180  d :     0.090235
      dxz     :     0.011231
      dyz     :     0.006445
      dx2y2   :     0.031458
      dxy     :     0.034921

  1 C s       :     2.857423  s :     2.857423
      pz      :     0.970058  p :     3.066146
      px      :     1.055276
      py      :     1.040812
      dz2     :     0.006422  d :     0.090471
      dxz     :     0.010924
      dyz     :     0.006133
      dx2y2   :     0.031782
      dxy     :     0.035210

  2 C s       :     2.859601  s :     2.859601
      pz      :     0.946040  p :     3.047561
      px      :     1.020227
      py      :     1.081294
      dz2     :     0.007240  d :     0.103507
      dxz     :     0.009505
      dyz     :     0.013689
      dx2y2   :     0.037306
      dxy     :     0.035767

  3 C s       :     2.856404  s :     2.856404
      pz      :     0.987372  p :     3.082317
      px      :     1.053758
      py      :     1.041188
      dz2     :     0.006208  d :     0.090487
      dxz     :     0.010978
      dyz     :     0.006375
      dx2y2   :     0.031278
      dxy     :     0.035648

  4 C s       :     2.857767  s :     2.857767
      pz      :     0.968563  p :     3.072489
      px      :     1.058240
      py      :     1.045686
      dz2     :     0.006145  d :     0.090440
      dxz     :     0.011717
      dyz     :     0.006221
      dx2y2   :     0.031838
      dxy     :     0.034518

  5 C s       :     2.857565  s :     2.857565
      pz      :     0.976438  p :     3.079155
      px      :     1.038652
      py      :     1.064065
      dz2     :     0.006189  d :     0.090012
      dxz     :     0.003867
      dyz     :     0.013454
      dx2y2   :     0.036350
      dxy     :     0.030153

  6 H s       :     0.909189  s :     0.909189
      pz      :     0.015505  p :     0.070499
      px      :     0.020268
      py      :     0.034725

  7 H s       :     0.914144  s :     0.914144
      pz      :     0.015642  p :     0.070524
      px      :     0.019356
      py      :     0.035525

  8 H s       :     0.911470  s :     0.911470
      pz      :     0.016145  p :     0.071031
      px      :     0.020009
      py      :     0.034878

  9 H s       :     0.909281  s :     0.909281
      pz      :     0.015559  p :     0.070525
      px      :     0.019577
      py      :     0.035389

 10 H s       :     0.909339  s :     0.909339
      pz      :     0.015713  p :     0.070633
      px      :     0.042659
      py      :     0.012261

 11 C s       :     2.827160  s :     2.827160
      pz      :     1.008680  p :     3.087783
      px      :     1.010040
      py      :     1.069063
      dz2     :     0.019014  d :     0.087418
      dxz     :     0.016157
      dyz     :     0.017834
      dx2y2   :     0.022042
      dxy     :     0.012371

 12 C s       :     2.847710  s :     2.847710
      pz      :     1.028626  p :     3.013270
      px      :     0.985957
      py      :     0.998687
      dz2     :     0.026886  d :     0.130923
      dxz     :     0.016895
      dyz     :     0.027841
      dx2y2   :     0.039701
      dxy     :     0.019600

 13 H s       :     0.907202  s :     0.907202
      pz      :     0.019827  p :     0.070488
      px      :     0.017018
      py      :     0.033643

 14 H s       :     0.898829  s :     0.898829
      pz      :     0.021794  p :     0.071866
      px      :     0.018412
      py      :     0.031660

 15 H s       :     0.894761  s :     0.894761
      pz      :     0.019896  p :     0.071032
      px      :     0.016883
      py      :     0.034253

 16 C s       :     2.909564  s :     2.909564
      pz      :     0.890578  p :     2.723997
      px      :     1.021512
      py      :     0.811906
      dz2     :     0.069334  d :     0.236351
      dxz     :     0.065670
      dyz     :     0.042828
      dx2y2   :     0.030861
      dxy     :     0.027659

 17 O s       :     3.587401  s :     3.587401
      pz      :     1.485088  p :     4.587784
      px      :     1.696636
      py      :     1.406060
      dz2     :     0.006558  d :     0.027432
      dxz     :     0.008803
      dyz     :     0.006497
      dx2y2   :     0.002196
      dxy     :     0.003378

 18 O s       :     3.453824  s :     3.453824
      pz      :     1.583961  p :     4.621987
      px      :     1.382191
      py      :     1.655835
      dz2     :     0.005653  d :     0.022339
      dxz     :     0.003290
      dyz     :     0.004114
      dx2y2   :     0.002326
      dxy     :     0.006957

 19 H s       :     0.729095  s :     0.729095
      pz      :     0.040436  p :     0.180207
      px      :     0.084061
      py      :     0.055710

 20 N s       :     3.111664  s :     3.111664
      pz      :     1.135433  p :     3.923010
      px      :     1.669563
      py      :     1.118014
      dz2     :     0.010657  d :     0.044214
      dxz     :     0.008330
      dyz     :     0.011004
      dx2y2   :     0.005319
      dxy     :     0.008904

 21 H s       :     0.823603  s :     0.823603
      pz      :     0.060697  p :     0.127657
      px      :     0.047477
      py      :     0.019483

 22 H s       :     0.826367  s :     0.826367
      pz      :     0.026755  p :     0.127389
      px      :     0.048084
      py      :     0.052550



                      *****************************
                      * MAYER POPULATION ANALYSIS *
                      *****************************

  NA   - Mulliken gross atomic population
  ZA   - Total nuclear charge
  QA   - Mulliken gross atomic charge
  VA   - Mayer's total valence
  BVA  - Mayer's bonded valence
  FA   - Mayer's free valence

  ATOM       NA         ZA         QA         VA         BVA        FA
  0 C      5.9741     6.0000     0.0259     3.8528     3.8528    -0.0000
  1 C      5.9648     6.0000     0.0352     3.8893     3.8893    -0.0000
  2 C      6.0144     6.0000    -0.0144     3.9444     3.9444    -0.0000
  3 C      6.0025     6.0000    -0.0025     3.8506     3.8506     0.0000
  4 C      5.9668     6.0000     0.0332     3.8453     3.8453    -0.0000
  5 C      5.9698     6.0000     0.0302     3.8341     3.8341    -0.0000
  6 H      1.0331     1.0000    -0.0331     0.9761     0.9761     0.0000
  7 H      1.0538     1.0000    -0.0538     0.9928     0.9928    -0.0000
  8 H      1.0440     1.0000    -0.0440     0.9844     0.9844     0.0000
  9 H      1.0328     1.0000    -0.0328     0.9761     0.9761    -0.0000
 10 H      1.0309     1.0000    -0.0309     0.9764     0.9764    -0.0000
 11 C      5.8329     6.0000     0.1671     3.9716     3.9716    -0.0000
 12 C      5.9761     6.0000     0.0239     3.9887     3.9887    -0.0000
 13 H      1.0188     1.0000    -0.0188     0.9959     0.9959    -0.0000
 14 H      0.9936     1.0000     0.0064     1.0103     1.0103    -0.0000
 15 H      0.9816     1.0000     0.0184     0.9919     0.9919    -0.0000
 16 C      5.8170     6.0000     0.1830     4.2079     4.2079    -0.0000
 17 O      8.2489     8.0000    -0.2489     2.2147     2.2147     0.0000
 18 O      8.2385     8.0000    -0.2385     2.1919     2.1919    -0.0000
 19 H      0.8114     1.0000     0.1886     1.0227     1.0227     0.0000
 20 N      7.1752     7.0000    -0.1752     3.1030     3.1030    -0.0000
 21 H      0.9061     1.0000     0.0939     1.0187     1.0187     0.0000
 22 H      0.9130     1.0000     0.0870     1.0070     1.0070    -0.0000

  Mayer bond orders larger than 0.100000
B(  0-C ,  1-C ) :   1.3862 B(  0-C ,  5-C ) :   1.3826 B(  0-C ,  6-H ) :   0.9858 
B(  1-C ,  2-C ) :   1.3978 B(  1-C ,  7-H ) :   0.9832 B(  2-C ,  3-C ) :   1.3970 
B(  2-C , 11-C ) :   1.0304 B(  3-C ,  4-C ) :   1.3748 B(  3-C ,  8-H ) :   0.9873 
B(  4-C ,  5-C ) :   1.3907 B(  4-C ,  9-H ) :   0.9861 B(  5-C , 10-H ) :   0.9878 
B( 11-C , 12-C ) :   1.0693 B( 11-C , 13-H ) :   0.9212 B( 11-C , 14-H ) :   0.9154 
B( 12-C , 15-H ) :   0.8939 B( 12-C , 16-C ) :   0.9151 B( 12-C , 20-N ) :   1.0815 
B( 16-C , 17-O ) :   2.0501 B( 16-C , 18-O ) :   1.1570 B( 18-O , 19-H ) :   0.9491 
B( 20-N , 21-H ) :   0.9696 B( 20-N , 22-H ) :   0.9731 

-------
TIMINGS
-------

Total SCF time: 0 days 0 hours 1 min 12 sec 

Total time                  ....      72.035 sec
Sum of individual times     ....      71.935 sec  ( 99.9%)

SCF preparation             ....       0.163 sec  (  0.2%)
Fock matrix formation       ....      71.517 sec  ( 99.3%)
  Startup                   ....       0.009 sec  (  0.0% of F)
  Split-RI-J                ....       7.211 sec  ( 10.1% of F)
  Chain of spheres X        ....      53.565 sec  ( 74.9% of F)
  XC integration            ....      10.600 sec  ( 14.8% of F)
    XC Preparation          ....       0.000 sec  (  0.0% of XC)
    Basis function eval.    ....       4.563 sec  ( 43.1% of XC)
    Density eval.           ....       2.243 sec  ( 21.2% of XC)
    XC-Functional eval.     ....       0.866 sec  (  8.2% of XC)
    XC-Potential eval.      ....       2.512 sec  ( 23.7% of XC)
Diagonalization             ....       0.000 sec  (  0.0%)
Density matrix formation    ....       0.045 sec  (  0.1%)
Total Energy calculation    ....       0.006 sec  (  0.0%)
Population analysis         ....       0.011 sec  (  0.0%)
Orbital Transformation      ....       0.021 sec  (  0.0%)
Orbital Orthonormalization  ....       0.000 sec  (  0.0%)
DIIS solution               ....       0.093 sec  (  0.1%)
SOSCF solution              ....       0.078 sec  (  0.1%)
Finished LeanSCF after  72.1 sec

Maximum memory used throughout the entire LEANSCF-calculation: 27.8 MB

-------------------------   --------------------
FINAL SINGLE POINT ENERGY      -554.042597555919
-------------------------   --------------------

------------------------------------------------------------------------------
                         ORCA SCF GRADIENT CALCULATION
------------------------------------------------------------------------------

Nuc. rep. gradient        (SHARK) ... done (  0.0 sec)
HCore & Overlap gradient  (SHARK) ... done (  0.6 sec)
Split-RIJ-J gradient      (SHARK) ... done (  2.6 sec)
COSX-gradient                     ... done ( 36.4 sec)
XC gradient                       ... done (  6.3 sec)

------------------
CARTESIAN GRADIENT
------------------

   1   C   :   -0.011169141   -0.016285872   -0.000828561
   2   C   :    0.016012953   -0.017311155   -0.001521430
   3   C   :   -0.017479525    0.000936944   -0.005547657
   4   C   :    0.014298888    0.017769819    0.001110382
   5   C   :   -0.008670953    0.016761113    0.001671174
   6   C   :   -0.018119559   -0.000478184    0.000260171
   7   H   :    0.008709142    0.014624664    0.000638217
   8   H   :   -0.007737051    0.013920075    0.000648139
   9   H   :   -0.009074569   -0.014887237   -0.001330485
  10   H   :    0.008334171   -0.014869070   -0.000983056
  11   H   :    0.016978136   -0.000268759   -0.000244557
  12   C   :    0.034851936   -0.008895135    0.023876217
  13   C   :   -0.021408802    0.053121385    0.001602729
  14   H   :   -0.009578590    0.016845375   -0.009797279
  15   H   :   -0.009908693   -0.013468604   -0.010623889
  16   H   :    0.004914256   -0.019782277    0.011359967
  17   C   :   -0.067756463   -0.034322794   -0.044295927
  18   O   :    0.032132722    0.028951172    0.063700475
  19   O   :    0.052506753   -0.013780737   -0.024697319
  20   H   :   -0.010779641   -0.003166134   -0.009952567
  21   N   :    0.015839189   -0.024852481   -0.007051724
  22   H   :   -0.005979789    0.003785277    0.015597711
  23   H   :   -0.006915368    0.015652614   -0.003590730

Difference to translation invariance:
           :   -0.0000000000    0.0000000000    0.0000000001

Difference to rotation invariance:
           :   -0.0000567980   -0.0002582624   -0.0001724473

Norm of the Cartesian gradient     ...    0.1715786223
RMS gradient                       ...    0.0206556388
MAX gradient                       ...    0.0677564629

-------
TIMINGS
-------

Total SCF gradient time     ....       45.879 sec

Densities                   ....       0.002 sec  (  0.0%)
One electron gradient       ....       0.608 sec  (  1.3%)
RI-J Coulomb gradient       ....       2.552 sec  (  5.6%)
COSX gradient               ....      36.381 sec  ( 79.3%)
XC gradient                 ....       6.335 sec  ( 13.8%)

Maximum memory used throughout the entire SCFGRAD-calculation: 32.1 MB
------------------------------------------------------------------------------
                         ORCA GEOMETRY RELAXATION STEP
------------------------------------------------------------------------------

Reading the OPT-File                    .... done
Getting information on internals        .... done
Copying old internal coords+grads       .... done
Making the new internal coordinates     .... (2022 redundants) done
Validating the new internal coordinates .... (2022 redundants) done
Calculating the B-matrix                .... done
Calculating the G,G- and P matrices     .... done
Transforming gradient to internals      .... done
Projecting the internal gradient        .... done
Number of atoms                         ....  23
Number of internal coordinates          .... 108
Current Energy                          ....  -554.042597556 Eh
Current gradient norm                   ....     0.171578622 Eh/bohr
Maximum allowed component of the step   ....  0.300
Current trust radius                    ....  0.300
Evaluating the initial hessian          ....  (Almloef) done
Projecting the Hessian                  .... done
Forming the augmented Hessian           .... done
Diagonalizing the augmented Hessian     .... done
Last element of RFO vector              ....  0.946541335
Lowest eigenvalues of augmented Hessian:
 -0.029805065  0.009751603  0.009873373  0.011776293  0.014837116
Length of the computed step             ....  0.340801334
Warning: the length of the step is outside the trust region - taking restricted step instead
The input lambda is                     ....     0.008750
   iter:   5  x=   -0.014023  g=   26.062568 f(x)=     0.247176
   iter:  10  x=   -0.043226  g=    1.405106 f(x)=     0.000019
The output lambda is                    ....    -0.043226 (12 iterations)
The final length of the internal step   ....  0.300000000
Converting the step to Cartesian space:
 Initial RMS(Int)=    0.0288675135
Transforming coordinates:
 Iter   0:  RMS(Cart)=    0.0559123946 RMS(Int)=    1.3501536096
 Iter   5:  RMS(Cart)=    0.0000003187 RMS(Int)=    0.0000002364
Imposing constraints:
 Iter   0:  RMS(Cart)=    0.0002118248 RMS(Int)=    0.0003306161
 Iter   5:  RMS(Cart)=    0.0000159419 RMS(Int)=    0.0000248839
 Iter  10:  RMS(Cart)=    0.0000012000 RMS(Int)=    0.0000018731
 Iter  15:  RMS(Cart)=    0.0000000903 RMS(Int)=    0.0000001410
CONVERGED
done
Storing new coordinates                 .... done

                                .--------------------.
          ----------------------|Geometry convergence|-------------------------
          Item                value                   Tolerance       Converged
          ---------------------------------------------------------------------
          RMS gradient        0.0117099308            0.0001000000      NO
          MAX gradient        0.0757040631            0.0003000000      NO
          RMS step            0.0288675135            0.0020000000      NO
          MAX step            0.1355403146            0.0040000000      NO
          ........................................................
          Max(Bonds)      0.0543      Max(Angles)    3.84
          Max(Dihed)        7.77      Max(Improp)    0.00
          ---------------------------------------------------------------------

The optimization has not yet converged - more geometry cycles are needed


    ---------------------------------------------------------------------------
                         Redundant Internal Coordinates
                            (Angstroem and degrees)

        Definition                    Value    dE/dq     Step     New-Value
    ----------------------------------------------------------------------------
     1. B(C   1,C   0)                1.4014  0.002532 -0.0021    1.3993   
     2. B(C   2,C   1)                1.4014 -0.000830  0.0009    1.4023   
     3. B(C   3,C   2)                1.4014 -0.000848  0.0004    1.4018   
     4. B(C   4,C   3)                1.4014  0.001399 -0.0011    1.4003   
     5. B(C   5,C   0)                1.4014  0.002333 -0.0021    1.3993   
     6. B(C   5,C   4)                1.4014  0.003462 -0.0031    1.3983   
     7. B(H   6,C   0)                1.0700 -0.017033  0.0209    1.0909   
     8. B(H   7,C   1)                1.0700 -0.015937  0.0196    1.0896   
     9. B(H   8,C   3)                1.0700 -0.017474  0.0215    1.0915   
    10. B(H   9,C   4)                1.0700 -0.017074  0.0210    1.0910   
    11. B(H  10,C   5)                1.0700 -0.016982  0.0209    1.0909   
    12. B(C  11,C   2)                1.5400  0.008160 -0.0097    1.5303   
    13. B(C  12,C  11)                1.5400 -0.004683  0.0062    1.5462   
    14. B(H  13,C  11)                1.0700 -0.021687  0.0261    1.0961   
    15. B(H  14,C  11)                1.0700 -0.019457  0.0239    1.0939   
    16. B(H  15,C  12)                1.0700 -0.023140  0.0284    1.0984   
    17. B(C  16,C  12)                1.5400  0.006764 -0.0079    1.5321   
    18. B(O  17,C  16)                1.2584  0.076190 -0.0429    1.2155   
    19. B(O  18,C  16)                1.4300  0.054057 -0.0543    1.3757   
    20. B(H  19,O  18)                0.9600 -0.009806  0.0092    0.9692   
    21. B(N  20,C  12)                1.4700  0.000715 -0.0008    1.4692   
    22. B(H  21,N  20)                1.0000 -0.016516  0.0178    1.0178   
    23. B(H  22,N  20)                1.0000 -0.016988  0.0183    1.0183   
    24. A(C   5,C   0,H   6)          120.00  0.000489   -0.05    119.95   
    25. A(C   1,C   0,C   5)          120.00 -0.000988    0.11    120.11   
    26. A(C   1,C   0,H   6)          120.00  0.000499   -0.05    119.95   
    27. A(C   0,C   1,C   2)          120.00 -0.002600    0.38    120.38   
    28. A(C   2,C   1,H   7)          120.00  0.001246   -0.18    119.82   
    29. A(C   0,C   1,H   7)          120.00  0.001354   -0.20    119.80   
    30. A(C   1,C   2,C  11)          120.00 -0.006840    0.69    120.69   
    31. A(C   1,C   2,C   3)          120.00  0.005768   -0.77    119.23   
[...]
      pz      :     1.457204  p :     4.491073
      px      :     1.274523
      py      :     1.759346
      dz2     :     0.005854  d :     0.013429
      dxz     :     0.002379
      dyz     :     0.002499
      dx2y2   :     0.002240
      dxy     :     0.000457

 19 H s       :     0.755210  s :     0.755210
      pz      :     0.012803  p :     0.065660
      px      :     0.036476
      py      :     0.016382

 20 N s       :     3.419182  s :     3.419182
      pz      :     1.048420  p :     3.751288
      px      :     1.640041
      py      :     1.062827
      dz2     :     0.003890  d :     0.019290
      dxz     :     0.004413
      dyz     :     0.003194
      dx2y2   :     0.002964
      dxy     :     0.004828

 21 H s       :     0.853990  s :     0.853990
      pz      :     0.022867  p :     0.045061
      px      :     0.014086
      py      :     0.008108

 22 H s       :     0.860554  s :     0.860554
      pz      :     0.013651  p :     0.045335
      px      :     0.016244
      py      :     0.015439



                     *******************************
                     * LOEWDIN POPULATION ANALYSIS *
                     *******************************

----------------------
LOEWDIN ATOMIC CHARGES
----------------------
   0 C :   -0.026741
   1 C :   -0.018453
   2 C :   -0.021578
   3 C :   -0.031472
   4 C :   -0.028455
   5 C :   -0.031338
   6 H :    0.025100
   7 H :    0.021343
   8 H :    0.021760
   9 H :    0.025131
  10 H :    0.024636
  11 C :   -0.015762
  12 C :   -0.004356
  13 H :    0.031031
  14 H :    0.031282
  15 H :    0.034453
  16 C :    0.065292
  17 O :   -0.177927
  18 O :   -0.049979
  19 H :    0.094291
  20 N :   -0.082746
  21 H :    0.059006
  22 H :    0.055483

-------------------------------
LOEWDIN REDUCED ORBITAL CHARGES
-------------------------------
  0 C s       :     2.863140  s :     2.863140
      pz      :     0.972359  p :     3.073333
      px      :     1.059860
      py      :     1.041114
      dz2     :     0.006355  d :     0.090268
      dxz     :     0.011799
      dyz     :     0.007423
      dx2y2   :     0.030255
      dxy     :     0.034437

  1 C s       :     2.863731  s :     2.863731
      pz      :     0.968281  p :     3.065730
      px      :     1.055566
      py      :     1.041883
      dz2     :     0.006216  d :     0.088993
      dxz     :     0.012202
      dyz     :     0.006545
      dx2y2   :     0.030849
      dxy     :     0.033180

  2 C s       :     2.857204  s :     2.857204
      pz      :     0.956983  p :     3.059178
      px      :     1.027036
      py      :     1.075159
      dz2     :     0.007789  d :     0.105197
      dxz     :     0.011197
      dyz     :     0.013440
      dx2y2   :     0.036574
      dxy     :     0.036196

  3 C s       :     2.864073  s :     2.864073
      pz      :     0.988431  p :     3.077759
      px      :     1.053871
      py      :     1.035457
      dz2     :     0.006347  d :     0.089640
      dxz     :     0.011756
      dyz     :     0.007188
      dx2y2   :     0.029831
      dxy     :     0.034519

  4 C s       :     2.862916  s :     2.862916
      pz      :     0.974364  p :     3.075367
      px      :     1.061504
      py      :     1.039499
      dz2     :     0.006166  d :     0.090172
      dxz     :     0.012886
      dyz     :     0.006751
      dx2y2   :     0.031586
      dxy     :     0.032784

  5 C s       :     2.863154  s :     2.863154
      pz      :     0.978866  p :     3.078205
      px      :     1.034771
      py      :     1.064568
      dz2     :     0.006805  d :     0.089979
      dxz     :     0.004958
      dyz     :     0.013896
      dx2y2   :     0.034703
      dxy     :     0.029617

  6 H s       :     0.908695  s :     0.908695
      pz      :     0.014681  p :     0.066206
      px      :     0.019720
      py      :     0.031805

  7 H s       :     0.909752  s :     0.909752
      pz      :     0.015711  p :     0.068905
      px      :     0.018117
      py      :     0.035077

  8 H s       :     0.911585  s :     0.911585
      pz      :     0.015197  p :     0.066654
      px      :     0.019586
      py      :     0.031871

  9 H s       :     0.908583  s :     0.908583
      pz      :     0.015087  p :     0.066286
      px      :     0.016921
      py      :     0.034278

 10 H s       :     0.908936  s :     0.908936
      pz      :     0.014160  p :     0.066428
      px      :     0.041160
      py      :     0.011108

 11 C s       :     2.836620  s :     2.836620
      pz      :     1.017749  p :     3.092111
      px      :     1.013780
      py      :     1.060582
      dz2     :     0.017785  d :     0.087031
      dxz     :     0.018394
      dyz     :     0.016600
      dx2y2   :     0.020621
      dxy     :     0.013632

 12 C s       :     2.852924  s :     2.852924
      pz      :     1.046927  p :     3.021048
      px      :     1.017052
      py      :     0.957069
      dz2     :     0.026240  d :     0.130385
      dxz     :     0.015795
      dyz     :     0.026855
      dx2y2   :     0.032945
      dxy     :     0.028550

 13 H s       :     0.903735  s :     0.903735
      pz      :     0.022488  p :     0.065233
      px      :     0.015708
      py      :     0.027038

 14 H s       :     0.902723  s :     0.902723
      pz      :     0.017096  p :     0.065995
      px      :     0.016636
      py      :     0.032263

 15 H s       :     0.899729  s :     0.899729
      pz      :     0.024407  p :     0.065818
      px      :     0.019641
      py      :     0.021770

 16 C s       :     2.863882  s :     2.863882
      pz      :     0.939539  p :     2.783756
      px      :     1.041816
      py      :     0.802401
      dz2     :     0.111492  d :     0.287070
      dxz     :     0.077386
      dyz     :     0.051642
      dx2y2   :     0.026737
      dxy     :     0.019812

 17 O s       :     3.545459  s :     3.545459
      pz      :     1.571805  p :     4.600570
      px      :     1.633344
      py      :     1.395421
      dz2     :     0.008107  d :     0.031898
      dxz     :     0.012923
      dyz     :     0.004939
      dx2y2   :     0.003221
      dxy     :     0.002709

 18 O s       :     3.432873  s :     3.432873
      pz      :     1.514428  p :     4.590349
      px      :     1.353281
      py      :     1.722641
      dz2     :     0.011749  d :     0.026757
      dxz     :     0.005052
      dyz     :     0.003153
      dx2y2   :     0.005858
      dxy     :     0.000945

 19 H s       :     0.732989  s :     0.732989
      pz      :     0.033356  p :     0.172720
      px      :     0.093907
      py      :     0.045458

 20 N s       :     3.134642  s :     3.134642
      pz      :     1.143532  p :     3.904676
      px      :     1.626160
      py      :     1.134984
      dz2     :     0.010617  d :     0.043427
      dxz     :     0.007892
      dyz     :     0.009726
      dx2y2   :     0.005936
      dxy     :     0.009256

 21 H s       :     0.820399  s :     0.820399
      pz      :     0.059643  p :     0.120594
      px      :     0.041365
      py      :     0.019587

 22 H s       :     0.824397  s :     0.824397
      pz      :     0.030032  p :     0.120119
      px      :     0.050219
      py      :     0.039868



                      *****************************
                      * MAYER POPULATION ANALYSIS *
                      *****************************

  NA   - Mulliken gross atomic population
  ZA   - Total nuclear charge
  QA   - Mulliken gross atomic charge
  VA   - Mayer's total valence
  BVA  - Mayer's bonded valence
  FA   - Mayer's free valence

  ATOM       NA         ZA         QA         VA         BVA        FA
  0 C      5.9807     6.0000     0.0193     3.8327     3.8327     0.0000
  1 C      5.9865     6.0000     0.0135     3.8492     3.8492     0.0000
  2 C      6.0284     6.0000    -0.0284     3.9694     3.9694     0.0000
  3 C      6.0164     6.0000    -0.0164     3.8564     3.8564     0.0000
  4 C      5.9796     6.0000     0.0204     3.8414     3.8414     0.0000
  5 C      5.9799     6.0000     0.0201     3.8288     3.8288     0.0000
  6 H      1.0219     1.0000    -0.0219     0.9767     0.9767     0.0000
  7 H      1.0340     1.0000    -0.0340     1.0181     1.0181     0.0000
  8 H      1.0331     1.0000    -0.0331     0.9850     0.9850     0.0000
  9 H      1.0223     1.0000    -0.0223     0.9765     0.9765     0.0000
 10 H      1.0206     1.0000    -0.0206     0.9769     0.9769     0.0000
 11 C      5.8401     6.0000     0.1599     3.9103     3.9103     0.0000
 12 C      5.9745     6.0000     0.0255     3.9539     3.9539    -0.0000
 13 H      0.9983     1.0000     0.0017     0.9956     0.9956    -0.0000
 14 H      1.0003     1.0000    -0.0003     1.0063     1.0063     0.0000
 15 H      0.9825     1.0000     0.0175     0.9912     0.9912     0.0000
 16 C      5.8815     6.0000     0.1185     4.3248     4.3248    -0.0000
 17 O      8.2156     8.0000    -0.2156     2.2719     2.2719    -0.0000
 18 O      8.1880     8.0000    -0.1880     2.2412     2.2412     0.0000
 19 H      0.8209     1.0000     0.1791     1.0358     1.0358     0.0000
 20 N      7.1898     7.0000    -0.1898     3.1219     3.1219    -0.0000
 21 H      0.8991     1.0000     0.1009     1.0065     1.0065     0.0000
 22 H      0.9059     1.0000     0.0941     0.9995     0.9995    -0.0000

  Mayer bond orders larger than 0.100000
B(  0-C ,  1-C ) :   1.3832 B(  0-C ,  5-C ) :   1.3774 B(  0-C ,  6-H ) :   0.9825 
B(  1-C ,  2-C ) :   1.3926 B(  1-C ,  7-H ) :   0.9781 B(  2-C ,  3-C ) :   1.3983 
B(  2-C , 11-C ) :   1.0388 B(  3-C ,  4-C ) :   1.3782 B(  3-C ,  8-H ) :   0.9824 
B(  4-C ,  5-C ) :   1.3895 B(  4-C ,  9-H ) :   0.9819 B(  5-C , 10-H ) :   0.9843 
B( 11-C , 12-C ) :   1.0423 B( 11-C , 13-H ) :   0.9065 B( 11-C , 14-H ) :   0.9234 
B( 12-C , 15-H ) :   0.9027 B( 12-C , 16-C ) :   0.9027 B( 12-C , 20-N ) :   1.0735 
B( 16-C , 17-O ) :   2.0998 B( 16-C , 18-O ) :   1.2301 B( 18-O , 19-H ) :   0.9455 
B( 20-N , 21-H ) :   0.9638 B( 20-N , 22-H ) :   0.9649 

-------
TIMINGS
-------

Total SCF time: 0 days 0 hours 0 min 33 sec 

Total time                  ....      33.353 sec
Sum of individual times     ....      33.266 sec  ( 99.7%)

SCF preparation             ....       0.175 sec  (  0.5%)
Fock matrix formation       ....      32.986 sec  ( 98.9%)
  Startup                   ....       0.007 sec  (  0.0% of F)
  Split-RI-J                ....       2.371 sec  (  7.2% of F)
  Chain of spheres X        ....      27.480 sec  ( 83.3% of F)
  XC integration            ....       3.088 sec  (  9.4% of F)
    XC Preparation          ....       0.000 sec  (  0.0% of XC)
    Basis function eval.    ....       1.296 sec  ( 42.0% of XC)
    Density eval.           ....       0.683 sec  ( 22.1% of XC)
    XC-Functional eval.     ....       0.248 sec  (  8.0% of XC)
    XC-Potential eval.      ....       0.759 sec  ( 24.6% of XC)
Diagonalization             ....       0.000 sec  (  0.0%)
Density matrix formation    ....       0.012 sec  (  0.0%)
Total Energy calculation    ....       0.003 sec  (  0.0%)
Population analysis         ....       0.031 sec  (  0.1%)
Orbital Transformation      ....       0.011 sec  (  0.0%)
Orbital Orthonormalization  ....       0.000 sec  (  0.0%)
DIIS solution               ....       0.013 sec  (  0.0%)
SOSCF solution              ....       0.034 sec  (  0.1%)
Finished LeanSCF after  33.4 sec

Maximum memory used throughout the entire LEANSCF-calculation: 29.4 MB

-------------------------   --------------------
FINAL SINGLE POINT ENERGY      -554.068589369285
-------------------------   --------------------

                                *** OPTIMIZATION RUN DONE ***


------------------------------------------------------------------------------
                              ORCA PROPERTY CALCULATIONS
------------------------------------------------------------------------------

GBWName                                 ... input.gbw
Number of atoms                         ...     23
Number of basis functions               ...    223
Max core memory                         ...   1024 MB

Electric properties:
Dipole moment                           ... YES
Quadrupole moment                       ...  NO
Static polarizability (Dipole/Dipole)   ...  NO
Static polarizability (Dipole/Quad.)    ...  NO
Static polarizability (Quad./Quad.)     ...  NO
Static polarizability (Velocity)        ...  NO

Atomic electric properties:
Dipole moment                           ...  NO
Quadrupole moment                       ...  NO
Static polarizability                   ...  NO

Choice of electric origin               ... Center of mass
Position of electric origin             ...     2.054562     4.697659    -1.440348

General magnetic properties:
Magnetizability                         ...  NO

EPR properties:
g-Tensor (aka g-matrix)                 ...  NO
Zero-Field splitting spin-orbit         ...  NO
Zero-field splitting spin-spin          ...  NO
Hyperfine couplings                     ...  NO (   0 nuclei)
Quadrupole couplings                    ...  NO (   0 nuclei)
Contact density                         ...  NO (   0 nuclei)

NMR properties:
Chemical shifts                         ...  NO (   0 nuclei)
Spin-rotation constants                 ...  NO (   0 nuclei)
Spin-spin couplings                     ...  NO (   0 nuclei,    0 pairs)

Choice of magnetic origin               ... GIAO
Position of magnetic origin             ...     0.000000     0.000000     0.000000

Properties with geometric perturbations:
SCF Hessian                             ...  NO
IR spectrum                             ...  NO
VCD spectrum                            ...  NO
X-ray spectroscopy properties:
SCF XES/XAS/RIXS spectra                ...  NO


-------------
DIPOLE MOMENT
-------------

Method             : SCF
Type of density    : Electron Density
Multiplicity       :   1
Irrep              :   0
Energy             :  -554.0685893692849504 Eh
Relativity type    : 
Basis              : AO
                                X                 Y                 Z
Electronic contribution:      4.547340005       1.372510535      -0.766083522
Nuclear contribution   :     -4.169007318      -1.548790630       0.071577178
                        -----------------------------------------
Total Dipole Moment    :      0.378332688      -0.176280095      -0.694506343
                        -----------------------------------------
Magnitude (a.u.)       :      0.810277332
Magnitude (Debye)      :      2.059561303



--------------------
Rotational spectrum 
--------------------
 
Rotational constants in cm-1:             0.080125             0.014714             0.013553 
Rotational constants in MHz :          2402.097500           441.116577           406.300277 

Dipole components along the rotational axes: 
x,y,z [a.u.] :    -0.576366     0.402881    -0.402540 
x,y,z [Debye]:    -1.465005     1.024042    -1.023176 

 

Dipole moment calculation done in   0.0 sec 

Maximum memory used throughout the entire PROP-calculation: 15.5 MB

--------------------------------
SUGGESTED CITATIONS FOR THIS RUN
--------------------------------

Below you find a list of papers that are relevant to this ORCA run
We neither can nor want to force you to cite these papers, but we appreciate if you do
You receive ORCA, which is the product of decades of hard work by many enthusiastic individuals, for free
The only thing we kindly ask in return is that you cite our papers,
We deeply appreciate it, if you show your appreciation for ORCA by not just citing the generic ORCA reference.

Please note that relegating all ORCA citations to the supporting information does *not* help us.
SI sections are not indexed - citations you put there will not count into any citation statistics
But we need these citations in order to attract the funding resources that allow us to do what we are doing

Therefore, if you are a happy ORCA user, please consider citing a few of the papers listed below in the main body of your paper

In addition to the list printed below, the program has created the file input.bibtex that contains the list in bibtex format
You can import this file easily into all common literature databanks and citation aid programs


List of essential papers. We consider these as the minimum necessary citations

  1. Neese,F.
     Software update: the ORCA program system, version 5.0
     WIRES Comput. Molec. Sci., 2022 12(1)e1606
     doi.org/10.1002/wcms.1606

List of papers to cite with high priority. The work reported in these papers was absolutely
necessary for this run to complete.
Our perspective: the developers of density functionals and basis sets usually get cited in chemistry papers
Good! But without the algorithms to do something with them, the functionals or basis sets would not do anything.
Hence, in our opinion, the algorithm design and method developments papers are equally worthy of getting cited

  1. Neese,F.
     An improvement of the resolution of the identity approximation for the formation of the Coulomb matrix
     J. Comp. Chem., 2003 24(14)1740-1747
     doi.org/10.1002/jcc.10318
  2. Neese,F.; Wennmohs,F.; Hansen,A.; Becker,U.
     Efficient, approximate and parallel Hartree-Fock and hybrid DFT calculations. A 'chain-of-spheres' algorithm for the Hartree-Fock exchange
     Chem. Phys., 2009 356(1-3)98-109
     doi.org/10.1016/j.chemphys.2008.10.036
  3. Helmich-Paris,B.; de Souza,B.; Neese,F.; Izsák,R.
     An improved chain of spheres for exchange algorithm
     J. Chem. Phys., 2021 155 104109
     doi.org/doi: 10.1063/5.0058766.
  4. Neese,F.
     The SHARK Integral Generation and Digestion System
     J. Comp. Chem., 2022  1-16
     doi.org/10.1002/jcc.26942

List of suggested additional citations. These are papers that are important in the 'surrounding' of 
of this run, or papers that preceded the highly important papers. If you like your results we are grateful for a citation.

  1. Izsak,R.; Neese,F.
     An overlap fitted chain of spheres exchange method
     J. Chem. Phys., 2011 135 144105
     doi.org/10.1063/1.3646921
  2. Izsak,R.; Hansen,A.; Neese,F.
     The resolution of identity and chain of spheres approximations for the LPNO-CCSD singles Fock term
     Molec. Phys., 2012 110 2413-2417
     doi.org/10.1080/00268976.2012.687466
  3. Neese,F.
     The ORCA program system
     WIRES Comput. Molec. Sci., 2012 2(1)73-78
     doi.org/10.1002/wcms.81
  4. Izsak,R.; Neese,F.; Klopper,W.
     Robust fitting techniques in the chain of spheres approximation to the Fock exchange: The role of the complementary space
     J. Chem. Phys., 2013 139 
     doi.org/10.1063/1.4819264
  5. Neese,F.
     Software update: the ORCA program system, version 4.0
     WIRES Comput. Molec. Sci., 2018 8(1)1-6
     doi.org/10.1002/wcms.1327
  6. Neese,F.; Wennmohs,F.; Becker,U.; Riplinger,C.
     The ORCA quantum chemistry program package
     J. Chem. Phys., 2020 152 Art. No. L224108
     doi.org/10.1063/5.0004608

List of optional additional citations

  1. Neese,F.
     Approximate second-order SCF convergence for spin unrestricted wavefunctions
     Chem. Phys. Lett., 2000 325(1-3)93-98
     doi.org/10.1016/s0009-2614(00)00662-x

Timings for individual modules:

Sum of individual times          ...     1819.271 sec (=  30.321 min)
Startup calculation              ...       58.070 sec (=   0.968 min)   3.2 %
SCF iterations                   ...      989.836 sec (=  16.497 min)  54.4 %
Property calculations            ...        0.156 sec (=   0.003 min)   0.0 %
SCF Gradient evaluation          ...      770.890 sec (=  12.848 min)  42.4 %
Geometry relaxation              ...        0.319 sec (=   0.005 min)   0.0 %
                             ****ORCA TERMINATED NORMALLY****
TOTAL RUN TIME: 0 days 0 hours 30 minutes 21 seconds 817 msec
