
                                 *****************
                                 * O   R   C   A *
                                 *****************

                                            #,                                       
                                            ###                                      
                                            ####                                     
                                            #####                                    
                                            ######                                   
                                           ########,                                 
                                     ,,################,,,,,                         
                               ,,#################################,,                 
                          ,,##########################################,,             
                       ,#########################################, ''#####,          
                    ,#############################################,,   '####,        
                  ,##################################################,,,,####,       
                ,###########''''           ''''###############################       
              ,#####''   ,,,,##########,,,,          '''####'''          '####       
            ,##' ,,,,###########################,,,                        '##       
           ' ,,###''''                  '''############,,,                           
         ,,##''                                '''############,,,,        ,,,,,,###''
      ,#''                                            '''#######################'''  
     '                                                          ''''####''''         
             ,#######,   #######,   ,#######,      ##                                
            ,#'     '#,  ##    ##  ,#'     '#,    #''#        ,####,    ,#,          
            ##       ##  ##   ,#'  ##            #'  '#       #'       ,# #          
            ##       ##  #######   ##           ,######,      #####,      #          
            '#,     ,#'  ##    ##  '#,     ,#' ,#      #,     #,   #      #          
             '#######'   ##     ##  '#######'  #'      '#     '####' #    #          



                #########################################################
                #                        -***-                          #
                #          Department of theory and spectroscopy        #
                #                                                       #
                #                      Frank Neese                      #
                #                                                       #
                #     Directorship, Architecture, Infrastructure        #
                #                    SHARK, DRIVERS                     #
                #        Core code/Algorithms in most modules           #
                #                                                       #
                #        Max Planck Institute fuer Kohlenforschung      #
                #                Kaiser Wilhelm Platz 1                 #
                #                 D-45470 Muelheim/Ruhr                 #
                #                      Germany                          #
                #                                                       #
                #                  All rights reserved                  #
                #                        -***-                          #
                #########################################################


                         Program Version 6.1.0  -  RELEASE   -
                                (GIT: $679e74b$)
                          ($2025-06-10 18:02:51 +0200$)


 With contributions from (in alphabetic order):
[Max-Planck-Institut fuer Kohlenforschung]                               
  Daniel Aravena         : Magnetic Suceptibility                        
  Michael Atanasov       : Ab Initio Ligand Field Theory (pilot matlab implementation)
  Alexander A. Auer      : GIAO ZORA, VPT2 properties, NMR spectrum      
  Ute Becker             : All parallelization in ORCA, NUMFREQ, NUMCALC 
  Giovanni Bistoni       : ED, misc. LED, open-shell LED, HFLD           
  Dmytro Bykov           : pre 5.0 version of the SCF Hessian            
  Marcos Casanova-Páez   : Triplet and SCS-CIS(D). UHF-(DLPNO)-IP/EA/STEOM-CCSD. UHF-CVS-IP/STEOM-CCSD   
  Vijay G. Chilkuri      : MRCI spin determinant printing, contributions to CSF-ICE 
  Pauline Colinet        : FMM embedding                                 
  Dipayan Datta          : RHF DLPNO-CCSD density                        
  Achintya Kumar Dutta   : EOM-CC, STEOM-CC                              
  Nicolas Foglia         : Exact transition moments, OPA infrastructure, MCD improvements    
  Dmitry Ganyushin       : Spin-Orbit,Spin-Spin,Magnetic field MRCI      
  Miquel Garcia-Rates    : C-PCM and meta-GGA Hessian, CCSD/C-PCM, Gaussian charge scheme 
  Tiago L. C. Gouveia    : GS-ROHF, GS-ROCIS                             
  Yang Guo               : DLPNO-NEVPT2, F12-NEVPT2, CIM, IAO-localization        
  Andreas Hansen         : Spin unrestricted coupled pair/coupled cluster methods 
  Ingolf Harden          : AUTO-CI MPn and infrastructure                
  Benjamin Helmich-Paris : MC-RPA, TRAH-(SCF,CASSCF), AVAS, COSX integrals, SCF dyn. polar., MC-PDFT, srDFT 
  Lee Huntington         : MR-EOM, pCC                                   
  Robert Izsak           : Overlap fitted RIJCOSX, COSX-SCS-MP3, EOM     
  Riya Kayal             : Wick's Theorem for AUTO-CI, AUTO-CI UHF-CCSDT 
  Emily Kempfer          : AUTO-CI RHF CISDT and CCSDT, approximate NEVPT4
  Christian Kollmar      : KDIIS, OOCD, Brueckner-CCSD(T), CCSD density, CASPT2, CASPT2-K, improved NEVPT2 
  Axel Koslowski         : Symmetry handling                             
  Simone Kossmann        : meta-GGA functionals, TD-DFT gradient, OOMP2, (MP2 Hessian; deprecated post 5.0) 
  Lucas Lang             : DCDCAS, Hyperfine gauge corrections, ICE-SOC+SSC
  Marvin Lechner         : AUTO-CI (C++ implementation), FIC-MRCC        
  Spencer Leger          : CASSCF response                               
  Dagmar Lenk            : GEPOL surface, SMD, ORCA-2-JSON               
  Dimitrios Liakos       : Extrapolation schemes; Compound Job, Property file
  Dimitrios Manganas     : Further ROCIS development; embedding schemes. LFT, Crystal Embedding 
  Dimitrios Pantazis     : SARC Basis sets                               
  Anastasios Papadopoulos: AUTO-CI, single reference methods and gradients 
  Taras Petrenko         : pre 6.0 DFT Hessian and TD-DFT gradient,  ECA, NRVS 
  Petra Pikulova         : Analytic Raman intensities                    
  Peter Pinski           : DLPNO-MP2, DLPNO-MP2 Gradient                 
  Shashank Vittal Rao    : ES-AILFT, MagRelax                            
  Christoph Reimann      : Effective Core Potentials                     
  Marius Retegan         : Local ZFS, SOC                                
  Christoph Riplinger    : Optimizer, TS searches, QM/MM, DLPNO-CCSD(T), (RO)-DLPNO pert. Triples 
  Michael Roemelt        : Original ROCIS implementation, recursive CI coupling coefficients
  Masaaki Saitow         : Open-shell DLPNO-CCSD energy and density      
  Barbara Sandhoefer     : DKH picture change effects                    
  Yorick L. A. Schmerwitz: GMF and freeze-and-release deltaSCF, NEB S-IDPP initial path                    
  Kantharuban Sivalingam : CASSCF convergence/infrastructure, NEVPT2, NEVPT3, NEVPT4(SD), FIC-MRCI and CEPA variants
  Bernardo de Souza      : ESD, SOC TD-DFT                               
  Georgi L. Stoychev     : AutoAux, RI-MP2 NMR, DLPNO-MP2 response, X2C  
  Van Anh Tran           : RI-MP2 g-tensors                              
  Willem Van den Heuvel  : Paramagnetic NMR                              
  Zikuan Wang            : NOTCH, Electric field optimization            
  Frank Wennmohs         : Technical directorship and infrastructure     
  Hang Xu                : AUTO-CI-Response properties                   
                                                                         
[FACCTs GmbH]                                                            
  Markus Bursch, Nicolas Foglia, Miquel Garcia-Rates, Ingolf Harden, Hagen Neugebauer, Anastasios Papadopoulos, 
  Christoph Riplinger, Bernardo de Souza, Georgi L. Stoychev                                                    
                                                                 
  APM, various basis sets, CI-OPT, improved COSX, DLPNO-Multilevel,           
  DOCKER, DRACO, updates on ESD, Fragmentator, GOAT, IRC, LR-CPCM, L-BFGS, MBIS, meta-GGA TD-DFT gradient, ML-optimized integration grids, 
  MM, NACMEs, nearIR, NEB, NEB-TS, NL-DFT gradient (VV10), 2- and 3-layer-ONIOM, interface openCOSMO-RS, QMMM,   
  Crystal-QMMM, RESP, rigid body optimization, SF, symmetry and pop. for TD-DFT, various functionals, SOLVATOR                                   
                                                                         
[Other institutions]                                                     
  V. Asgeirsson          : NEB                                           
  Christoph Bannwarth    : sTDA-DFT, sTD-DFT, PBEh-3c, B97-3c, D3        
  Giovanni Bistoni       : ETS/NOCV, ADLD/ADEX, COVALED                  
  Martin Brehm           : Molecular dynamics                            
  Ronald Cardenas        : ETS/NOCV                                      
  Martina Colucci        : COVALED                                       
  Sebastian Ehlert       : rSCAN, r2SCAN, r2SCAN-3c, D4, dhf basis sets  
  Marvin Friede          : D4 for Fr, Ra, Ac-Lr                          
  Lars Goerigk           : TD-DFT with DH, B97 family of functionals     
  Stefan Grimme          : VdW corrections, initial TS optimization, DFT functionals, gCP, sTDA/sTD-DF 
  Waldemar Hujo          : DFT-NL                                        
  H. Jonsson             : NEB                                           
  Holger Kruse           : gCP                                           
  Marcel Mueller         : wB97X-3c, vDZP basis set                      
  Hagen Neugebauer       : wr2SCAN, Native XTB                           
  Gianluca Regni         : ADLD/ADEX                                     
  Tobias Risthaus        : pre 6.0 range-separated hybrid DFT and stability analysis
  Lukas Wittmann         : regularized MP2, r2SCAN double-hybrids, wr2SCAN        
                                                                         
We gratefully acknowledge several colleagues who have allowed us to      
interface, adapt or use parts of their codes:                            
  Ed Valeev, F. Pavosevic, A. Kumar             : LibInt (2-el integral package), F12 methods 
  Garnet Chan, S. Sharma, J. Yang, R. Olivares  : DMRG                   
  Ulf Ekstrom                                   : XCFun DFT Library      
  Mihaly Kallay                                 : mrcc  (arbitrary order and MRCC methods)
  Frank Weinhold                                : gennbo (NPA and NBO analysis)           
  Simon Mueller                                 : openCOSMO-RS                            
  Christopher J. Cramer and Donald G. Truhlar   : smd solvation model                     
  S Lehtola, MJT Oliveira, MAL Marques          : LibXC Library                           
  Liviu Ungur et al                             : ANISO software                          


 Your calculation uses the libint2 library for the computation of 2-el integrals
 For citations please refer to: http://libint.valeyev.net

 Your ORCA version has been built with support for libXC version: 7.0.0
 For citations please refer to: https://libxc.gitlab.io

 This ORCA versions uses:
   CBLAS   interface :  Fast vector & matrix operations
   LAPACKE interface :  Fast linear algebra routines
   SCALAPACK package :  Parallel linear algebra routines
   Shared memory     :  Shared parallel matrices
   BLAS/LAPACK       :  OpenBLAS 0.3.29  USE64BITINT DYNAMIC_ARCH NO_AFFINITY Cooperlake SINGLE_THREADED
        Core in use  :  Cooperlake
   Copyright (c) 2011-2014, The OpenBLAS Project


  ***********************************
  * Starting time: Mon Mar  2 17:00:00 2026
  * Host name:     chpc-cn075.rc.cuhk.edu.hk
  * Process ID:    2588137
  * Working dir.:  /ss02/scratch/s1/xlzhang/jingyi/phenol_pka_HB_sp
  ***********************************

NOTE: MaxCore=2109 MB was set to SCF,MP2,MDCI,CIPSI,MRCI,RASCI and CIS
      => If you want to overwrite this, your respective input block should be placed after the MaxCore statement
XCFun DFT library Copyright 2009-2010 Ulf Ekstrom and contributors.
See http://admol.org/xcfun for more information.
This is free software; see the source code for copying conditions.
There is ABSOLUTELY NO WARRANTY; not even for MERCHANTABILITY or FITNESS FOR A PARTICULAR PURPOSE.
For details see the documentation.
Scientific users of this library should cite U. Ekstrom, L. Visscher, R. Bast, A. J. Thorvaldsen and K. Ruud;
J.Chem.Theor.Comp. 2010, DOI: 10.1021/ct100117s
XCFun Version 0.99 

Warning: RI is on but no J-basis has been assigned. Assigning Def2/J (nothing to worry about!)
================================================================================

----- Orbital basis set information -----
Your calculation utilizes the basis: def2-SVP
   F. Weigend and R. Ahlrichs, Phys. Chem. Chem. Phys. 7, 3297 (2005).

----- AuxJ basis set information -----
Your calculation utilizes the auxiliary basis: def2/J
   H-Rn: F. Weigend, Phys. Chem. Chem. Phys. 8, 1057 (2006).
   Fr-Lr: K. Eichkorn, F. Weigend, O. Treutler, R. Ahlrichs; Theor. Chem. Acc. 97, 119 (1997).

================================================================================
                                        WARNINGS
                       Please study these warnings very carefully!
================================================================================

WARNING: Functional chosen is sensitive to the integration grid.
         DEFGRID3 seems to be a minimum grid for robust results!

================================================================================
                                       INPUT FILE
================================================================================
NAME = /users/s1155246976/scratch/phenol_pka_HB_sp/phenol_pka_HB_sp.inp
|  1> !  M062X def2-SVP defgrid2 CPCM(water)
|  2> # Number of processors
|  3> %pal nprocs 64 end
|  4> # Memory per core
|  5> %maxcore 2109
|  6> * xyz 0 1
|  7> C        1.1272590000   -0.0197620000   -0.1579800000
|  8> C        0.4092120000   -1.0900960000    0.3829780000
|  9> C       -0.9717260000   -0.9916480000    0.5456400000
| 10> C       -1.6473100000    0.1679940000    0.1721400000
| 11> C       -0.9239470000    1.2333000000   -0.3685340000
| 12> C        0.4540400000    1.1469740000   -0.5355130000
| 13> O        2.4679140000   -0.0612730000   -0.3350650000
| 14> H        2.8059140000   -0.9104270000   -0.0312360000
| 15> H        0.9367720000   -2.0012750000    0.6777530000
| 16> H       -1.5206320000   -1.8331270000    0.9717190000
| 17> H       -2.7273350000    0.2426000000    0.3002880000
| 18> H       -1.4421750000    2.1468810000   -0.6652730000
| 19> H        1.0320130000    1.9698580000   -0.9569160000
| 20> *
| 21> 
| 22>                          ****END OF INPUT****
================================================================================

                       ****************************
                       * Single Point Calculation *
                       ****************************

---------------------------------
CARTESIAN COORDINATES (ANGSTROEM)
---------------------------------
  C      1.127259   -0.019762   -0.157980
  C      0.409212   -1.090096    0.382978
  C     -0.971726   -0.991648    0.545640
  C     -1.647310    0.167994    0.172140
  C     -0.923947    1.233300   -0.368534
  C      0.454040    1.146974   -0.535513
  O      2.467914   -0.061273   -0.335065
  H      2.805914   -0.910427   -0.031236
  H      0.936772   -2.001275    0.677753
  H     -1.520632   -1.833127    0.971719
  H     -2.727335    0.242600    0.300288
  H     -1.442175    2.146881   -0.665273
  H      1.032013    1.969858   -0.956916

----------------------------
CARTESIAN COORDINATES (A.U.)
----------------------------
  NO LB      ZA    FRAG     MASS         X           Y           Z
   0 C     6.0000    0    12.011    2.130211   -0.037345   -0.298539
   1 C     6.0000    0    12.011    0.773299   -2.059983    0.723724
   2 C     6.0000    0    12.011   -1.836296   -1.873943    1.031110
   3 C     6.0000    0    12.011   -3.112965    0.317463    0.325297
   4 C     6.0000    0    12.011   -1.746007    2.330599   -0.696428
   5 C     6.0000    0    12.011    0.858011    2.167467   -1.011973
   6 O     8.0000    0    15.999    4.663682   -0.115789   -0.633181
   7 H     1.0000    0     1.008    5.302409   -1.720458   -0.059027
   8 H     1.0000    0     1.008    1.770243   -3.781862    1.280768
   9 H     1.0000    0     1.008   -2.873578   -3.464108    1.836283
  10 H     1.0000    0     1.008   -5.153916    0.458448    0.567462
  11 H     1.0000    0     1.008   -2.725316    4.057017   -1.257184
  12 H     1.0000    0     1.008    1.950222    3.722492   -1.808309

--------------------------------
INTERNAL COORDINATES (ANGSTROEM)
--------------------------------
 C      0   0   0     0.000000000000     0.00000000     0.00000000
 C      1   0   0     1.397798956763     0.00000000     0.00000000
 C      2   1   0     1.393965815503   119.99855611     0.00000000
 C      3   2   1     1.393084907398   120.52584269     0.03447276
 C      4   3   2     1.396588442484   119.18176861     0.00000000
 C      5   4   3     1.390748840332   120.81922099     0.00000000
 O      1   2   3     1.352936838648   122.42505355   179.86956545
 H      7   1   2     0.963129574334   109.48222296   359.65112411
 H      2   1   3     1.093370488108   119.64383909   180.07957183
 H      3   2   1     1.091296485158   119.30029485   180.17009941
 H      4   3   2     1.090156853744   120.39110737   179.99757918
 H      5   4   3     1.091441495302   119.85549093   179.97600313
 H      6   5   4     1.090307917331   121.65437501   179.94645933

---------------------------
INTERNAL COORDINATES (A.U.)
---------------------------
 C      0   0   0     0.000000000000     0.00000000     0.00000000
 C      1   0   0     2.641457218564     0.00000000     0.00000000
 C      2   1   0     2.634213631350   119.99855611     0.00000000
 C      3   2   1     2.632548956281   120.52584269     0.03447276
 C      4   3   2     2.639169678095   119.18176861     0.00000000
 C      5   4   3     2.628134429297   120.81922099     0.00000000
 O      1   2   3     2.556680101538   122.42505355   179.86956545
 H      7   1   2     1.820051126972   109.48222296   359.65112411
 H      2   1   3     2.066170785436   119.64383909   180.07957183
 H      3   2   1     2.062251487859   119.30029485   180.17009941
 H      4   3   2     2.060097896593   120.39110737   179.99757918
 H      5   4   3     2.062525517317   119.85549093   179.97600313
 H      6   5   4     2.060383365401   121.65437501   179.94645933

---------------------
BASIS SET INFORMATION
---------------------
There are 3 groups of distinct atoms

 Group   1 Type C   : 7s4p1d contracted to 3s2p1d pattern {511/31/1}
 Group   2 Type O   : 7s4p1d contracted to 3s2p1d pattern {511/31/1}
 Group   3 Type H   : 4s1p contracted to 2s1p pattern {31/1}

Atom   0C    basis set group =>   1
Atom   1C    basis set group =>   1
Atom   2C    basis set group =>   1
Atom   3C    basis set group =>   1
Atom   4C    basis set group =>   1
Atom   5C    basis set group =>   1
Atom   6O    basis set group =>   2
Atom   7H    basis set group =>   3
Atom   8H    basis set group =>   3
Atom   9H    basis set group =>   3
Atom  10H    basis set group =>   3
Atom  11H    basis set group =>   3
Atom  12H    basis set group =>   3
---------------------------------
AUXILIARY/J BASIS SET INFORMATION
---------------------------------
There are 3 groups of distinct atoms

 Group   1 Type C   : 12s5p4d2f1g contracted to 6s4p3d1f1g pattern {711111/2111/211/2/1}
 Group   2 Type O   : 12s5p4d2f1g contracted to 6s4p3d1f1g pattern {711111/2111/211/2/1}
 Group   3 Type H   : 5s2p1d contracted to 3s1p1d pattern {311/2/1}

Atom   0C    basis set group =>   1
Atom   1C    basis set group =>   1
Atom   2C    basis set group =>   1
Atom   3C    basis set group =>   1
Atom   4C    basis set group =>   1
Atom   5C    basis set group =>   1
Atom   6O    basis set group =>   2
Atom   7H    basis set group =>   3
Atom   8H    basis set group =>   3
Atom   9H    basis set group =>   3
Atom  10H    basis set group =>   3
Atom  11H    basis set group =>   3
Atom  12H    basis set group =>   3


           ************************************************************
           *        Program running with 64 parallel MPI-processes    *
           *              working on a common directory               *
           ************************************************************
------------------------------------------------------------------------------
                             ORCA STARTUP CALCULATIONS
                           -- RI-GTO INTEGRALS CHOSEN --
------------------------------------------------------------------------------
------------------------------------------------------------------------------
                   ___                                                        
                  /   \      - P O W E R E D   B Y -                         
                 /     \                                                     
                 |  |  |   _    _      __       _____    __    __             
                 |  |  |  | |  | |    /  \     |  _  \  |  |  /  |          
                  \  \/   | |  | |   /    \    | | | |  |  | /  /          
                 / \  \   | |__| |  /  /\  \   | |_| |  |  |/  /          
                |  |  |   |  __  | /  /__\  \  |    /   |      \           
                |  |  |   | |  | | |   __   |  |    \   |  |\   \          
                \     /   | |  | | |  |  |  |  | |\  \  |  | \   \       
                 \___/    |_|  |_| |__|  |__|  |_| \__\ |__|  \__/        
                                                                              
                      - O R C A' S   B I G   F R I E N D -                    
                                      &                                       
                       - I N T E G R A L  F E E D E R -                       
                                                                              
 v1 FN, 2020, v2 2021, v3 2022-2024                                           
------------------------------------------------------------------------------


----------------------
SHARK INTEGRAL PACKAGE
----------------------

Number of atoms                             ...     13
Number of basis functions                   ...    128
Number of shells                            ...     60
Maximum angular momentum                    ...      2
Integral batch strategy                     ... SHARK/LIBINT Hybrid
RI-J (if used) integral strategy            ... SPLIT-RIJ (Revised 2003 algorithm where possible)
Printlevel                                  ...      1
Contraction scheme used                     ... SEGMENTED contraction
Prescreening option                         ... SCHWARTZ
   Thresh                                   ... 1.000e-10
   Tcut                                     ... 1.000e-11
   Tpresel                                  ... 1.000e-11 
Coulomb Range Separation                    ... NOT USED
Exchange Range Separation                   ... NOT USED
Multipole approximations                    ... NOT USED
Finite Nucleus Model                        ... NOT USED
CABS basis                                  ... NOT available
Auxiliary Coulomb fitting basis             ... AVAILABLE
   # of basis functions in Aux-J            ...    409
   # of shells in Aux-J                     ...    135
   Maximum angular momentum in Aux-J        ...      4
Auxiliary J/K fitting basis                 ... NOT available
Auxiliary Correlation fitting basis         ... NOT available
Auxiliary 'external' fitting basis          ... NOT available

Checking pre-screening integrals            ... done (  0.3 sec) Dimension = 60
   => SHARK Basis and OBASIS are compatible. Storing Pre-screening
Shell pair information
Shell pair cut-off parameter TPreSel        ...   1.0e-11
Total number of shell pairs                 ...      1830
Shell pairs after pre-screening             ...      1755
Total number of primitive shell pairs       ...      6664
Primitive shell pairs kept                  ...      4865
          la=0 lb=0:    537 shell pairs
          la=1 lb=0:    627 shell pairs
          la=1 lb=1:    202 shell pairs
          la=2 lb=0:    224 shell pairs
          la=2 lb=1:    137 shell pairs
          la=2 lb=2:     28 shell pairs

Checking whether 4 symmetric matrices of dimension 128 fit in memory
:Max Core in MB      =   2109.00
 MB in use           =      5.59
 MB left             =   2103.41
 MB needed           =      0.25
 Data fit in memory  = YES
Calculating RI/J V-Matrix + Cholesky decomp.... done (  0.4 sec)
Calculating Nuclear repulsion               ... done (  0.0 sec) ENN=    271.292375751082 Eh

Diagonalization of the overlap matrix:
Smallest eigenvalue                        ... 2.791e-04
Time for diagonalization                   ...    0.039 sec
Threshold for overlap eigenvalues          ... 1.000e-07
Number of eigenvalues below threshold      ... 0
Time for construction of square roots      ...    0.149 sec
Total time needed                          ...    0.493 sec

-------------------
DFT GRID GENERATION
-------------------

General Integration Accuracy     IntAcc      ... 4.388
Radial Grid Type                 RadialGrid  ... OptM3 with GC (2021)
Angular Grid (max. ang.)         AngularGrid ... 4 (Lebedev-302)
Angular grid pruning method      GridPruning ... 4 (adaptive)
Weight generation scheme         WeightScheme... mBecke (2022)
Basis function cutoff            BFCut       ... 1.0000e-10
Integration weight cutoff        WCut        ... 1.0000e-14
Partially contracted basis set               ... off
Rotationally invariant grid construction     ... off
Angular grids for H and He will be reduced by one unit

Total number of grid points                  ...    61624
Total number of batches                      ...      968
Average number of points per batch           ...       63
Average number of grid points per atom       ...     4740

--------------------
COSX GRID GENERATION
--------------------

GRIDX 1
-------
General Integration Accuracy     IntAcc      ... 3.816
Radial Grid Type                 RadialGrid  ... OptM3 with GC (2021)
Angular Grid (max. ang.)         AngularGrid ... 1 (Lebedev-50)
Angular grid pruning method      GridPruning ... 4 (adaptive)
Weight generation scheme         WeightScheme... mBecke (2022)
Basis function cutoff            BFCut       ... 1.0000e-10
Integration weight cutoff        WCut        ... 1.0000e-14
Partially contracted basis set               ... on
Rotationally invariant grid construction     ... off
Angular grids for H and He will be reduced by one unit

Total number of grid points                  ...     7888
Total number of batches                      ...       67
Average number of points per batch           ...      117
Average number of grid points per atom       ...      607
UseSFitting                                  ... on

GRIDX 2
-------
General Integration Accuracy     IntAcc      ... 4.020
Radial Grid Type                 RadialGrid  ... OptM3 with GC (2021)
Angular Grid (max. ang.)         AngularGrid ... 2 (Lebedev-110)
Angular grid pruning method      GridPruning ... 4 (adaptive)
Weight generation scheme         WeightScheme... mBecke (2022)
Basis function cutoff            BFCut       ... 1.0000e-10
Integration weight cutoff        WCut        ... 1.0000e-14
Partially contracted basis set               ... on
Rotationally invariant grid construction     ... off
Angular grids for H and He will be reduced by one unit

Total number of grid points                  ...    17312
Total number of batches                      ...      142
Average number of points per batch           ...      121
Average number of grid points per atom       ...     1332
UseSFitting                                  ... on

GRIDX 3
-------
General Integration Accuracy     IntAcc      ... 4.338
Radial Grid Type                 RadialGrid  ... OptM3 with GC (2021)
Angular Grid (max. ang.)         AngularGrid ... 3 (Lebedev-194)
Angular grid pruning method      GridPruning ... 4 (adaptive)
Weight generation scheme         WeightScheme... mBecke (2022)
Basis function cutoff            BFCut       ... 1.0000e-10
Integration weight cutoff        WCut        ... 1.0000e-14
Partially contracted basis set               ... on
Rotationally invariant grid construction     ... off
Angular grids for H and He will be reduced by one unit

Total number of grid points                  ...    38101
Total number of batches                      ...      306
Average number of points per batch           ...      124
Average number of grid points per atom       ...     2931
UseSFitting                                  ... on
Grids setup in   8.4 sec
Initializing property integral containers    ... done (  0.3 sec)

SHARK setup successfully completed in  11.3 seconds

Maximum memory used throughout the entire STARTUP-calculation: 16.0 MB


           ************************************************************
           *        Program running with 64 parallel MPI-processes    *
           *              working on a common directory               *
           ************************************************************
-------------------------------------------------------------------------------
                                 ORCA GUESS
                   Start orbitals & Density for SCF / CASSCF
-------------------------------------------------------------------------------

------------
SCF SETTINGS
------------
Hamiltonian:
 Density Functional     Method          .... DFT(GTOs)
 Exchange Functional    Exchange        .... M062X
 Correlation Functional Correlation     .... M062X
 Gradients option       PostSCFGGA      .... off
 Hybrid DFT is turned on
   Fraction HF Exchange ScalHFX         ....  0.540000
   Scaling of DF-GGA-X  ScalDFX         ....  0.460000
   Scaling of DF-GGA-C  ScalDFC         ....  1.000000
   Scaling of DF-LDA-C  ScalLDAC        ....  1.000000
   Perturbative correction              ....  0.000000
 RI-approximation to the Coulomb term is turned on
   Number of AuxJ basis functions       .... 409
   RIJ-COSX (HFX calculated with COS-X)).... on


General Settings:
 Integral files         IntName         .... /users/s1155246976/scratch/phenol_pka_HB_sp/phenol_pka_HB_sp
 Hartree-Fock type      HFTyp           .... RHF
 Total Charge           Charge          ....    0
 Multiplicity           Mult            ....    1
 Number of Electrons    NEL             ....   50
 Basis Dimension        Dim             ....  128
 Nuclear Repulsion      ENuc            ....    271.2923757511 Eh

Convergence Acceleration:
 AO-DIIS                CNVDIIS         .... on
   Start iteration      DIISMaxIt       ....    12
   Startup error        DIISStart       ....  0.200000
   # of expansion vecs  DIISMaxEq       ....     5
   Bias factor          DIISBfac        ....   1.050
   Max. coefficient     DIISMaxC        ....  10.000
 MO-DIIS                CNVKDIIS        .... off
 Trust-Rad. Augm. Hess. CNVTRAH         .... auto
   Auto Start mean grad. ratio tolernc. ....  1.125000
   Auto Start start iteration           ....    50
   Auto Start num. interpolation iter.  ....    10
   Max. Number of Micro iterations      ....    24
   Max. Number of Macro iterations      .... Maxiter - #DIIS iter
   Number of Davidson start vectors     ....     2
   Converg. threshold    (grad. norm)   ....   5.000e-05
   Grad. Scal. Fac. for Micro threshold ....   0.100
   Minimum threshold for Micro iter.    ....   1.000e-02
   NR start threshold (gradient norm)   ....   1.000e-04
   Initial trust radius                 ....   0.400
   Minimum AH scaling param. (alpha)    ....   1.000
   Maximum AH scaling param. (alpha)    .... 1000.000
   Quad. conv. algorithm                .... NR
   White noise on init. David. guess    .... on
   Maximum white noise                  ....   0.010
   Pseudo random numbers                .... off
   Inactive MOs                         .... canonical
   Orbital update algorithm             .... Taylor
   Preconditioner                       .... Diag
   Full preconditioner red. dimension   ....   250
 SOSCF                 CNVSOSCF           .... on
   Start iteration     SOSCFMaxIt         ....   150
   Startup grad/error  SOSCFStart         ....  0.003300
   Hessian update      SOSCFHessUp        .... L-BFGS
   Autom. constraints  SOSCFAutoConstrain .... off
 Level Shifting         CNVShift        .... on
   Level shift para.    LevelShift      ....    0.2500
   Turn off err/grad.   ShiftErr        ....    0.0010
 Zerner damping         CNVZerner       .... off
 Static damping         CNVDamp         .... on
   Fraction old density DampFac         ....    0.7000
   Max. Damping (<1)    DampMax         ....    0.9800
   Min. Damping (>=0)   DampMin         ....    0.0000
   Turn off err/grad.   DampErr         ....    0.1000

SCF Procedure:
 Maximum # iterations   MaxIter         ....   125
 SCF integral mode      SCFMode         .... Direct
   Integral package                     .... SHARK and LIBINT hybrid scheme
 Reset frequency        DirectResetFreq ....    20
 Integral Threshold     Thresh          ....  1.000e-10 Eh
 Primitive CutOff       TCut            ....  1.000e-11 Eh

Convergence Tolerance:
 Convergence Check Mode ConvCheckMode   .... Total+1el-Energy
 Convergence forced     ConvForced      .... 0
 Energy Change          TolE            ....  1.000e-06 Eh
 1-El. energy change                    ....  1.000e-03 Eh
 Orbital Gradient       TolG            ....  5.000e-05
 Orbital Rotation angle TolX            ....  5.000e-05
 DIIS Error             TolErr          ....  1.000e-06

------------------------------
INITIAL GUESS: MODEL POTENTIAL
------------------------------
Loading Hartree-Fock densities                     ... done
Calculating cut-offs                               ... done
Initializing the effective Hamiltonian             ... done
Setting up the integral package (SHARK)            ... done
Starting the Coulomb interaction                   ... done (   0.6 sec)
Making the grid                                    ... done (   2.1 sec)
Mapping shells                                     ... done
Starting the XC term evaluation                    ... done (   0.1 sec)
  promolecular density results
     # of electrons  =     49.995474188
     EX              =    -40.602738296
     EC              =     -1.652379890
     EX+EC           =    -42.255118185
Transforming the Hamiltonian                       ... done (   0.1 sec)
Diagonalizing the Hamiltonian                      ... done (   0.5 sec)
Back transforming the eigenvectors                 ... done (   0.4 sec)
Now organizing SCF variables                       ... done
                      ------------------
                      INITIAL GUESS DONE (   4.7 sec)
                      ------------------
             **** ENERGY FILE WAS UPDATED (/users/s1155246976/scratch/phenol_pka_HB_sp/phenol_pka_HB_sp.en.tmp) ****
Finished Guess after   9.2 sec
Maximum memory used throughout the entire GUESS-calculation: 7.9 MB


           ************************************************************
           *        Program running with 64 parallel MPI-processes    *
           *              working on a common directory               *
           ************************************************************

-------------------------------------------------------------------------------------------
                                      ORCA LEAN-SCF
                              memory conserving SCF solver
-------------------------------------------------------------------------------------------

--------------------
CPCM SOLVATION MODEL
--------------------
CPCM parameters:
  Epsilon                                         ...      80.1510
  Refrac                                          ...       1.3328
  Rsolv                                           ...       1.3000
  Surface type                                    ... GAUSSIAN VDW
  Discretization scheme                           ... Constant charge density
    Threshold for H atoms                         ...       5.0000 (charges/Ang^2)
    Threshold for non-H atoms                     ...       5.0000 (charges/Ang^2)
  Epsilon function type                           ...         CPCM
Solvent:                                          ... WATER
Radii:
  Scheme                                          ... Element-dependent radii
  Radius for C  used is    3.8550 Bohr (=   2.0400 Ang.)
  Radius for O  used is    3.4469 Bohr (=   1.8240 Ang.)
  Radius for H  used is    2.4944 Bohr (=   1.3200 Ang.)
Calculating surface                               ...        done! (  0.0s)
Cavity surface points                             ...         1308
Cavity Volume                                     ...     834.6976
Cavity Surface-area                               ...     482.7481
Calculating surface distance matrix               ...        done! (  0.3s)
Performing Cholesky decomposition & store         ...        done! (  0.2s)
Overall time for CPCM initialization              ...                 0.5s

----------------------------------------D-I-I-S--------------------------------------------
Iteration    Energy (Eh)           Delta-E    RMSDP     MaxDP     DIISErr   Damp  Time(sec)
-------------------------------------------------------------------------------------------
               ***  Starting incremental Fock matrix formation  ***
    1    -306.9657269983976562     0.00e+00  3.49e-02  5.13e-02  1.86e-01  0.700   9.3
    2    -307.0295130747045391    -6.38e-02  2.51e-02  3.57e-02  9.89e-02  0.700   3.6
                               ***Turning on AO-DIIS***
    3    -307.0618185759635139    -3.23e-02  1.13e-02  1.52e-02  4.48e-02  0.700   6.7
    4    -307.0808595067180136    -1.90e-02  2.21e-02  2.70e-02  3.09e-02  0.000   4.6
    5    -307.1210789578923936    -4.02e-02  2.10e-03  4.13e-03  3.43e-03  0.000   4.1
                              *** Initializing SOSCF ***
---------------------------------------S-O-S-C-F--------------------------------------
Iteration    Energy (Eh)           Delta-E    RMSDP     MaxDP     MaxGrad    Time(sec)
--------------------------------------------------------------------------------------
    6    -307.1211416187150576    -6.27e-05  7.85e-04  1.12e-03  1.16e-03     7.1
               *** Restarting incremental Fock matrix formation ***
    7    -307.1212141935228033    -7.26e-05  7.16e-04  9.68e-04  2.65e-04     5.7
    8    -307.1212156443643266    -1.45e-06  3.53e-04  4.84e-04  1.44e-04     5.4
    9    -307.1212160598066134    -4.15e-07  1.76e-04  2.53e-04  4.85e-05    10.8
                 **** Energy Check signals convergence ****

               *****************************************************
               *                     SUCCESS                       *
               *           SCF CONVERGED AFTER   9 CYCLES          *
               *****************************************************

Recomputing exchange energy using gridx3       ... done (    0.168 sec)
Old exchange energy                            :    -22.358824456 Eh
New exchange energy                            :    -22.358938393 Eh
Exchange energy change after final integration :     -0.000113937 Eh
Total energy after final integration           :   -307.121330037 Eh
             **** ENERGY FILE WAS UPDATED (/users/s1155246976/scratch/phenol_pka_HB_sp/phenol_pka_HB_sp.en.tmp) ****

----------------
TOTAL SCF ENERGY
----------------

Total Energy       :       -307.12133003666486 Eh           -8357.19626 eV

Components:
Nuclear Repulsion  :        271.29237575108215 Eh            7382.24085 eV
Electronic Energy  :       -578.40209069425543 Eh          -15739.12105 eV
One Electron Energy:       -952.51571411525697 Eh          -25919.27029 eV
Two Electron Energy:        374.11362342100153 Eh           10180.14924 eV
CPCM Dielectric    :         -0.01150115682374 Eh              -0.31296 eV

Virial components:
Potential Energy   :       -611.20721566663178 Eh          -16631.79388 eV
Kinetic Energy     :        304.08588562996698 Eh            8274.59762 eV
Virial Ratio       :          2.00998219434095

DFT components:
N(Alpha)           :       24.999991680212 electrons
N(Beta)            :       24.999991680212 electrons
N(Total)           :       49.999983360424 electrons
E(XC)              :      -20.842795980106 Eh       

CPCM Solvation Model Properties:
Surface-charge          :         -0.01564025414271
Corrected charge        :         -0.00000000000000
Outlying charge corr.   :          0.00001982241306 Eh               0.00054 eV
Free-energy (cav+disp)  :  This term is not implemented in the current solvation scheme

---------------
SCF CONVERGENCE
---------------

  Last Energy change         ...    4.1544e-07  Tolerance :   1.0000e-06
  Last MAX-Density change    ...    2.5334e-04  Tolerance :   1.0000e-05
  Last RMS-Density change    ...    1.7584e-04  Tolerance :   1.0000e-06
  Last DIIS Error            ...    1.1649e-03  Tolerance :   1.0000e-06
  Last Orbital Gradient      ...    4.8456e-05  Tolerance :   5.0000e-05
  Last Orbital Rotation      ...    9.4705e-05  Tolerance :   5.0000e-05


----------------
ORBITAL ENERGIES
----------------

  NO   OCC          E(Eh)            E(eV) 
   0   2.0000     -19.657384      -534.9046 
   1   2.0000     -10.618191      -288.9357 
   2   2.0000     -10.559685      -287.3436 
   3   2.0000     -10.559266      -287.3322 
   4   2.0000     -10.554456      -287.2014 
   5   2.0000     -10.552461      -287.1471 
   6   2.0000     -10.550128      -287.0836 
   7   2.0000      -1.169141       -31.8139 
   8   2.0000      -0.947059       -25.7708 
   9   2.0000      -0.836048       -22.7500 
  10   2.0000      -0.823759       -22.4156 
  11   2.0000      -0.703213       -19.1354 
  12   2.0000      -0.678670       -18.4676 
  13   2.0000      -0.618439       -16.8286 
  14   2.0000      -0.569055       -15.4848 
  15   2.0000      -0.538288       -14.6476 
  16   2.0000      -0.502688       -13.6788 
  17   2.0000      -0.495444       -13.4817 
  18   2.0000      -0.487142       -13.2558 
  19   2.0000      -0.461584       -12.5603 
  20   2.0000      -0.421266       -11.4632 
  21   2.0000      -0.412304       -11.2194 
  22   2.0000      -0.397368       -10.8129 
  23   2.0000      -0.312624        -8.5069 
  24   2.0000      -0.280239        -7.6257 
  25   0.0000       0.023647         0.6435 
  26   0.0000       0.040778         1.1096 
  27   0.0000       0.109681         2.9846 
  28   0.0000       0.117845         3.2067 
  29   0.0000       0.152794         4.1577 
  30   0.0000       0.167637         4.5616 
  31   0.0000       0.194939         5.3046 
  32   0.0000       0.209223         5.6932 
  33   0.0000       0.209326         5.6960 
  34   0.0000       0.282006         7.6738 
  35   0.0000       0.319201         8.6859 
*Only the first 10 virtual orbitals were printed.

                    ********************************
                    * MULLIKEN POPULATION ANALYSIS *
                    ********************************

-----------------------
MULLIKEN ATOMIC CHARGES
-----------------------
   0 C :    0.144397
   1 C :   -0.092143
   2 C :   -0.043463
   3 C :   -0.046393
   4 C :   -0.040669
   5 C :   -0.078860
   6 O :   -0.264039
   7 H :    0.227894
   8 H :    0.037294
   9 H :    0.044525
  10 H :    0.036962
  11 H :    0.044377
  12 H :    0.030118
Sum of atomic charges:   -0.0000000

--------------------------------
MULLIKEN REDUCED ORBITAL CHARGES
--------------------------------
  0 C s       :     2.970063  s :     2.970063
      pz      :     0.970818  p :     2.811608
      px      :     0.798395
      py      :     1.042394
      dz2     :     0.007351  d :     0.073932
      dxz     :     0.018320
      dyz     :     0.006442
      dx2y2   :     0.021756
      dxy     :     0.020063

  1 C s       :     3.222607  s :     3.222607
      pz      :     1.038200  p :     2.839109
      px      :     0.905753
      py      :     0.895155
      dz2     :     0.003334  d :     0.030428
      dxz     :     0.005870
      dyz     :     0.003468
      dx2y2   :     0.007259
      dxy     :     0.010497

  2 C s       :     3.179387  s :     3.179387
      pz      :     0.962041  p :     2.830422
      px      :     0.945491
      py      :     0.922890
      dz2     :     0.002717  d :     0.033654
      dxz     :     0.006803
      dyz     :     0.004232
      dx2y2   :     0.009735
      dxy     :     0.010167

  3 C s       :     3.171609  s :     3.171609
      pz      :     1.018337  p :     2.842500
      px      :     0.860250
      py      :     0.963913
      dz2     :     0.003697  d :     0.032285
      dxz     :     0.003610
      dyz     :     0.005699
      dx2y2   :     0.010318
      dxy     :     0.008962

  4 C s       :     3.178025  s :     3.178025
      pz      :     0.967650  p :     2.829013
      px      :     0.944405
      py      :     0.916958
      dz2     :     0.003473  d :     0.033630
      dxz     :     0.006930
      dyz     :     0.003553
      dx2y2   :     0.009497
      dxy     :     0.010178

  5 C s       :     3.242188  s :     3.242188
      pz      :     1.017200  p :     2.806392
      px      :     0.879233
      py      :     0.909959
      dz2     :     0.002824  d :     0.030281
      dxz     :     0.005880
      dyz     :     0.003613
      dx2y2   :     0.007693
      dxy     :     0.010270

  6 O s       :     3.673932  s :     3.673932
      pz      :     1.784692  p :     4.575788
      px      :     1.323016
      py      :     1.468080
      dz2     :     0.001799  d :     0.014320
      dxz     :     0.002646
      dyz     :     0.001710
      dx2y2   :     0.005847
      dxy     :     0.002318

  7 H s       :     0.704571  s :     0.704571
      pz      :     0.018623  p :     0.067535
      px      :     0.016483
      py      :     0.032430

  8 H s       :     0.940441  s :     0.940441
      pz      :     0.004701  p :     0.022265
      px      :     0.005434
      py      :     0.012129

  9 H s       :     0.933390  s :     0.933390
      pz      :     0.005379  p :     0.022085
      px      :     0.006064
      py      :     0.010641

 10 H s       :     0.940887  s :     0.940887
      pz      :     0.003833  p :     0.022151
      px      :     0.015540
      py      :     0.002778

 11 H s       :     0.933570  s :     0.933570
      pz      :     0.004324  p :     0.022053
      px      :     0.005676
      py      :     0.012053

 12 H s       :     0.947668  s :     0.947668
      pz      :     0.005597  p :     0.022214
      px      :     0.006309
      py      :     0.010308



                     *******************************
                     * LOEWDIN POPULATION ANALYSIS *
                     *******************************

----------------------
LOEWDIN ATOMIC CHARGES
----------------------
   0 C :    0.043992
   1 C :   -0.087587
   2 C :   -0.028045
   3 C :   -0.070140
   4 C :   -0.028406
   5 C :   -0.075031
   6 O :   -0.079676
   7 H :    0.114264
   8 H :    0.044910
   9 H :    0.042693
  10 H :    0.038735
  11 H :    0.042328
  12 H :    0.041963

-------------------------------
LOEWDIN REDUCED ORBITAL CHARGES
-------------------------------
  0 C s       :     2.838626  s :     2.838626
      pz      :     0.970007  p :     2.943663
      px      :     0.886326
      py      :     1.087330
      dz2     :     0.015592  d :     0.173720
      dxz     :     0.038419
      dyz     :     0.015124
      dx2y2   :     0.055088
      dxy     :     0.049496

  1 C s       :     2.861825  s :     2.861825
      pz      :     1.039013  p :     3.140433
      px      :     1.063086
      py      :     1.038335
      dz2     :     0.007487  d :     0.085329
      dxz     :     0.014461
      dyz     :     0.008271
      dx2y2   :     0.023967
      dxy     :     0.031143

  2 C s       :     2.860480  s :     2.860480
      pz      :     0.972337  p :     3.076797
      px      :     1.059590
      py      :     1.044870
      dz2     :     0.006289  d :     0.090768
      dxz     :     0.016022
      dyz     :     0.009979
      dx2y2   :     0.028511
      dxy     :     0.029966

  3 C s       :     2.858038  s :     2.858038
      pz      :     1.020224  p :     3.123906
      px      :     1.045194
      py      :     1.058488
      dz2     :     0.008387  d :     0.088195
      dxz     :     0.008202
      dyz     :     0.014514
      dx2y2   :     0.030395
      dxy     :     0.026697

  4 C s       :     2.860586  s :     2.860586
      pz      :     0.973922  p :     3.077184
      px      :     1.062167
      py      :     1.041095
      dz2     :     0.007942  d :     0.090636
      dxz     :     0.016600
      dyz     :     0.008432
      dx2y2   :     0.027926
      dxy     :     0.029736

  5 C s       :     2.861337  s :     2.861337
      pz      :     1.029593  p :     3.128996
      px      :     1.061187
      py      :     1.038216
      dz2     :     0.006385  d :     0.084697
      dxz     :     0.014076
      dyz     :     0.008660
      dx2y2   :     0.024563
      dxy     :     0.031014

  6 O s       :     3.405369  s :     3.405369
      pz      :     1.760511  p :     4.647770
      px      :     1.364799
      py      :     1.522460
      dz2     :     0.002888  d :     0.026537
      dxz     :     0.004468
      dyz     :     0.002562
      dx2y2   :     0.011492
      dxy     :     0.005127

  7 H s       :     0.706601  s :     0.706601
      pz      :     0.053310  p :     0.179135
      px      :     0.038890
      py      :     0.086935

  8 H s       :     0.886154  s :     0.886154
      pz      :     0.016861  p :     0.068936
      px      :     0.017554
      py      :     0.034522

  9 H s       :     0.890135  s :     0.890135
      pz      :     0.017648  p :     0.067172
      px      :     0.018956
      py      :     0.030568

 10 H s       :     0.893115  s :     0.893115
      pz      :     0.014413  p :     0.068150
      px      :     0.042356
      py      :     0.011381

 11 H s       :     0.890627  s :     0.890627
      pz      :     0.015079  p :     0.067045
      px      :     0.017973
      py      :     0.033993

 12 H s       :     0.888747  s :     0.888747
      pz      :     0.019206  p :     0.069289
      px      :     0.019627
      py      :     0.030457



                      *****************************
                      * MAYER POPULATION ANALYSIS *
                      *****************************

  NA   - Mulliken gross atomic population
  ZA   - Total nuclear charge
  QA   - Mulliken gross atomic charge
  VA   - Mayer's total valence
  BVA  - Mayer's bonded valence
  FA   - Mayer's free valence

  ATOM       NA         ZA         QA         VA         BVA        FA
  0 C      5.8556     6.0000     0.1444     3.9914     3.9914     0.0000
  1 C      6.0921     6.0000    -0.0921     3.7933     3.7933    -0.0000
  2 C      6.0435     6.0000    -0.0435     3.8482     3.8482    -0.0000
  3 C      6.0464     6.0000    -0.0464     3.8030     3.8030    -0.0000
  4 C      6.0407     6.0000    -0.0407     3.8376     3.8376    -0.0000
  5 C      6.0789     6.0000    -0.0789     3.8282     3.8282     0.0000
  6 O      8.2640     8.0000    -0.2640     2.1783     2.1783     0.0000
  7 H      0.7721     1.0000     0.2279     0.9837     0.9837    -0.0000
  8 H      0.9627     1.0000     0.0373     0.9884     0.9884    -0.0000
  9 H      0.9555     1.0000     0.0445     0.9769     0.9769    -0.0000
 10 H      0.9630     1.0000     0.0370     0.9780     0.9780    -0.0000
 11 H      0.9556     1.0000     0.0444     0.9768     0.9768    -0.0000
 12 H      0.9699     1.0000     0.0301     0.9917     0.9917    -0.0000

  Mayer bond orders larger than 0.100000
B(  0-C ,  1-C ) :   1.3416 B(  0-C ,  5-C ) :   1.3555 B(  0-C ,  6-O ) :   1.1701 
B(  1-C ,  2-C ) :   1.3787 B(  1-C ,  8-H ) :   0.9901 B(  2-C ,  3-C ) :   1.3865 
B(  2-C ,  9-H ) :   0.9874 B(  3-C ,  4-C ) :   1.3705 B(  3-C , 10-H ) :   0.9958 
B(  4-C ,  5-C ) :   1.3950 B(  4-C , 11-H ) :   0.9895 B(  5-C , 12-H ) :   0.9955 
B(  6-O ,  7-H ) :   0.9436 

-------
TIMINGS
-------

Total SCF time: 0 days 0 hours 1 min 18 sec 

Total time                  ....      78.050 sec
Sum of individual times     ....      68.080 sec  ( 87.2%)

SCF preparation             ....       7.948 sec  ( 10.2%)
Fock matrix formation       ....      37.240 sec  ( 47.7%)
  Startup                   ....       0.675 sec  (  1.8% of F)
  Split-RI-J                ....       3.215 sec  (  8.6% of F)
  Chain of spheres X        ....       9.699 sec  ( 26.0% of F)
  XC integration            ....      16.771 sec  ( 45.0% of F)
    XC Preparation          ....       0.000 sec  (  0.0% of XC)
    Basis function eval.    ....       0.022 sec  (  0.1% of XC)
    Density eval.           ....       0.027 sec  (  0.2% of XC)
    XC-Functional eval.     ....       0.013 sec  (  0.1% of XC)
    XC-Potential eval.      ....       0.034 sec  (  0.2% of XC)
  CPCM terms                ....       3.366 sec  (  9.0% of F)
Diagonalization             ....       0.000 sec  (  0.0%)
Density matrix formation    ....       4.311 sec  (  5.5%)
Total Energy calculation    ....       2.812 sec  (  3.6%)
Population analysis         ....       2.226 sec  (  2.9%)
Orbital Transformation      ....       1.368 sec  (  1.8%)
Orbital Orthonormalization  ....       0.000 sec  (  0.0%)
DIIS solution               ....       8.059 sec  ( 10.3%)
SOSCF solution              ....       4.117 sec  (  5.3%)
Finished LeanSCF after  79.3 sec

Maximum memory used throughout the entire LEANSCF-calculation: 10.6 MB

-------------------------   --------------------
FINAL SINGLE POINT ENERGY      -307.121330036665
-------------------------   --------------------



           ************************************************************
           *        Program running with 64 parallel MPI-processes    *
           *              working on a common directory               *
           ************************************************************

------------------------------------------------------------------------------
                              ORCA PROPERTY CALCULATIONS
------------------------------------------------------------------------------

GBWName                                 ... /users/s1155246976/scratch/phenol_pka_HB_sp/phenol_pka_HB_sp.gbw
Number of atoms                         ...     13
Number of basis functions               ...    128
Max core memory                         ...   2109 MB

Electric properties:
Dipole moment                           ... YES
Quadrupole moment                       ...  NO
Static polarizability (Dipole/Dipole)   ...  NO
Static polarizability (Dipole/Quad.)    ...  NO
Static polarizability (Quad./Quad.)     ...  NO
Static polarizability (Velocity)        ...  NO
Static hyperpolarizability              ...  NO

Atomic electric properties:
Dipole moment                           ...  NO
Quadrupole moment                       ...  NO
Static polarizability                   ...  NO

Choice of electric origin               ... Center of mass
Position of electric origin             ...     0.399873     0.080261    -0.092301

General magnetic properties:
Magnetizability                         ...  NO

EPR properties:
g-Tensor (aka g-matrix)                 ...  NO
Zero-Field splitting spin-orbit         ...  NO
Zero-field splitting spin-spin          ...  NO
Hyperfine couplings                     ...  NO (   0 nuclei)
Quadrupole couplings                    ...  NO (   0 nuclei)
Contact density                         ...  NO (   0 nuclei)

NMR properties:
Chemical shifts                         ...  NO (   0 nuclei)
Spin-rotation constants                 ...  NO (   0 nuclei)
Spin-spin couplings                     ...  NO (   0 nuclei,    0 pairs)

Choice of magnetic origin               ... GIAO
Position of magnetic origin             ...     0.000000     0.000000     0.000000

Properties with geometric perturbations:
SCF Hessian                             ...  NO
IR spectrum                             ...  NO
VCD spectrum                            ...  NO
X-ray spectroscopy properties:
SCF XES/XAS/RIXS spectra                ...  NO

SCF SOC stabilization energy            ...  NO
Diagonal Born-Oppenheimer correction    ...  NO

-------------
DIPOLE MOMENT
-------------

Method             : SCF
Type of density    : Electron Density
Multiplicity       :   1
Irrep              :   0
Energy             :  -307.1213300366648582 Eh
Basis              : AO
                                X                 Y                 Z
Electronic contribution:      2.079241649      -0.074388547      -0.276157457
Nuclear contribution   :     -2.016606754      -0.602269939       0.548723986
                        -----------------------------------------
Total Dipole Moment    :      0.062634895      -0.676658486       0.272566529
                        -----------------------------------------
Magnitude (a.u.)       :      0.732176447
Magnitude (Debye)      :      1.861044629



--------------------
Rotational spectrum 
--------------------
 
Rotational constants in cm-1:             0.188795             0.087582             0.059828 
Rotational constants in MHz :          5659.936342          2625.646321          1793.597785 

Dipole components along the rotational axes: 
x,y,z [a.u.] :     0.076497    -0.728150     0.005237 
x,y,z [Debye]:     0.194441    -1.850811     0.013311 

 

Dipole moment calculation done in   0.5 sec 

Maximum memory used throughout the entire PROP-calculation: 6.0 MB

--------------------------------
SUGGESTED CITATIONS FOR THIS RUN
--------------------------------

Below you find a list of papers that are relevant to this ORCA run
We neither can nor want to force you to cite these papers, but we appreciate if you do
You receive ORCA, which is the product of decades of hard work by many enthusiastic individuals, for free
The only thing we kindly ask in return is that you cite our papers,
We deeply appreciate it, if you show your appreciation for ORCA by not just citing the generic ORCA reference.

Please note that relegating all ORCA citations to the supporting information does *not* help us.
SI sections are not indexed - citations you put there will not count into any citation statistics
But we need these citations in order to attract the funding resources that allow us to do what we are doing

Therefore, if you are a happy ORCA user, please consider citing a few of the papers listed below in the main body of your paper

In addition to the list printed below, the program has created the file /users/s1155246976/scratch/phenol_pka_HB_sp/phenol_pka_HB_sp.bibtex that contains the list in bibtex format
You can import this file easily into all common literature databanks and citation aid programs


List of essential papers. We consider these as the minimum necessary citations

  1. Neese, F.
     Software update: the ORCA program system, version 6.0
     WIRES Comput. Molec. Sci. 2025 15(1), e70019
     doi.org/10.1002/wcms.7019

List of papers to cite with high priority. The work reported in these papers was absolutely
necessary for this run to complete.
Our perspective: the developers of density functionals and basis sets usually get cited in chemistry papers
Good! But without the algorithms to do something with them, the functionals or basis sets would not do anything.
Hence, in our opinion, the algorithm design and method developments papers are equally worthy of getting cited

  1. Neese, F.
     An improvement of the resolution of the identity approximation for the formation of the Coulomb matrix
     J. Comp. Chem. 2003 24(14), 1740-1747
     doi.org/10.1002/jcc.10318
  2. Neese, F.; Wennmohs, F.; Hansen, A.; Becker, U.
     Efficient, approximate and parallel Hartree-Fock and hybrid DFT calculations. A 'chain-of-spheres' algorithm for the Hartree-Fock exchange
     Chem. Phys. 2009 356(1-3), 98-109
     doi.org/10.1016/j.chemphys.2008.10.036
  3. Garcia-Rates, M.; Neese, F.
     Effect of the Solute Cavity on the Solvation Energy and its Derivatives within the Framework of the Gaussian Charge Scheme
     J. Comput. Chem. 2020 41 , 922-939
     doi.org/10.1002/jcc.26139
  4. Helmich-Paris, B.; de Souza, B.; Neese, F.; Izsák, R.
     An improved chain of spheres for exchange algorithm
     J. Chem. Phys. 2021 155(10), 104109
     doi.org/10.1063/5.0058766
  5. Neese, F.
     The SHARK Integral Generation and Digestion System
     J. Comp. Chem. 2022 44(3), 381
     doi.org/10.1002/jcc.26942

List of suggested additional citations. These are papers that are important in the 'surrounding' of 
of this run, or papers that preceded the highly important papers. If you like your results we are grateful for a citation.

  1. Izsak, R.; Neese, F.
     An overlap fitted chain of spheres exchange method
     J. Chem. Phys. 2011 135 , 144105
     doi.org/10.1063/1.3646921
  2. Izsak, R.; Hansen, A.; Neese, F.
     The resolution of identity and chain of spheres approximations for the LPNO-CCSD singles Fock term
     Molec. Phys. 2012 110 , 2413-2417
     doi.org/10.1080/00268976.2012.687466
  3. Neese, F.
     The ORCA program system
     WIRES Comput. Molec. Sci. 2012 2(1), 73-78
     doi.org/10.1002/wcms.81
  4. Izsak, R.; Neese, F.; Klopper, W.
     Robust fitting techniques in the chain of spheres approximation to the Fock exchange: The role of the complementary space
     J. Chem. Phys. 2013 139 , 
     doi.org/10.1063/1.4819264
  5. Neese, F.
     Software update: the ORCA program system, version 4.0
     WIRES Comput. Molec. Sci. 2018 8(1), 1-6
     doi.org/10.1002/wcms.1327
  6. Neese, F.; Wennmohs, F.; Becker, U.; Riplinger, C.
     The ORCA quantum chemistry program package
     J. Chem. Phys. 2020 152(22), 224108
     doi.org/10.1063/5.0004608
  7. Neese, F.
     Software update: The ORCA program system—Version 5.0
     WIRES Comput. Molec. Sci. 2022 12(1), e1606
     doi.org/10.1002/wcms.1606

List of optional additional citations

  1. Neese, F.
     Approximate second-order SCF convergence for spin unrestricted wavefunctions
     Chem. Phys. Lett. 2000 325(1-3), 93-98
     doi.org/10.1016/s0009-2614(00)00662-x

Timings for individual modules:

Sum of individual times          ...      108.828 sec (=   1.814 min)
Startup calculation              ...       14.446 sec (=   0.241 min)  13.3 %
SCF iterations                   ...       90.451 sec (=   1.508 min)  83.1 %
Property calculations            ...        3.931 sec (=   0.066 min)   3.6 %
                             ****ORCA TERMINATED NORMALLY****
TOTAL RUN TIME: 0 days 0 hours 1 minutes 55 seconds 810 msec
