
                                 *****************
                                 * O   R   C   A *
                                 *****************

                                            #,                                       
                                            ###                                      
                                            ####                                     
                                            #####                                    
                                            ######                                   
                                           ########,                                 
                                     ,,################,,,,,                         
                               ,,#################################,,                 
                          ,,##########################################,,             
                       ,#########################################, ''#####,          
                    ,#############################################,,   '####,        
                  ,##################################################,,,,####,       
                ,###########''''           ''''###############################       
              ,#####''   ,,,,##########,,,,          '''####'''          '####       
            ,##' ,,,,###########################,,,                        '##       
           ' ,,###''''                  '''############,,,                           
         ,,##''                                '''############,,,,        ,,,,,,###''
      ,#''                                            '''#######################'''  
     '                                                          ''''####''''         
             ,#######,   #######,   ,#######,      ##                                
            ,#'     '#,  ##    ##  ,#'     '#,    #''#        ,####,   ,####,        
            ##       ##  ##   ,#'  ##            #'  '#       #'       #'  '#        
            ##       ##  #######   ##           ,######,      #####,   #    #        
            '#,     ,#'  ##    ##  '#,     ,#' ,#      #,     #,   #   #,  ,#        
             '#######'   ##     ##  '#######'  #'      '#     '####' # '####'        



                #########################################################
                #                        -***-                          #
                #          Department of theory and spectroscopy        #
                #                                                       #
                #                      Frank Neese                      #
                #                                                       #
                #     Directorship, Architecture, Infrastructure        #
                #                    SHARK, DRIVERS                     #
                #        Core code/Algorithms in most modules           #
                #                                                       #
                #        Max Planck Institute fuer Kohlenforschung      #
                #                Kaiser Wilhelm Platz 1                 #
                #                 D-45470 Muelheim/Ruhr                 #
                #                      Germany                          #
                #                                                       #
                #                  All rights reserved                  #
                #                        -***-                          #
                #########################################################


                         Program Version 6.0.1  -  RELEASE   -


 With contributions from (in alphabetic order):
[Max-Planck-Institut fuer Kohlenforschung]                               
  Daniel Aravena         : Magnetic Suceptibility                        
  Michael Atanasov       : Ab Initio Ligand Field Theory (pilot matlab implementation)
  Alexander A. Auer      : GIAO ZORA, VPT2 properties, NMR spectrum      
  Ute Becker             : All parallelization in ORCA, NUMFREQ, NUMCALC 
  Giovanni Bistoni       : ED, misc. LED, open-shell LED, HFLD           
  Martin Brehm           : Molecular dynamics                            
  Dmytro Bykov           : pre 5.0 version of the SCF Hessian            
  Marcos Casanova-Páez   : Triplet and SCS-CIS(D). UHF-(DLPNO)-IP/EA/STEOM-CCSD. UHF-CVS-IP/STEOM-CCSD   
  Vijay G. Chilkuri      : MRCI spin determinant printing, contributions to CSF-ICE 
  Pauline Colinet        : FMM embedding                                 
  Dipayan Datta          : RHF DLPNO-CCSD density                        
  Achintya Kumar Dutta   : EOM-CC, STEOM-CC                              
  Nicolas Foglia         : Exact transition moments, OPA infrastructure, MCD improvements    
  Dmitry Ganyushin       : Spin-Orbit,Spin-Spin,Magnetic field MRCI      
  Miquel Garcia-Rates    : C-PCM and meta-GGA Hessian, CCSD/C-PCM, Gaussian charge scheme 
  Tiago L. C. Gouveia    : GS-ROHF, GS-ROCIS                             
  Yang Guo               : DLPNO-NEVPT2, F12-NEVPT2, CIM, IAO-localization        
  Andreas Hansen         : Spin unrestricted coupled pair/coupled cluster methods 
  Ingolf Harden          : AUTO-CI MPn and infrastructure                
  Benjamin Helmich-Paris : MC-RPA, TRAH-(SCF,CASSCF), AVAS, COSX integrals, SCF dyn. polar. 
  Lee Huntington         : MR-EOM, pCC                                   
  Robert Izsak           : Overlap fitted RIJCOSX, COSX-SCS-MP3, EOM     
  Riya Kayal             : Wick's Theorem for AUTO-CI, AUTO-CI UHF-CCSDT 
  Emily Kempfer          : AUTO-CI, RHF CISDT and CCSDT                  
  Christian Kollmar      : KDIIS, OOCD, Brueckner-CCSD(T), CCSD density, CASPT2, CASPT2-K, improved NEVPT2 
  Axel Koslowski         : Symmetry handling                             
  Simone Kossmann        : meta-GGA functionals, TD-DFT gradient, OOMP2, (MP2 Hessian; deprecated post 5.0) 
  Lucas Lang             : DCDCAS                                        
  Marvin Lechner         : AUTO-CI (C++ implementation), FIC-MRCC        
  Spencer Leger          : CASSCF response                               
  Dagmar Lenk            : GEPOL surface, SMD, ORCA-2-JSON               
  Dimitrios Liakos       : Extrapolation schemes; Compound Job, initial MDCI parallelization 
  Dimitrios Manganas     : Further ROCIS development; embedding schemes. LFT, Crystal Embedding 
  Dimitrios Pantazis     : SARC Basis sets                               
  Anastasios Papadopoulos: AUTO-CI, single reference methods and gradients 
  Taras Petrenko         : pre 6.0 DFT Hessian and TD-DFT gradient, (ASA, deprecated), ECA, 1-Electron XAS/XES, NRVS 
  Peter Pinski           : DLPNO-MP2, DLPNO-MP2 Gradient                 
  Christoph Reimann      : Effective Core Potentials                     
  Marius Retegan         : Local ZFS, SOC                                
  Christoph Riplinger    : Optimizer, TS searches, QM/MM, DLPNO-CCSD(T), (RO)-DLPNO pert. Triples 
  Michael Roemelt        : Original ROCIS implementation                 
  Masaaki Saitow         : Open-shell DLPNO-CCSD energy and density      
  Barbara Sandhoefer     : DKH picture change effects                    
  Kantharuban Sivalingam : CASSCF convergence/infrastructure, NEVPT2 and variants, FIC-MRCI 
  Bernardo de Souza      : ESD, SOC TD-DFT                               
  Georgi L. Stoychev     : AutoAux, RI-MP2 NMR, DLPNO-MP2 response, X2C  
  Van Anh Tran           : RI-MP2 g-tensors                              
  Willem Van den Heuvel  : Paramagnetic NMR                              
  Zikuan Wang            : NOTCH, Electric field optimization            
  Frank Wennmohs         : Technical directorship and infrastructure     
  Hang Xu                : AUTO-CI-Response properties                   
                                                                         
[FACCTs GmbH]                                                            
  Markus Bursch, Miquel Garcia-Rates, Christoph Riplinger, Bernardo de Souza, Georgi L. Stoychev 
                                                                 
  APM, Basis sets (HGBS, AHGBS, def-TZVP (Ac-Lr), def2-XVPD (La-Lu)), CI-OPT, improved COSX, DLPNO-Multilevel,           
  DOCKER, DRACO, updates on ESD, GOAT, IRC, LR-CPCM, MBIS, meta-GGA TD-DFT gradient, ML-optimized integration grids, 
  MM, NACMEs, nearIR, NEB, NEB-TS, NL-DFT gradient (VV10), 2- and 3-layer-ONIOM, interface openCOSMO-RS, QMMM,   
  Crystal-QMMM, SF, symmetry and pop. for TD-DFT, r2SCAN hybrids, SOLVATOR                                   
                                                                         
[Other institutions]                                                     
  V. Asgeirsson          : NEB                                           
  Christoph Bannwarth    : sTDA-DFT, sTD-DFT, PBEh-3c, B97-3c, D3        
  Sebastian Ehlert       : rSCAN, r2SCAN, r2SCAN-3c, D4, dhf basis sets  
  Marvin Friede          : D4 for Fr, Ra, Ac-Lr                          
  Lars Goerigk           : TD-DFT with DH, B97 family of functionals     
  Stefan Grimme          : VdW corrections, initial TS optimization, DFT functionals, gCP, sTDA/sTD-DF 
  Waldemar Hujo          : DFT-NL                                        
  H. Jonsson             : NEB                                           
  Holger Kruse           : gCP                                           
  Marcel Mueller         : wB97X-3c, vDZP basis set                      
  Hagen Neugebauer       : wr2SCAN                                       
  Tobias Risthaus        : range-separated hybrid DFT                    
  Lukas Wittmann         : regularized MP2, r2SCAN double-hybrids, wr2SCAN        
                                                                         
We gratefully acknowledge several colleagues who have allowed us to      
interface, adapt or use parts of their codes:                            
  Ed Valeev, F. Pavosevic, A. Kumar             : LibInt (2-el integral package), F12 methods 
  Garnet Chan, S. Sharma, J. Yang, R. Olivares  : DMRG                   
  Ulf Ekstrom                                   : XCFun DFT Library      
  Mihaly Kallay                                 : mrcc  (arbitrary order and MRCC methods)
  Frank Weinhold                                : gennbo (NPA and NBO analysis)           
  Simon Mueller                                 : openCOSMO-RS                            
  Christopher J. Cramer and Donald G. Truhlar   : smd solvation model                     
  S Lehtola, MJT Oliveira, MAL Marques          : LibXC Library                           
  Liviu Ungur et al                             : ANISO software                          


 Your calculation uses the libint2 library for the computation of 2-el integrals
 For citations please refer to: http://libint.valeyev.net

 Your ORCA version has been built with support for libXC version: 6.2.2
 For citations please refer to: https://libxc.gitlab.io

 This ORCA versions uses:
   CBLAS   interface :  Fast vector & matrix operations
   LAPACKE interface :  Fast linear algebra routines
   SCALAPACK package :  Parallel linear algebra routines
   Shared memory     :  Shared parallel matrices
   BLAS/LAPACK       :  OpenBLAS 0.3.27  USE64BITINT DYNAMIC_ARCH NO_AFFINITY Zen SINGLE_THREADED
        Core in use  :  Zen
   Copyright (c) 2011-2014, The OpenBLAS Project


Warning: RI is on but no J-basis has been assigned. Assigning Def2/J (nothing to worry about!)
================================================================================

----- Orbital basis set information -----
Your calculation utilizes the basis: def2-SVP
   F. Weigend and R. Ahlrichs, Phys. Chem. Chem. Phys. 7, 3297 (2005).

----- AuxJ basis set information -----
Your calculation utilizes the auxiliary basis: def2/J
   F. Weigend, Phys. Chem. Chem. Phys. 8, 1057 (2006).

================================================================================
                                        WARNINGS
                       Please study these warnings very carefully!
================================================================================


WARNING: Geometry Optimization
  ===> : Switching off AutoStart
         For restart on a previous wavefunction, please use MOREAD

================================================================================
                                       INPUT FILE
================================================================================
NAME = input.inp
|  1> ! Opt B3LYP def2-SVP TightSCF
|  2> %geom Constraints
|  3>   { C 2 C }
|  4>   { C 11 C } 
|  5> end
|  6> end
|  7> * xyz 0 1
|  8>  C                 -1.53366864   -0.71741591    0.00013594
|  9>  C                 -0.13226872   -0.71751959    0.00058413
| 10>  C                  0.56852129    0.49607631    0.00001077
| 11>  C                 -0.13208863    1.70977588   -0.00100688
| 12>  C                 -1.53348855    1.70987957   -0.00145414
| 13>  C                 -2.23427856    0.49628367   -0.00088152
| 14>  H                 -2.06873737   -1.64402330    0.00057299
| 15>  H                  0.40266250   -1.64420615    0.00136022
| 16>  H                  0.40298010    2.63638328   -0.00144537
| 17>  H                 -2.06841977    2.63656613   -0.00223167
| 18>  H                 -3.30427850    0.49636284   -0.00122406
| 19>  O                  1.99852121    0.49597050    0.00046412
| 20>  H                  2.31880809    0.49535354   -0.90453087
| 21> *
| 22> 
| 23>                          ****END OF INPUT****
================================================================================

                       *****************************
                       * Geometry Optimization Run *
                       *****************************

Geometry optimization settings:
Update method            Update   .... BFGS
Choice of coordinates    CoordSys .... (2022) Redundant Internals
Initial Hessian          InHess   .... Almloef's Model
Max. no of cycles        MaxIter  .... 50

Convergence Tolerances:
Energy Change            TolE     ....  5.0000e-06 Eh
Max. Gradient            TolMAXG  ....  3.0000e-04 Eh/bohr
RMS Gradient             TolRMSG  ....  1.0000e-04 Eh/bohr
Max. Displacement        TolMAXD  ....  4.0000e-03 bohr
RMS Displacement         TolRMSD  ....  2.0000e-03 bohr
Strict Convergence                .... False

------------------------------------------------------------------------------
                        ORCA OPTIMIZATION COORDINATE SETUP
------------------------------------------------------------------------------

The optimization will be done in redundant internal coordinates (2022)
Making redundant internal coordinates   ...  (2022 redundants) done
Evaluating the initial hessian          ...  (Almloef) done
Evaluating the coordinates              ...  done
Calculating the B-matrix                .... done
Calculating the G-matrix                .... done
Diagonalizing the G-matrix              .... done
Will constrain atom 2 coordinate 1 
Will constrain atom 2 coordinate 2 
Will constrain atom 2 coordinate 3 
Will constrain atom 11 coordinate 1 
Will constrain atom 11 coordinate 2 
Will constrain atom 11 coordinate 3 
Small eigenvalue found = 4.132e-03
Small eigenvalue found = 8.719e-03
The first mode is                       ....   26
The number of degrees of freedom        ....   38
Storing new coordinates                 .... done

    -----------------------------------------------------------------
                    Redundant Internal Coordinates


    -----------------------------------------------------------------
         Definition                    Initial Value    Approx d2E/dq
    -----------------------------------------------------------------
      1. B(C   1,C   0)                  1.4014         0.599171   
      2. B(C   2,C   1)                  1.4014         0.599171   
      3. B(C   3,C   2)                  1.4014         0.599171   
      4. B(C   4,C   3)                  1.4014         0.599171   
      5. B(C   5,C   0)                  1.4014         0.599171   
      6. B(C   5,C   4)                  1.4014         0.599171   
      7. B(H   6,C   0)                  1.0700         0.387554   
      8. B(H   7,C   1)                  1.0700         0.387554   
      9. B(H   8,C   3)                  1.0700         0.387554   
     10. B(H   9,C   4)                  1.0700         0.387554   
     11. B(H  10,C   5)                  1.0700         0.387554   
     12. B(O  11,C   2)                  1.4300         0.483123   
     13. B(H  12,O  11)                  0.9600         0.519956   
     14. A(C   1,C   0,H   6)          120.0000         0.355267   
     15. A(C   1,C   0,C   5)          120.0000         0.428769   
     16. A(C   5,C   0,H   6)          120.0000         0.355267   
     17. A(C   2,C   1,H   7)          120.0000         0.355267   
     18. A(C   0,C   1,C   2)          120.0000         0.428769   
     19. A(C   0,C   1,H   7)          120.0000         0.355267   
     20. A(C   3,C   2,O  11)          120.0000         0.409948   
     21. A(C   1,C   2,C   3)          120.0000         0.428769   
     22. A(C   1,C   2,O  11)          120.0000         0.409948   
     23. A(C   2,C   3,H   8)          120.0000         0.355267   
     24. A(C   4,C   3,H   8)          120.0000         0.355267   
     25. A(C   2,C   3,C   4)          120.0000         0.428769   
     26. A(C   3,C   4,C   5)          120.0000         0.428769   
     27. A(C   3,C   4,H   9)          120.0000         0.355267   
     28. A(C   5,C   4,H   9)          120.0000         0.355267   
     29. A(C   4,C   5,H  10)          120.0000         0.355267   
     30. A(C   0,C   5,C   4)          120.0000         0.428769   
     31. A(C   0,C   5,H  10)          120.0000         0.355267   
     32. A(C   2,O  11,H  12)          109.4712         0.354684   
     33. D(C   2,C   1,C   0,H   6)    180.0000         0.024745   
     34. D(C   2,C   1,C   0,C   5)     -0.0002         0.024745   
     35. D(H   7,C   1,C   0,H   6)      0.0002         0.024745   
     36. D(H   7,C   1,C   0,C   5)   -180.0000         0.024745   
     37. D(C   3,C   2,C   1,H   7)    179.9999         0.024745   
     38. D(O  11,C   2,C   1,C   0)   -179.9998         0.024745   
     39. D(C   3,C   2,C   1,C   0)      0.0002         0.024745   
     40. D(O  11,C   2,C   1,H   7)     -0.0001         0.024745   
     41. D(C   4,C   3,C   2,C   1)     -0.0001         0.024745   
     42. D(C   4,C   3,C   2,O  11)    179.9999         0.024745   
     43. D(H   8,C   3,C   2,C   1)   -180.0000         0.024745   
     44. D(H   8,C   3,C   2,O  11)      0.0000         0.024745   
     45. D(C   5,C   4,C   3,C   2)      0.0001         0.024745   
     46. D(C   5,C   4,C   3,H   8)    179.9999         0.024745   
     47. D(H   9,C   4,C   3,C   2)   -180.0000         0.024745   
     48. D(H   9,C   4,C   3,H   8)     -0.0002         0.024745   
     49. D(C   4,C   5,C   0,C   1)      0.0002         0.024745   
     50. D(H  10,C   5,C   4,C   3)   -179.9999         0.024745   
     51. D(H  10,C   5,C   0,C   1)    180.0000         0.024745   
     52. D(H  10,C   5,C   0,H   6)     -0.0002         0.024745   
     53. D(C   0,C   5,C   4,C   3)     -0.0001         0.024745   
     54. D(C   4,C   5,C   0,H   6)   -180.0000         0.024745   
     55. D(C   0,C   5,C   4,H   9)    180.0000         0.024745   
     56. D(H  10,C   5,C   4,H   9)      0.0001         0.024745   
     57. D(H  12,O  11,C   2,C   1)     90.0000         0.016748   
     58. D(H  12,O  11,C   2,C   3)    -90.0000         0.016748   
     59. C_2(C   2)                      0.0000         1.000000 C 
     60. C_1(C   2)                      0.4961         1.000000 C 
     61. C_0(C   2)                      0.5685         1.000000 C 
     62. C_2(O  11)                      0.0005         1.000000 C 
     63. C_1(O  11)                      0.4960         1.000000 C 
     64. C_0(O  11)                      1.9985         1.000000 C 
    -----------------------------------------------------------------

Number of atoms                         .... 13
Number of degrees of freedom            .... 58


         *************************************************************
         *                GEOMETRY OPTIMIZATION CYCLE   1            *
         *************************************************************
---------------------------------
CARTESIAN COORDINATES (ANGSTROEM)
---------------------------------
  C     -1.533669   -0.717416    0.000136
  C     -0.132269   -0.717520    0.000584
  C      0.568521    0.496076    0.000011
  C     -0.132089    1.709776   -0.001007
  C     -1.533489    1.709880   -0.001454
  C     -2.234279    0.496284   -0.000882
  H     -2.068737   -1.644023    0.000573
  H      0.402662   -1.644206    0.001360
  H      0.402980    2.636383   -0.001445
  H     -2.068420    2.636566   -0.002232
  H     -3.304279    0.496363   -0.001224
  O      1.998521    0.495970    0.000464
  H      2.318808    0.495354   -0.904531

----------------------------
CARTESIAN COORDINATES (A.U.)
----------------------------
  NO LB      ZA    FRAG     MASS         X           Y           Z
   0 C     6.0000    0    12.011   -2.898214   -1.355720    0.000257
   1 C     6.0000    0    12.011   -0.249952   -1.355916    0.001104
   2 C     6.0000    0    12.011    1.074350    0.937448    0.000020
   3 C     6.0000    0    12.011   -0.249611    3.231008   -0.001903
   4 C     6.0000    0    12.011   -2.897873    3.231204   -0.002748
   5 C     6.0000    0    12.011   -4.222175    0.937840   -0.001666
   6 H     1.0000    0     1.008   -3.909347   -3.106754    0.001083
   7 H     1.0000    0     1.008    0.760922   -3.107099    0.002570
   8 H     1.0000    0     1.008    0.761522    4.982042   -0.002731
   9 H     1.0000    0     1.008   -3.908747    4.982388   -0.004217
  10 H     1.0000    0     1.008   -6.244181    0.937990   -0.002313
  11 O     8.0000    0    15.999    3.776658    0.937248    0.000877
  12 H     1.0000    0     1.008    4.381912    0.936083   -1.709316

--------------------------------
INTERNAL COORDINATES (ANGSTROEM)
--------------------------------
 C      0   0   0     0.000000000000     0.00000000     0.00000000
 C      1   0   0     1.401399995504     0.00000000     0.00000000
 C      2   1   0     1.401400005478   120.00000002     0.00000000
 C      3   2   1     1.401399993518   119.99999978     0.00000000
 C      4   3   2     1.401399995208   120.00000059     0.00000000
 C      1   2   3     1.401400002041   120.00000000     0.00000000
 H      1   2   3     1.069999996280   120.00000061   179.99995530
 H      2   1   3     1.069999996697   120.00000001   180.00024028
 H      4   3   2     1.070000005529   119.99999950   180.00004433
 H      5   4   3     1.069999997742   120.00000039   180.00003288
 H      6   1   2     1.069999997758   120.00000044   179.99997916
 O      3   2   1     1.429999995777   119.99999956   180.00018445
 H     12   3   2     0.959999998992   109.47122065    89.99999978

---------------------------
INTERNAL COORDINATES (A.U.)
---------------------------
 C      0   0   0     0.000000000000     0.00000000     0.00000000
 C      1   0   0     2.648262195582     0.00000000     0.00000000
 C      2   1   0     2.648262214430   120.00000002     0.00000000
 C      3   2   1     2.648262191828   119.99999978     0.00000000
 C      4   3   2     2.648262195022   120.00000059     0.00000000
 C      1   2   3     2.648262207933   120.00000000     0.00000000
 H      1   2   3     2.022006956266   120.00000061   179.99995530
 H      2   1   3     2.022006957053   120.00000001   180.00024028
 H      4   3   2     2.022006973744   119.99999950   180.00004433
 H      5   4   3     2.022006959029   120.00000039   180.00003288
 H      6   1   2     2.022006959058   120.00000044   179.99997916
 O      3   2   1     2.702308363527   119.99999956   180.00018445
 H     12   3   2     1.814137086660   109.47122065    89.99999978

---------------------
BASIS SET INFORMATION
---------------------
There are 3 groups of distinct atoms

 Group   1 Type C   : 7s4p1d contracted to 3s2p1d pattern {511/31/1}
 Group   2 Type H   : 4s1p contracted to 2s1p pattern {31/1}
 Group   3 Type O   : 7s4p1d contracted to 3s2p1d pattern {511/31/1}

Atom   0C    basis set group =>   1
Atom   1C    basis set group =>   1
Atom   2C    basis set group =>   1
Atom   3C    basis set group =>   1
Atom   4C    basis set group =>   1
Atom   5C    basis set group =>   1
Atom   6H    basis set group =>   2
Atom   7H    basis set group =>   2
Atom   8H    basis set group =>   2
Atom   9H    basis set group =>   2
Atom  10H    basis set group =>   2
Atom  11O    basis set group =>   3
Atom  12H    basis set group =>   2
---------------------------------
AUXILIARY/J BASIS SET INFORMATION
---------------------------------
There are 3 groups of distinct atoms

 Group   1 Type C   : 12s5p4d2f1g contracted to 6s4p3d1f1g pattern {711111/2111/211/2/1}
 Group   2 Type H   : 5s2p1d contracted to 3s1p1d pattern {311/2/1}
 Group   3 Type O   : 12s5p4d2f1g contracted to 6s4p3d1f1g pattern {711111/2111/211/2/1}

Atom   0C    basis set group =>   1
Atom   1C    basis set group =>   1
Atom   2C    basis set group =>   1
Atom   3C    basis set group =>   1
Atom   4C    basis set group =>   1
Atom   5C    basis set group =>   1
Atom   6H    basis set group =>   2
Atom   7H    basis set group =>   2
Atom   8H    basis set group =>   2
Atom   9H    basis set group =>   2
Atom  10H    basis set group =>   2
Atom  11O    basis set group =>   3
Atom  12H    basis set group =>   2
------------------------------------------------------------------------------
                             ORCA STARTUP CALCULATIONS
                           -- RI-GTO INTEGRALS CHOSEN --
------------------------------------------------------------------------------
------------------------------------------------------------------------------
                   ___                                                        
                  /   \      - P O W E R E D   B Y -                         
                 /     \                                                     
                 |  |  |   _    _      __       _____    __    __             
                 |  |  |  | |  | |    /  \     |  _  \  |  |  /  |          
                  \  \/   | |  | |   /    \    | | | |  |  | /  /          
                 / \  \   | |__| |  /  /\  \   | |_| |  |  |/  /          
                |  |  |   |  __  | /  /__\  \  |    /   |      \           
                |  |  |   | |  | | |   __   |  |    \   |  |\   \          
                \     /   | |  | | |  |  |  |  | |\  \  |  | \   \       
                 \___/    |_|  |_| |__|  |__|  |_| \__\ |__|  \__/        
                                                                              
                      - O R C A' S   B I G   F R I E N D -                    
                                      &                                       
                       - I N T E G R A L  F E E D E R -                       
                                                                              
 v1 FN, 2020, v2 2021, v3 2022-2024                                           
------------------------------------------------------------------------------


----------------------
SHARK INTEGRAL PACKAGE
----------------------

Number of atoms                             ...     13
Number of basis functions                   ...    128
Number of shells                            ...     60
Maximum angular momentum                    ...      2
Integral batch strategy                     ... SHARK/LIBINT Hybrid
RI-J (if used) integral strategy            ... SPLIT-RIJ (Revised 2003 algorithm where possible)
Printlevel                                  ...      1
Contraction scheme used                     ... SEGMENTED contraction
Prescreening option                         ... SCHWARTZ
   Thresh                                   ... 2.500e-11
   Tcut                                     ... 2.500e-12
   Tpresel                                  ... 2.500e-12 
Coulomb Range Separation                    ... NOT USED
Exchange Range Separation                   ... NOT USED
Multipole approximations                    ... NOT USED
Finite Nucleus Model                        ... NOT USED
CABS basis                                  ... NOT available
Auxiliary Coulomb fitting basis             ... AVAILABLE
   # of basis functions in Aux-J            ...    409
   # of shells in Aux-J                     ...    135
   Maximum angular momentum in Aux-J        ...      4
Auxiliary J/K fitting basis                 ... NOT available
Auxiliary Correlation fitting basis         ... NOT available
Auxiliary 'external' fitting basis          ... NOT available

Checking pre-screening integrals            ... done (  0.0 sec) Dimension = 60
Check shell pair data                       ... done (  0.0 sec)
Shell pair information
Shell pair cut-off parameter TPreSel        ...   2.5e-12
Total number of shell pairs                 ...      1830
Shell pairs after pre-screening             ...      1769
Total number of primitive shell pairs       ...      6664
Primitive shell pairs kept                  ...      4910
          la=0 lb=0:    539 shell pairs
          la=1 lb=0:    639 shell pairs
          la=1 lb=1:    202 shell pairs
          la=2 lb=0:    224 shell pairs
          la=2 lb=1:    137 shell pairs
          la=2 lb=2:     28 shell pairs

Calculating one electron integrals          ... done (  0.0 sec)
Calculating RI/J V-Matrix + Cholesky decomp.... done (  0.0 sec)
Calculating Nuclear repulsion               ... done (  0.0 sec) ENN=    268.680445357202 Eh

Diagonalization of the overlap matrix:
Smallest eigenvalue                        ... 2.915e-04
Time for diagonalization                   ...    0.002 sec
Threshold for overlap eigenvalues          ... 1.000e-07
Number of eigenvalues below threshold      ... 0
Time for construction of square roots      ...    0.002 sec
Total time needed                          ...    0.005 sec

-------------------
DFT GRID GENERATION
-------------------

General Integration Accuracy     IntAcc      ... 4.388
Radial Grid Type                 RadialGrid  ... OptM3 with GC (2021)
Angular Grid (max. ang.)         AngularGrid ... 4 (Lebedev-302)
Angular grid pruning method      GridPruning ... 4 (adaptive)
Weight generation scheme         WeightScheme... mBecke (2022)
Basis function cutoff            BFCut       ... 1.0000e-11
Integration weight cutoff        WCut        ... 1.0000e-14
Partially contracted basis set               ... off
Rotationally invariant grid construction     ... off
Angular grids for H and He will be reduced by one unit

Total number of grid points                  ...    61593
Total number of batches                      ...      971
Average number of points per batch           ...       63
Average number of grid points per atom       ...     4738

--------------------
COSX GRID GENERATION
--------------------

GRIDX 1
-------
General Integration Accuracy     IntAcc      ... 3.816
Radial Grid Type                 RadialGrid  ... OptM3 with GC (2021)
Angular Grid (max. ang.)         AngularGrid ... 1 (Lebedev-50)
Angular grid pruning method      GridPruning ... 4 (adaptive)
Weight generation scheme         WeightScheme... mBecke (2022)
Basis function cutoff            BFCut       ... 1.0000e-11
Integration weight cutoff        WCut        ... 1.0000e-14
Partially contracted basis set               ... on
Rotationally invariant grid construction     ... off
Angular grids for H and He will be reduced by one unit

Total number of grid points                  ...     7888
Total number of batches                      ...       67
Average number of points per batch           ...      117
Average number of grid points per atom       ...      607
UseSFitting                                  ... on

GRIDX 2
-------
General Integration Accuracy     IntAcc      ... 4.020
Radial Grid Type                 RadialGrid  ... OptM3 with GC (2021)
Angular Grid (max. ang.)         AngularGrid ... 2 (Lebedev-110)
Angular grid pruning method      GridPruning ... 4 (adaptive)
Weight generation scheme         WeightScheme... mBecke (2022)
Basis function cutoff            BFCut       ... 1.0000e-11
Integration weight cutoff        WCut        ... 1.0000e-14
Partially contracted basis set               ... on
Rotationally invariant grid construction     ... off
Angular grids for H and He will be reduced by one unit

Total number of grid points                  ...    17267
Total number of batches                      ...      141
Average number of points per batch           ...      122
Average number of grid points per atom       ...     1328
UseSFitting                                  ... on

GRIDX 3
-------
General Integration Accuracy     IntAcc      ... 4.338
Radial Grid Type                 RadialGrid  ... OptM3 with GC (2021)
Angular Grid (max. ang.)         AngularGrid ... 3 (Lebedev-194)
Angular grid pruning method      GridPruning ... 4 (adaptive)
Weight generation scheme         WeightScheme... mBecke (2022)
Basis function cutoff            BFCut       ... 1.0000e-11
Integration weight cutoff        WCut        ... 1.0000e-14
Partially contracted basis set               ... on
Rotationally invariant grid construction     ... off
Angular grids for H and He will be reduced by one unit

Total number of grid points                  ...    38017
Total number of batches                      ...      304
Average number of points per batch           ...      125
Average number of grid points per atom       ...     2924
UseSFitting                                  ... on
Initializing property integral containers    ... done (  0.0 sec)

SHARK setup successfully completed in   1.1 seconds

Maximum memory used throughout the entire STARTUP-calculation: 25.1 MB
-------------------------------------------------------------------------------
                                 ORCA GUESS
                   Start orbitals & Density for SCF / CASSCF
-------------------------------------------------------------------------------

------------
SCF SETTINGS
------------
Hamiltonian:
 Density Functional     Method          .... DFT(GTOs)
 Exchange Functional    Exchange        .... B88
   X-Alpha parameter    XAlpha          ....  0.666667
   Becke's b parameter  XBeta           ....  0.004200
 Correlation Functional Correlation     .... LYP
 LDA part of GGA corr.  LDAOpt          .... VWN-5
 Gradients option       PostSCFGGA      .... off
 Hybrid DFT is turned on
   Fraction HF Exchange ScalHFX         ....  0.200000
   Scaling of DF-GGA-X  ScalDFX         ....  0.720000
   Scaling of DF-GGA-C  ScalDFC         ....  0.810000
   Scaling of DF-LDA-C  ScalLDAC        ....  1.000000
   Perturbative correction              ....  0.000000
   NL short-range parameter             ....  4.800000
 RI-approximation to the Coulomb term is turned on
   Number of AuxJ basis functions       .... 409
   RIJ-COSX (HFX calculated with COS-X)).... on


General Settings:
 Integral files         IntName         .... input
 Hartree-Fock type      HFTyp           .... RHF
 Total Charge           Charge          ....    0
 Multiplicity           Mult            ....    1
 Number of Electrons    NEL             ....   50
 Basis Dimension        Dim             ....  128
 Nuclear Repulsion      ENuc            ....    268.6804453572 Eh

Convergence Acceleration:
 AO-DIIS                CNVDIIS         .... on
   Start iteration      DIISMaxIt       ....    12
   Startup error        DIISStart       ....  0.200000
   # of expansion vecs  DIISMaxEq       ....     5
   Bias factor          DIISBfac        ....   1.050
   Max. coefficient     DIISMaxC        ....  10.000
 MO-DIIS                CNVKDIIS        .... off
 Trust-Rad. Augm. Hess. CNVTRAH         .... auto
   Auto Start mean grad. ratio tolernc. ....  1.125000
   Auto Start start iteration           ....    50
   Auto Start num. interpolation iter.  ....    10
   Max. Number of Micro iterations      ....    24
   Max. Number of Macro iterations      .... Maxiter - #DIIS iter
   Number of Davidson start vectors     ....     2
   Converg. threshold    (grad. norm)   ....   1.000e-05
   Grad. Scal. Fac. for Micro threshold ....   0.100
   Minimum threshold for Micro iter.    ....   1.000e-02
   NR start threshold (gradient norm)   ....   1.000e-04
   Initial trust radius                 ....   0.400
   Minimum AH scaling param. (alpha)    ....   1.000
   Maximum AH scaling param. (alpha)    .... 1000.000
   Quad. conv. algorithm                .... NR
   White noise on init. David. guess    .... on
   Maximum white noise                  ....   0.010
   Pseudo random numbers                .... off
   Inactive MOs                         .... canonical
   Orbital update algorithm             .... Taylor
   Preconditioner                       .... Diag
   Full preconditioner red. dimension   ....   250
 SOSCF                  CNVSOSCF        .... on
   Start iteration      SOSCFMaxIt      ....   150
   Startup grad/error   SOSCFStart      ....  0.003300
   Hessian update       SOSCFHessUp     .... L-BFGS
 Level Shifting         CNVShift        .... on
   Level shift para.    LevelShift      ....    0.2500
   Turn off err/grad.   ShiftErr        ....    0.0010
 Zerner damping         CNVZerner       .... off
 Static damping         CNVDamp         .... on
   Fraction old density DampFac         ....    0.7000
   Max. Damping (<1)    DampMax         ....    0.9800
   Min. Damping (>=0)   DampMin         ....    0.0000
   Turn off err/grad.   DampErr         ....    0.1000

SCF Procedure:
 Maximum # iterations   MaxIter         ....   125
 SCF integral mode      SCFMode         .... Direct
   Integral package                     .... SHARK and LIBINT hybrid scheme
 Reset frequency        DirectResetFreq ....    20
 Integral Threshold     Thresh          ....  2.500e-11 Eh
 Primitive CutOff       TCut            ....  2.500e-12 Eh

Convergence Tolerance:
 Convergence Check Mode ConvCheckMode   .... Total+1el-Energy
 Convergence forced     ConvForced      .... 0
 Energy Change          TolE            ....  1.000e-08 Eh
 1-El. energy change                    ....  1.000e-05 Eh
 Orbital Gradient       TolG            ....  1.000e-05
 Orbital Rotation angle TolX            ....  1.000e-05
 DIIS Error             TolErr          ....  5.000e-07

------------------------------
INITIAL GUESS: MODEL POTENTIAL
------------------------------
Loading Hartree-Fock densities                     ... done
Calculating cut-offs                               ... done
Initializing the effective Hamiltonian             ... done
Setting up the integral package (SHARK)            ... done
Starting the Coulomb interaction                   ... done (   0.1 sec)
Making the grid                                    ... done (   0.1 sec)
Mapping shells                                     ... done
Starting the XC term evaluation                    ... done (   0.1 sec)
  promolecular density results
     # of electrons  =     49.995816168
     EX              =    -40.807360493
     EC              =     -1.678298259
     EX+EC           =    -42.485658753
Transforming the Hamiltonian                       ... done (   0.0 sec)
Diagonalizing the Hamiltonian                      ... done (   0.0 sec)
Back transforming the eigenvectors                 ... done (   0.0 sec)
Now organizing SCF variables                       ... done
                      ------------------
                      INITIAL GUESS DONE (   0.3 sec)
                      ------------------
             **** ENERGY FILE WAS UPDATED (input.en.tmp) ****
Finished Guess after   0.4 sec
Maximum memory used throughout the entire GUESS-calculation: 13.1 MB

-------------------------------------------------------------------------------------------
                                      ORCA LEAN-SCF
                              memory conserving SCF solver
-------------------------------------------------------------------------------------------

----------------------------------------D-I-I-S--------------------------------------------
Iteration    Energy (Eh)           Delta-E    RMSDP     MaxDP     DIISErr   Damp  Time(sec)
-------------------------------------------------------------------------------------------
               ***  Starting incremental Fock matrix formation  ***
    1    -306.8847862973951806     0.00e+00  4.28e-03  6.58e-02  2.33e-01  0.700   2.2
    2    -306.9614079412361889    -7.66e-02  2.98e-03  3.91e-02  1.06e-01  0.700   1.2
                               ***Turning on AO-DIIS***
    3    -306.9939992768823913    -3.26e-02  1.35e-03  1.58e-02  3.37e-02  0.700   1.2
    4    -307.0131092398746659    -1.91e-02  2.52e-03  2.76e-02  2.08e-02  0.000   1.2
    5    -307.0542790562655000    -4.12e-02  3.24e-04  5.55e-03  4.74e-03  0.000   1.2
                              *** Initializing SOSCF ***
---------------------------------------S-O-S-C-F--------------------------------------
Iteration    Energy (Eh)           Delta-E    RMSDP     MaxDP     MaxGrad    Time(sec)
--------------------------------------------------------------------------------------
    6    -307.0544651841436234    -1.86e-04  1.29e-04  2.01e-03  1.19e-03     1.1
               *** Restarting incremental Fock matrix formation ***
    7    -307.0544701872848918    -5.00e-06  8.02e-05  1.06e-03  2.59e-04     2.2
    8    -307.0544692761559418     9.11e-07  3.14e-05  7.01e-04  4.41e-04     1.7
    9    -307.0544718468071324    -2.57e-06  1.55e-05  1.89e-04  6.50e-05     1.7
   10    -307.0544718362989443     1.05e-08  7.44e-06  1.19e-04  7.79e-05     1.6
   11    -307.0544719555838356    -1.19e-07  1.91e-06  3.35e-05  8.08e-06     1.5
   12    -307.0544719538117988     1.77e-09  1.07e-06  1.85e-05  1.07e-05     1.4
                 **** Energy Check signals convergence ****

               *****************************************************
               *                     SUCCESS                       *
               *           SCF CONVERGED AFTER  12 CYCLES          *
               *****************************************************

Recomputing exchange energy using gridx3       ... done (    3.374 sec)
Old exchange energy                            :     -8.280345479 Eh
New exchange energy                            :     -8.280400919 Eh
Exchange energy change after final integration :     -0.000055439 Eh
Total energy after final integration           :   -307.054527393 Eh
             **** ENERGY FILE WAS UPDATED (input.en.tmp) ****

----------------
TOTAL SCF ENERGY
----------------

Total Energy       :       -307.05452739317877 Eh           -8355.37847 eV

Components:
Nuclear Repulsion  :        268.68044535720230 Eh            7311.16661 eV
Electronic Energy  :       -575.73491731101410 Eh          -15666.54357 eV
One Electron Energy:       -947.47855736934912 Eh          -25782.20229 eV
Two Electron Energy:        371.74364005833502 Eh           10115.65872 eV

Virial components:
Potential Energy   :       -611.11084000826895 Eh          -16629.17137 eV
Kinetic Energy     :        304.05631261509023 Eh            8273.79290 eV
Virial Ratio       :          2.00986072202317

DFT components:
N(Alpha)           :       25.000041532721 electrons
N(Beta)            :       25.000041532721 electrons
N(Total)           :       50.000083065441 electrons
E(X)               :      -32.895385257043 Eh       
E(C)               :       -1.986052140290 Eh       
E(XC)              :      -34.881437397333 Eh       

---------------
SCF CONVERGENCE
---------------

  Last Energy change         ...   -1.7720e-09  Tolerance :   1.0000e-08
  Last MAX-Density change    ...    1.8471e-05  Tolerance :   1.0000e-07
  Last RMS-Density change    ...    1.0712e-06  Tolerance :   5.0000e-09
  Last DIIS Error            ...    1.1905e-03  Tolerance :   5.0000e-07
  Last Orbital Gradient      ...    1.0725e-05  Tolerance :   1.0000e-05
  Last Orbital Rotation      ...    7.4670e-06  Tolerance :   1.0000e-05


----------------
ORBITAL ENERGIES
----------------

  NO   OCC          E(Eh)            E(eV) 
   0   2.0000     -19.139459      -520.8112 
   1   2.0000     -10.242082      -278.7012 
   2   2.0000     -10.190442      -277.2960 
   3   2.0000     -10.190419      -277.2954 
   4   2.0000     -10.186718      -277.1947 
   5   2.0000     -10.186713      -277.1945 
   6   2.0000     -10.186504      -277.1889 
   7   2.0000      -1.009682       -27.4748 
   8   2.0000      -0.841008       -22.8850 
   9   2.0000      -0.740235       -20.1428 
  10   2.0000      -0.728972       -19.8363 
  11   2.0000      -0.605768       -16.4838 
  12   2.0000      -0.598989       -16.2993 
  13   2.0000      -0.537182       -14.6175 
  14   2.0000      -0.491715       -13.3803 
  15   2.0000      -0.460973       -12.5437 
  16   2.0000      -0.447359       -12.1732 
  17   2.0000      -0.425458       -11.5773 
  18   2.0000      -0.407313       -11.0835 
  19   2.0000      -0.365523        -9.9464 
  20   2.0000      -0.358235        -9.7481 
  21   2.0000      -0.348866        -9.4931 
  22   2.0000      -0.291106        -7.9214 
  23   2.0000      -0.256270        -6.9735 
  24   2.0000      -0.244970        -6.6660 
  25   0.0000      -0.010599        -0.2884 
  26   0.0000      -0.004742        -0.1290 
  27   0.0000       0.061414         1.6712 
  28   0.0000       0.069567         1.8930 
  29   0.0000       0.104344         2.8394 
  30   0.0000       0.118448         3.2231 
  31   0.0000       0.147337         4.0093 
  32   0.0000       0.151237         4.1154 
  33   0.0000       0.156669         4.2632 
  34   0.0000       0.217118         5.9081 
  35   0.0000       0.274558         7.4711 
*Only the first 10 virtual orbitals were printed.

                    ********************************
                    * MULLIKEN POPULATION ANALYSIS *
                    ********************************

-----------------------
MULLIKEN ATOMIC CHARGES
-----------------------
   0 C :    0.027295
   1 C :   -0.001155
   2 C :    0.175094
   3 C :   -0.001154
   4 C :    0.027294
   5 C :    0.035040
   6 H :   -0.024532
   7 H :   -0.035662
   8 H :   -0.035661
   9 H :   -0.024533
  10 H :   -0.027632
  11 O :   -0.296625
  12 H :    0.182231
Sum of atomic charges:   -0.0000000

--------------------------------
MULLIKEN REDUCED ORBITAL CHARGES
--------------------------------
  0 C s       :     3.155668  s :     3.155668
      pz      :     0.983240  p :     2.781994
      px      :     0.927153
      py      :     0.871601
      dz2     :     0.002518  d :     0.035043
      dxz     :     0.005545
      dyz     :     0.003291
      dx2y2   :     0.011230
      dxy     :     0.012459

  1 C s       :     3.236618  s :     3.236618
      pz      :     1.007211  p :     2.731511
      px      :     0.864551
      py      :     0.859749
      dz2     :     0.002558  d :     0.033026
      dxz     :     0.005185
      dyz     :     0.003365
      dx2y2   :     0.009530
      dxy     :     0.012388

  2 C s       :     2.981175  s :     2.981175
      pz      :     1.010493  p :     2.775856
      px      :     0.763857
      py      :     1.001506
      dz2     :     0.004607  d :     0.067875
      dxz     :     0.010739
      dyz     :     0.006755
      dx2y2   :     0.022839
      dxy     :     0.022935

  3 C s       :     3.236618  s :     3.236618
      pz      :     1.007195  p :     2.731511
      px      :     0.864527
      py      :     0.859790
      dz2     :     0.002558  d :     0.033026
      dxz     :     0.005184
      dyz     :     0.003366
      dx2y2   :     0.009530
      dxy     :     0.012388

  4 C s       :     3.155670  s :     3.155670
      pz      :     0.983242  p :     2.781993
      px      :     0.927167
      py      :     0.871584
      dz2     :     0.002518  d :     0.035043
      dxz     :     0.005546
      dyz     :     0.003290
      dx2y2   :     0.011231
      dxy     :     0.012458

  5 C s       :     3.150000  s :     3.150000
      pz      :     0.997755  p :     2.780357
      px      :     0.823270
      py      :     0.959332
      dz2     :     0.002502  d :     0.034603
      dxz     :     0.002240
      dyz     :     0.006153
      dx2y2   :     0.013234
      dxy     :     0.010474

  6 H s       :     1.000821  s :     1.000821
      pz      :     0.004987  p :     0.023712
      px      :     0.006474
      py      :     0.012251

  7 H s       :     1.011983  s :     1.011983
      pz      :     0.004996  p :     0.023679
      px      :     0.006543
      py      :     0.012139

  8 H s       :     1.011982  s :     1.011982
      pz      :     0.004996  p :     0.023679
      px      :     0.006545
      py      :     0.012138

  9 H s       :     1.000821  s :     1.000821
      pz      :     0.004987  p :     0.023712
      px      :     0.006472
      py      :     0.012253

 10 H s       :     1.003871  s :     1.003871
      pz      :     0.005114  p :     0.023761
      px      :     0.015078
      py      :     0.003569

 11 O s       :     3.715839  s :     3.715839
      pz      :     1.376525  p :     4.568299
      px      :     1.292939
      py      :     1.898835
      dz2     :     0.005077  d :     0.012487
      dxz     :     0.002355
      dyz     :     0.000728
      dx2y2   :     0.002986
      dxy     :     0.001341

 12 H s       :     0.747657  s :     0.747657
      pz      :     0.032401  p :     0.070112
      px      :     0.016970
      py      :     0.020741



                     *******************************
                     * LOEWDIN POPULATION ANALYSIS *
                     *******************************

----------------------
LOEWDIN ATOMIC CHARGES
----------------------
   0 C :   -0.016083
   1 C :   -0.039082
   2 C :    0.058617
   3 C :   -0.039082
   4 C :   -0.016083
   5 C :   -0.029263
   6 H :    0.023140
   7 H :    0.024787
   8 H :    0.024787
   9 H :    0.023140
  10 H :    0.021469
  11 O :   -0.121655
  12 H :    0.085308

-------------------------------
LOEWDIN REDUCED ORBITAL CHARGES
-------------------------------
  0 C s       :     2.858040  s :     2.858040
      pz      :     0.963970  p :     3.067469
      px      :     1.055386
      py      :     1.048113
      dz2     :     0.006146  d :     0.090574
      dxz     :     0.011735
      dyz     :     0.006336
      dx2y2   :     0.031863
      dxy     :     0.034495

  1 C s       :     2.864498  s :     2.864498
      pz      :     0.988794  p :     3.086802
      px      :     1.056881
      py      :     1.041127
      dz2     :     0.006585  d :     0.087782
      dxz     :     0.010860
      dyz     :     0.006462
      dx2y2   :     0.028744
      dxy     :     0.035131

  2 C s       :     2.855100  s :     2.855100
      pz      :     0.981738  p :     2.932557
      px      :     0.851890
      py      :     1.098929
      dz2     :     0.010008  d :     0.153726
      dxz     :     0.017546
      dyz     :     0.013957
      dx2y2   :     0.053459
      dxy     :     0.058755

  3 C s       :     2.864498  s :     2.864498
      pz      :     0.988789  p :     3.086802
      px      :     1.056880
      py      :     1.041133
      dz2     :     0.006585  d :     0.087782
      dxz     :     0.010859
      dyz     :     0.006464
      dx2y2   :     0.028743
      dxy     :     0.035131

  4 C s       :     2.858040  s :     2.858040
      pz      :     0.963970  p :     3.067469
      px      :     1.055389
      py      :     1.048110
      dz2     :     0.006146  d :     0.090574
      dxz     :     0.011736
      dyz     :     0.006334
      dx2y2   :     0.031864
      dxy     :     0.034494

  5 C s       :     2.857249  s :     2.857249
      pz      :     0.979258  p :     3.082123
      px      :     1.039816
      py      :     1.063050
      dz2     :     0.006161  d :     0.089890
      dxz     :     0.003843
      dyz     :     0.013174
      dx2y2   :     0.036224
      dxy     :     0.030488

  6 H s       :     0.906316  s :     0.906316
      pz      :     0.015303  p :     0.070544
      px      :     0.019846
      py      :     0.035394

  7 H s       :     0.903523  s :     0.903523
      pz      :     0.015936  p :     0.071690
      px      :     0.019872
      py      :     0.035882

  8 H s       :     0.903523  s :     0.903523
      pz      :     0.015935  p :     0.071690
      px      :     0.019876
      py      :     0.035878

  9 H s       :     0.906316  s :     0.906316
      pz      :     0.015303  p :     0.070544
      px      :     0.019843
      py      :     0.035398

 10 H s       :     0.907750  s :     0.907750
      pz      :     0.015764  p :     0.070781
      px      :     0.042849
      py      :     0.012168

 11 O s       :     3.444594  s :     3.444594
      pz      :     1.459602  p :     4.654020
      px      :     1.336891
      py      :     1.857526
      dz2     :     0.010311  d :     0.023041
      dxz     :     0.004548
      dyz     :     0.000240
      dx2y2   :     0.005707
      dxy     :     0.002235

 12 H s       :     0.732137  s :     0.732137
      pz      :     0.090096  p :     0.182555
      px      :     0.038381
      py      :     0.054078



                      *****************************
                      * MAYER POPULATION ANALYSIS *
                      *****************************

  NA   - Mulliken gross atomic population
  ZA   - Total nuclear charge
  QA   - Mulliken gross atomic charge
  VA   - Mayer's total valence
  BVA  - Mayer's bonded valence
  FA   - Mayer's free valence

  ATOM       NA         ZA         QA         VA         BVA        FA
  0 C      5.9727     6.0000     0.0273     3.8183     3.8183    -0.0000
  1 C      6.0012     6.0000    -0.0012     3.8239     3.8239    -0.0000
  2 C      5.8249     6.0000     0.1751     3.9071     3.9071    -0.0000
  3 C      6.0012     6.0000    -0.0012     3.8239     3.8239    -0.0000
  4 C      5.9727     6.0000     0.0273     3.8183     3.8183     0.0000
  5 C      5.9650     6.0000     0.0350     3.8255     3.8255     0.0000
  6 H      1.0245     1.0000    -0.0245     0.9775     0.9775     0.0000
  7 H      1.0357     1.0000    -0.0357     0.9953     0.9953    -0.0000
  8 H      1.0357     1.0000    -0.0357     0.9953     0.9953     0.0000
  9 H      1.0245     1.0000    -0.0245     0.9775     0.9775     0.0000
 10 H      1.0276     1.0000    -0.0276     0.9774     0.9774     0.0000
 11 O      8.2966     8.0000    -0.2966     2.0871     2.0871     0.0000
 12 H      0.8178     1.0000     0.1822     1.0010     1.0010     0.0000

  Mayer bond orders larger than 0.100000
B(  0-C ,  1-C ) :   1.3566 B(  0-C ,  5-C ) :   1.3849 B(  0-C ,  6-H ) :   0.9862 
B(  1-C ,  2-C ) :   1.3776 B(  1-C ,  7-H ) :   0.9950 B(  2-C ,  3-C ) :   1.3776 
B(  2-C , 11-O ) :   1.0375 B(  3-C ,  4-C ) :   1.3566 B(  3-C ,  8-H ) :   0.9950 
B(  4-C ,  5-C ) :   1.3849 B(  4-C ,  9-H ) :   0.9862 B(  5-C , 10-H ) :   0.9901 
B( 11-O , 12-H ) :   0.9754 

-------
TIMINGS
-------

Total SCF time: 0 days 0 hours 0 min 21 sec 

Total time                  ....      21.632 sec
Sum of individual times     ....      21.572 sec  ( 99.7%)

SCF preparation             ....       0.077 sec  (  0.4%)
Fock matrix formation       ....      21.377 sec  ( 98.8%)
  Startup                   ....       0.005 sec  (  0.0% of F)
  Split-RI-J                ....       1.621 sec  (  7.6% of F)
  Chain of spheres X        ....      15.498 sec  ( 72.5% of F)
  XC integration            ....       4.181 sec  ( 19.6% of F)
    XC Preparation          ....       0.000 sec  (  0.0% of XC)
    Basis function eval.    ....       1.755 sec  ( 42.0% of XC)
    Density eval.           ....       0.792 sec  ( 18.9% of XC)
    XC-Functional eval.     ....       0.443 sec  ( 10.6% of XC)
    XC-Potential eval.      ....       0.998 sec  ( 23.9% of XC)
Diagonalization             ....       0.000 sec  (  0.0%)
Density matrix formation    ....       0.023 sec  (  0.1%)
Total Energy calculation    ....       0.003 sec  (  0.0%)
Population analysis         ....       0.007 sec  (  0.0%)
Orbital Transformation      ....       0.010 sec  (  0.0%)
Orbital Orthonormalization  ....       0.000 sec  (  0.0%)
DIIS solution               ....       0.045 sec  (  0.2%)
SOSCF solution              ....       0.030 sec  (  0.1%)
Finished LeanSCF after  21.6 sec

Maximum memory used throughout the entire LEANSCF-calculation: 14.4 MB

-------------------------   --------------------
FINAL SINGLE POINT ENERGY      -307.054527393179
-------------------------   --------------------

------------------------------------------------------------------------------
                         ORCA SCF GRADIENT CALCULATION
------------------------------------------------------------------------------

Nuc. rep. gradient        (SHARK) ... done (  0.0 sec)
HCore & Overlap gradient  (SHARK) ... done (  0.1 sec)
Split-RIJ-J gradient      (SHARK) ... done (  0.6 sec)
COSX-gradient                     ... done ( 15.3 sec)
XC gradient                       ... done (  2.3 sec)

WARNING: THERE ARE 6 CONSTRAINED CARTESIAN COORDINATES

------------------
CARTESIAN GRADIENT
------------------

   1   C   :   -0.010015098   -0.019561780   -0.000645137
   2   C   :    0.008819079   -0.013100708   -0.000362163
   3   C   :   -0.026193811    0.000006221    0.006459159
   4   C   :    0.008821695    0.013098830   -0.000379672
   5   C   :   -0.010011873    0.019562511   -0.000670934
   6   C   :   -0.016856948    0.000001447    0.000108355
   7   H   :    0.007855217    0.014829429   -0.000025457
   8   H   :   -0.010289148    0.013047350   -0.000109230
   9   H   :   -0.010291123   -0.013045997   -0.000092007
  10   H   :    0.007852865   -0.014830779   -0.000006014
  11   H   :    0.016843229   -0.000001300    0.000035084
  12   O   :    0.032460285   -0.000009582   -0.011567550
  13   H   :    0.001005630    0.000004356    0.007255566

Difference to translation invariance:
           :    0.0000000001    0.0000000000    0.0000000001

Difference to rotation invariance:
           :   -0.0000011842   -0.0000455213   -0.0000010788

Norm of the Cartesian gradient     ...    0.0715411665
RMS gradient                       ...    0.0114557549
MAX gradient                       ...    0.0324602849

-------
TIMINGS
-------

Total SCF gradient time     ....       18.303 sec

Densities                   ....       0.001 sec  (  0.0%)
One electron gradient       ....       0.083 sec  (  0.5%)
RI-J Coulomb gradient       ....       0.602 sec  (  3.3%)
COSX gradient               ....      15.283 sec  ( 83.5%)
XC gradient                 ....       2.334 sec  ( 12.7%)

Maximum memory used throughout the entire SCFGRAD-calculation: 17.7 MB
------------------------------------------------------------------------------
                         ORCA GEOMETRY RELAXATION STEP
------------------------------------------------------------------------------

Reading the OPT-File                    .... done
Getting information on internals        .... done
Copying old internal coords+grads       .... done
Making the new internal coordinates     .... (2022 redundants) done
Validating the new internal coordinates .... (2022 redundants) done
Calculating the B-matrix                .... done
Calculating the G,G- and P matrices     .... done
Transforming gradient to internals      .... done
Projecting the internal gradient        .... done
Number of atoms                         ....  13
Number of internal coordinates          ....  64
Current Energy                          ....  -307.054527393 Eh
Current gradient norm                   ....     0.071541167 Eh/bohr
Maximum allowed component of the step   ....  0.300
Current trust radius                    ....  0.300
Evaluating the initial hessian          ....  (Almloef) done
Projecting the Hessian                  .... done
Forming the augmented Hessian           .... done
Diagonalizing the augmented Hessian     .... done
Last element of RFO vector              ....  0.990944129
Lowest eigenvalues of augmented Hessian:
 -0.004177760  0.016748149  0.023476281  0.024745330  0.024745330
Length of the computed step             ....  0.135501927
The final length of the internal step   ....  0.135501927
Converting the step to Cartesian space:
 Initial RMS(Int)=    0.0169377409
Transforming coordinates:
 Iter   0:  RMS(Cart)=    0.0823518429 RMS(Int)=    2.4773422153
Imposing constraints:
 Iter   0:  RMS(Cart)=    0.0000000036 RMS(Int)=    0.0000000001
CONVERGED
done
Storing new coordinates                 .... done

                                .--------------------.
          ----------------------|Geometry convergence|-------------------------
          Item                value                   Tolerance       Converged
          ---------------------------------------------------------------------
          RMS gradient        0.0049632291            0.0001000000      NO
          MAX gradient        0.0168432398            0.0003000000      NO
          RMS step            0.0169377409            0.0020000000      NO
          MAX step            0.0429969072            0.0040000000      NO
          ........................................................
          Max(Bonds)      0.0228      Max(Angles)    0.98
          Max(Dihed)        2.43      Max(Improp)    0.00
          ---------------------------------------------------------------------

The optimization has not yet converged - more geometry cycles are needed


    ---------------------------------------------------------------------------
                         Redundant Internal Coordinates
                            (Angstroem and degrees)

        Definition                    Value    dE/dq     Step     New-Value
    ----------------------------------------------------------------------------
     1. B(C   1,C   0)                1.4014  0.002166 -0.0019    1.3995   
     2. B(C   2,C   1)                1.4014  0.004183 -0.0037    1.3977   
     3. B(C   3,C   2)                1.4014  0.004182 -0.0037    1.3977   
     4. B(C   4,C   3)                1.4014  0.002167 -0.0019    1.3995   
     5. B(C   5,C   0)                1.4014  0.001783 -0.0015    1.3999   
     6. B(C   5,C   4)                1.4014  0.001783 -0.0015    1.3999   
     7. B(H   6,C   0)                1.0700 -0.016770  0.0227    1.0927   
     8. B(H   7,C   1)                1.0700 -0.016444  0.0222    1.0922   
     9. B(H   8,C   3)                1.0700 -0.016444  0.0222    1.0922   
    10. B(H   9,C   4)                1.0700 -0.016770  0.0227    1.0927   
    11. B(H  10,C   5)                1.0700 -0.016843  0.0228    1.0928   
    12. B(O  11,C   2)                1.4300  0.022310 -0.0000    1.4300   
    13. B(H  12,O  11)                0.9600 -0.006504  0.0066    0.9666   
    14. A(C   1,C   0,H   6)          120.00  0.001084   -0.17    119.83   
    15. A(C   1,C   0,C   5)          120.00 -0.000928    0.14    120.14   
    16. A(C   5,C   0,H   6)          120.00 -0.000156    0.03    120.03   
    17. A(C   2,C   1,H   7)          120.00  0.001527   -0.26    119.74   
    18. A(C   0,C   1,C   2)          120.00  0.001776   -0.25    119.75   
    19. A(C   0,C   1,H   7)          120.00 -0.003302    0.51    120.51   
    20. A(C   3,C   2,O  11)          120.00  0.001491   -0.19    119.81   
    21. A(C   1,C   2,C   3)          120.00 -0.002984    0.39    120.39   
    22. A(C   1,C   2,O  11)          120.00  0.001493   -0.19    119.81   
    23. A(C   2,C   3,H   8)          120.00  0.001527   -0.26    119.74   
    24. A(C   4,C   3,H   8)          120.00 -0.003302    0.51    120.51   
    25. A(C   2,C   3,C   4)          120.00  0.001775   -0.25    119.75   
    26. A(C   3,C   4,C   5)          120.00 -0.000928    0.14    120.14   
    27. A(C   3,C   4,H   9)          120.00  0.001084   -0.17    119.83   
    28. A(C   5,C   4,H   9)          120.00 -0.000156    0.03    120.03   
    29. A(C   4,C   5,H  10)          120.00 -0.000644    0.08    120.08   
    30. A(C   0,C   5,C   4)          120.00  0.001289   -0.16    119.84   
    31. A(C   0,C   5,H  10)          120.00 -0.000645    0.08    120.08   
    32. A(C   2,O  11,H  12)          109.47  0.006111   -0.98    108.50   
    33. D(C   2,C   1,C   0,H   6)    180.00 -0.000036    0.05    180.05   
    34. D(C   2,C   1,C   0,C   5)     -0.00  0.000018   -0.06     -0.06   
    35. D(H   7,C   1,C   0,H   6)      0.00  0.000259   -0.52     -0.52   
    36. D(H   7,C   1,C   0,C   5)   -180.00  0.000313   -0.64   -180.64   
    37. D(C   3,C   2,C   1,H   7)    180.00 -0.000493    1.04    181.04   
    38. D(O  11,C   2,C   1,C   0)   -180.00  0.001190   -2.43   -182.43   
    39. D(C   3,C   2,C   1,C   0)      0.00 -0.000198    0.46      0.46   
    40. D(O  11,C   2,C   1,H   7)     -0.00  0.000895   -1.86     -1.86   
    41. D(C   4,C   3,C   2,C   1)     -0.00  0.000198   -0.46     -0.46   
    42. D(C   4,C   3,C   2,O  11)    180.00 -0.001190    2.43    182.43   
    43. D(H   8,C   3,C   2,C   1)   -180.00  0.000493   -1.04   -181.04   
    44. D(H   8,C   3,C   2,O  11)      0.00 -0.000895    1.86      1.86   
    45. D(C   5,C   4,C   3,C   2)      0.00 -0.000019    0.06      0.06   
    46. D(C   5,C   4,C   3,H   8)    180.00 -0.000313    0.64    180.64   
    47. D(H   9,C   4,C   3,C   2)   -180.00  0.000036   -0.05   -180.05   
    48. D(H   9,C   4,C   3,H   8)     -0.00 -0.000259    0.52      0.52   
    49. D(C   4,C   5,C   0,C   1)      0.00  0.000161   -0.33     -0.33   
    50. D(H  10,C   5,C   4,C   3)   -180.00  0.000014   -0.03   -180.03   
    51. D(H  10,C   5,C   0,C   1)    180.00 -0.000014    0.03    180.03   
    52. D(H  10,C   5,C   0,H   6)     -0.00  0.000040   -0.08     -0.08   
    53. D(C   0,C   5,C   4,C   3)     -0.00 -0.000161    0.33      0.33   
    54. D(C   4,C   5,C   0,H   6)   -180.00  0.000215   -0.45   -180.45   
    55. D(C   0,C   5,C   4,H   9)    180.00 -0.000215    0.45    180.45   
    56. D(H  10,C   5,C   4,H   9)      0.00 -0.000040    0.08      0.08   
    57. D(H  12,O  11,C   2,C   1)     90.00 -0.000694    1.45     91.45   
    58. D(H  12,O  11,C   2,C   3)    -90.00  0.000694   -1.45    -91.45   
    59. C_2(C   2)                      0.00 -0.000020   -0.00      0.00 C 
    60. C_1(C   2)                      0.50  0.000001   -0.00      0.50 C 
    61. C_0(C   2)                      0.57 -0.011155   -0.00      0.57 C 
    62. C_2(O  11)                      0.00  0.000020   -0.00      0.00 C 
    63. C_1(O  11)                      0.50 -0.000001   -0.00      0.50 C 
    64. C_0(O  11)                      2.00  0.011155   -0.00      2.00 C 
    ----------------------------------------------------------------------------

Geometry step timings:
Preparation and reading OPT file:      0.001 s ( 6.690 %)
Internal coordinates            :      0.000 s ( 2.890 %)
B/P matrices and projection     :      0.001 s (13.773 %)
Hessian update/contruction      :      0.003 s (39.166 %)
Making the step                 :      0.001 s ( 7.501 %)
Converting the step to Cartesian:      0.000 s ( 3.849 %)
Storing new data                :      0.001 s ( 6.542 %)
Checking convergence            :      0.000 s ( 2.189 %)
Final printing                  :      0.001 s (13.564 %)
Total time                      :      0.008 s

Time for energy+gradient        :     41.586 s
Time for complete geometry iter :     41.685 s

         *************************************************************
         *                GEOMETRY OPTIMIZATION CYCLE   2            *
         *************************************************************
---------------------------------
CARTESIAN COORDINATES (ANGSTROEM)
---------------------------------
  C     -1.524342   -0.715019    0.082218
  C     -0.125778   -0.716598    0.031070
  C      0.568521    0.496076    0.000011
  C     -0.125601    1.708892    0.029481
  C     -1.524166    1.707583    0.080631
  C     -2.225580    0.496348    0.103553
  H     -2.068379   -1.662269    0.107427
  H      0.427766   -1.658128    0.024705
  H      0.428079    2.650332    0.021879
  H     -2.068064    2.654945    0.104595
  H     -3.317583    0.496454    0.144034
  O      1.998521    0.495971    0.000464
  H      2.305436    0.495359   -0.916081

----------------------------
CARTESIAN COORDINATES (A.U.)
----------------------------
  NO LB      ZA    FRAG     MASS         X           Y           Z
   0 C     6.0000    0    12.011   -2.880589   -1.351190    0.155370
   1 C     6.0000    0    12.011   -0.237686   -1.354174    0.058714
   2 C     6.0000    0    12.011    1.074350    0.937448    0.000020
   3 C     6.0000    0    12.011   -0.237352    3.229337    0.055711
   4 C     6.0000    0    12.011   -2.880256    3.226865    0.152370
   5 C     6.0000    0    12.011   -4.205737    0.937961    0.195687
   6 H     1.0000    0     1.008   -3.908669   -3.141232    0.203007
   7 H     1.0000    0     1.008    0.808360   -3.133408    0.046686
   8 H     1.0000    0     1.008    0.808952    5.008402    0.041345
   9 H     1.0000    0     1.008   -3.908074    5.017119    0.197656
  10 H     1.0000    0     1.008   -6.269323    0.938162    0.272185
  11 O     8.0000    0    15.999    3.776658    0.937248    0.000877
  12 H     1.0000    0     1.008    4.356642    0.936092   -1.731142

--------------------------------
INTERNAL COORDINATES (ANGSTROEM)
--------------------------------
 C      0   0   0     0.000000000000     0.00000000     0.00000000
 C      1   0   0     1.399499844476     0.00000000     0.00000000
 C      2   1   0     1.397710719999   119.75162708     0.00000000
 C      3   2   1     1.397711071548   120.37690208     0.46276191
 C      4   3   2     1.399499822324   119.75163575   359.53722617
 C      5   4   3     1.399856796071   120.14127827     0.06355022
 H      1   2   3     1.092654358149   119.83048968   180.05346281
 H      2   1   3     1.092213401283   120.50780486   179.42287581
 H      4   3   2     1.092213485254   119.73805878   178.96482962
 H      5   4   3     1.092654449033   119.83046256   179.94672637
 H      6   5   4     1.092752979490   120.08207604   179.96727295
 O      3   2   1     1.429999995719   119.77986666   177.56542546
 H     12   3   2     0.966566921114   108.49549476    91.44065468

---------------------------
INTERNAL COORDINATES (A.U.)
---------------------------
 C      0   0   0     0.000000000000     0.00000000     0.00000000
 C      1   0   0     2.644671430525     0.00000000     0.00000000
 C      2   1   0     2.641290475244   119.75162708     0.00000000
 C      3   2   1     2.641291139574   120.37690208     0.46276191
 C      4   3   2     2.644671388664   119.75163575   359.53722617
 C      5   4   3     2.645345971282   120.14127827     0.06355022
 H      1   2   3     2.064817495937   119.83048968   180.05346281
 H      2   1   3     2.063984208223   120.50780486   179.42287581
 H      4   3   2     2.063984366905   119.73805878   178.96482962
 H      5   4   3     2.064817667682   119.83046256   179.94672637
 H      6   5   4     2.065003863262   120.08207604   179.96727295
 O      3   2   1     2.702308363417   119.77986666   177.56542546
 H     12   3   2     1.826546771012   108.49549476    91.44065468

------------------------------------------------------------------------------
                   ___                                                        
                  /   \      - P O W E R E D   B Y -                         
                 /     \                                                     
                 |  |  |   _    _      __       _____    __    __             
                 |  |  |  | |  | |    /  \     |  _  \  |  |  /  |          
                  \  \/   | |  | |   /    \    | | | |  |  | /  /          
                 / \  \   | |__| |  /  /\  \   | |_| |  |  |/  /          
                |  |  |   |  __  | /  /__\  \  |    /   |      \           
                |  |  |   | |  | | |   __   |  |    \   |  |\   \          
                \     /   | |  | | |  |  |  |  | |\  \  |  | \   \       
                 \___/    |_|  |_| |__|  |__|  |_| \__\ |__|  \__/        
                                                                              
                      - O R C A' S   B I G   F R I E N D -                    
                                      &                                       
                       - I N T E G R A L  F E E D E R -                       
                                                                              
 v1 FN, 2020, v2 2021, v3 2022-2024                                           
------------------------------------------------------------------------------


----------------------
SHARK INTEGRAL PACKAGE
----------------------

Number of atoms                             ...     13
Number of basis functions                   ...    128
Number of shells                            ...     60
Maximum angular momentum                    ...      2
Integral batch strategy                     ... SHARK/LIBINT Hybrid
RI-J (if used) integral strategy            ... SPLIT-RIJ (Revised 2003 algorithm where possible)
Printlevel                                  ...      1
Contraction scheme used                     ... SEGMENTED contraction
Prescreening option                         ... SCHWARTZ
   Thresh                                   ... 2.500e-11
   Tcut                                     ... 2.500e-12
   Tpresel                                  ... 2.500e-12 
Coulomb Range Separation                    ... NOT USED
Exchange Range Separation                   ... NOT USED
Multipole approximations                    ... NOT USED
Finite Nucleus Model                        ... NOT USED
CABS basis                                  ... NOT available
Auxiliary Coulomb fitting basis             ... AVAILABLE
   # of basis functions in Aux-J            ...    409
   # of shells in Aux-J                     ...    135
   Maximum angular momentum in Aux-J        ...      4
Auxiliary J/K fitting basis                 ... NOT available
Auxiliary Correlation fitting basis         ... NOT available
Auxiliary 'external' fitting basis          ... NOT available

Checking pre-screening integrals            ... done (  0.0 sec) Dimension = 60
Check shell pair data                       ... done (  0.0 sec)
Shell pair information
Shell pair cut-off parameter TPreSel        ...   2.5e-12
Total number of shell pairs                 ...      1830
Shell pairs after pre-screening             ...      1769
Total number of primitive shell pairs       ...      6664
Primitive shell pairs kept                  ...      4910
          la=0 lb=0:    539 shell pairs
          la=1 lb=0:    639 shell pairs
          la=1 lb=1:    202 shell pairs
          la=2 lb=0:    224 shell pairs
          la=2 lb=1:    137 shell pairs
          la=2 lb=2:     28 shell pairs

Calculating one electron integrals          ... done (  0.0 sec)
Calculating RI/J V-Matrix + Cholesky decomp.... done (  0.0 sec)
Calculating Nuclear repulsion               ... done (  0.0 sec) ENN=    268.497522198740 Eh

Diagonalization of the overlap matrix:
Smallest eigenvalue                        ... 2.865e-04
Time for diagonalization                   ...    0.002 sec
Threshold for overlap eigenvalues          ... 1.000e-07
Number of eigenvalues below threshold      ... 0
Time for construction of square roots      ...    0.002 sec
Total time needed                          ...    0.005 sec

-------------------
DFT GRID GENERATION
-------------------

General Integration Accuracy     IntAcc      ... 4.388
Radial Grid Type                 RadialGrid  ... OptM3 with GC (2021)
Angular Grid (max. ang.)         AngularGrid ... 4 (Lebedev-302)
Angular grid pruning method      GridPruning ... 4 (adaptive)
Weight generation scheme         WeightScheme... mBecke (2022)
Basis function cutoff            BFCut       ... 1.0000e-11
Integration weight cutoff        WCut        ... 1.0000e-14
Partially contracted basis set               ... off
Rotationally invariant grid construction     ... off
Angular grids for H and He will be reduced by one unit

Total number of grid points                  ...    61597
Total number of batches                      ...      969
Average number of points per batch           ...       63
Average number of grid points per atom       ...     4738

--------------------
COSX GRID GENERATION
--------------------

GRIDX 1
-------
General Integration Accuracy     IntAcc      ... 3.816
Radial Grid Type                 RadialGrid  ... OptM3 with GC (2021)
Angular Grid (max. ang.)         AngularGrid ... 1 (Lebedev-50)
Angular grid pruning method      GridPruning ... 4 (adaptive)
Weight generation scheme         WeightScheme... mBecke (2022)
Basis function cutoff            BFCut       ... 1.0000e-11
Integration weight cutoff        WCut        ... 1.0000e-14
Partially contracted basis set               ... on
Rotationally invariant grid construction     ... off
Angular grids for H and He will be reduced by one unit

Total number of grid points                  ...     7887
Total number of batches                      ...       67
Average number of points per batch           ...      117
Average number of grid points per atom       ...      607
UseSFitting                                  ... on

GRIDX 2
-------
General Integration Accuracy     IntAcc      ... 4.020
Radial Grid Type                 RadialGrid  ... OptM3 with GC (2021)
Angular Grid (max. ang.)         AngularGrid ... 2 (Lebedev-110)
Angular grid pruning method      GridPruning ... 4 (adaptive)
Weight generation scheme         WeightScheme... mBecke (2022)
Basis function cutoff            BFCut       ... 1.0000e-11
Integration weight cutoff        WCut        ... 1.0000e-14
Partially contracted basis set               ... on
Rotationally invariant grid construction     ... off
Angular grids for H and He will be reduced by one unit

Total number of grid points                  ...    17267
Total number of batches                      ...      141
Average number of points per batch           ...      122
Average number of grid points per atom       ...     1328
UseSFitting                                  ... on

GRIDX 3
-------
General Integration Accuracy     IntAcc      ... 4.338
Radial Grid Type                 RadialGrid  ... OptM3 with GC (2021)
Angular Grid (max. ang.)         AngularGrid ... 3 (Lebedev-194)
Angular grid pruning method      GridPruning ... 4 (adaptive)
Weight generation scheme         WeightScheme... mBecke (2022)
Basis function cutoff            BFCut       ... 1.0000e-11
Integration weight cutoff        WCut        ... 1.0000e-14
Partially contracted basis set               ... on
Rotationally invariant grid construction     ... off
Angular grids for H and He will be reduced by one unit

Total number of grid points                  ...    38057
Total number of batches                      ...      303
Average number of points per batch           ...      125
Average number of grid points per atom       ...     2927
[...]
  19   2.0000      -0.364952        -9.9309 
  20   2.0000      -0.355878        -9.6839 
  21   2.0000      -0.350633        -9.5412 
  22   2.0000      -0.291036        -7.9195 
  23   2.0000      -0.257194        -6.9986 
  24   2.0000      -0.246003        -6.6941 
  25   0.0000      -0.010423        -0.2836 
  26   0.0000      -0.003965        -0.1079 
  27   0.0000       0.059542         1.6202 
  28   0.0000       0.065161         1.7731 
  29   0.0000       0.100858         2.7445 
  30   0.0000       0.115349         3.1388 
  31   0.0000       0.144261         3.9255 
  32   0.0000       0.149920         4.0795 
  33   0.0000       0.153487         4.1766 
  34   0.0000       0.219898         5.9837 
  35   0.0000       0.274948         7.4817 
*Only the first 10 virtual orbitals were printed.

                    ********************************
                    * MULLIKEN POPULATION ANALYSIS *
                    ********************************

-----------------------
MULLIKEN ATOMIC CHARGES
-----------------------
   0 C :    0.014234
   1 C :   -0.003705
   2 C :    0.154727
   3 C :   -0.003717
   4 C :    0.014233
   5 C :    0.028001
   6 H :   -0.013369
   7 H :   -0.024339
   8 H :   -0.024343
   9 H :   -0.013369
  10 H :   -0.016413
  11 O :   -0.295335
  12 H :    0.183395
Sum of atomic charges:    0.0000000

--------------------------------
MULLIKEN REDUCED ORBITAL CHARGES
--------------------------------
  0 C s       :     3.163374  s :     3.163374
      pz      :     0.982090  p :     2.787407
      px      :     0.928342
      py      :     0.876975
      dz2     :     0.002538  d :     0.034985
      dxz     :     0.005642
      dyz     :     0.003374
      dx2y2   :     0.011281
      dxy     :     0.012150

  1 C s       :     3.238683  s :     3.238683
      pz      :     1.006905  p :     2.731983
      px      :     0.857905
      py      :     0.867172
      dz2     :     0.002570  d :     0.033039
      dxz     :     0.005208
      dyz     :     0.003469
      dx2y2   :     0.009446
      dxy     :     0.012346

  2 C s       :     2.985037  s :     2.985037
      pz      :     1.010652  p :     2.791954
      px      :     0.772327
      py      :     1.008976
      dz2     :     0.004624  d :     0.068281
      dxz     :     0.010771
      dyz     :     0.006911
      dx2y2   :     0.023072
      dxy     :     0.022903

  3 C s       :     3.238683  s :     3.238683
      pz      :     1.006902  p :     2.731995
      px      :     0.857895
      py      :     0.867197
      dz2     :     0.002570  d :     0.033039
      dxz     :     0.005208
      dyz     :     0.003470
      dx2y2   :     0.009446
      dxy     :     0.012346

  4 C s       :     3.163372  s :     3.163372
      pz      :     0.982094  p :     2.787410
      px      :     0.928353
      py      :     0.876963
      dz2     :     0.002539  d :     0.034985
      dxz     :     0.005643
      dyz     :     0.003374
      dx2y2   :     0.011281
      dxy     :     0.012149

  5 C s       :     3.155897  s :     3.155897
      pz      :     0.999619  p :     2.781624
      px      :     0.825226
      py      :     0.956779
      dz2     :     0.002510  d :     0.034478
      dxz     :     0.002338
      dyz     :     0.006179
      dx2y2   :     0.012782
      dxy     :     0.010669

  6 H s       :     0.990678  s :     0.990678
      pz      :     0.004642  p :     0.022691
      px      :     0.006141
      py      :     0.011908

  7 H s       :     1.001608  s :     1.001608
      pz      :     0.004667  p :     0.022731
      px      :     0.006454
      py      :     0.011610

  8 H s       :     1.001612  s :     1.001612
      pz      :     0.004667  p :     0.022731
      px      :     0.006455
      py      :     0.011609

  9 H s       :     0.990679  s :     0.990679
      pz      :     0.004641  p :     0.022691
      px      :     0.006140
      py      :     0.011909

 10 H s       :     0.993660  s :     0.993660
      pz      :     0.004800  p :     0.022753
      px      :     0.014688
      py      :     0.003265

 11 O s       :     3.725453  s :     3.725453
      pz      :     1.362055  p :     4.557188
      px      :     1.297473
      py      :     1.897660
      dz2     :     0.005251  d :     0.012694
      dxz     :     0.002265
      dyz     :     0.000723
      dx2y2   :     0.003075
      dxy     :     0.001380

 12 H s       :     0.746967  s :     0.746967
      pz      :     0.032689  p :     0.069637
      px      :     0.016551
      py      :     0.020397



                     *******************************
                     * LOEWDIN POPULATION ANALYSIS *
                     *******************************

----------------------
LOEWDIN ATOMIC CHARGES
----------------------
   0 C :   -0.020091
   1 C :   -0.043841
   2 C :    0.054686
   3 C :   -0.043846
   4 C :   -0.020091
   5 C :   -0.034794
   6 H :    0.027918
   7 H :    0.030216
   8 H :    0.030214
   9 H :    0.027918
  10 H :    0.026885
  11 O :   -0.124079
  12 H :    0.088905

-------------------------------
LOEWDIN REDUCED ORBITAL CHARGES
-------------------------------
  0 C s       :     2.863329  s :     2.863329
      pz      :     0.964187  p :     3.066452
      px      :     1.056657
      py      :     1.045608
      dz2     :     0.006125  d :     0.090310
      dxz     :     0.011930
      dyz     :     0.006425
      dx2y2   :     0.031835
      dxy     :     0.033996

  1 C s       :     2.869163  s :     2.869163
      pz      :     0.990421  p :     3.086972
      px      :     1.056832
      py      :     1.039720
      dz2     :     0.006578  d :     0.087705
      dxz     :     0.010941
      dyz     :     0.006581
      dx2y2   :     0.028458
      dxy     :     0.035148

  2 C s       :     2.854723  s :     2.854723
      pz      :     0.981118  p :     2.935942
      px      :     0.852725
      py      :     1.102099
      dz2     :     0.010104  d :     0.154649
      dxz     :     0.017496
      dyz     :     0.014357
      dx2y2   :     0.054075
      dxy     :     0.058618

  3 C s       :     2.869164  s :     2.869164
      pz      :     0.990421  p :     3.086977
      px      :     1.056830
      py      :     1.039725
      dz2     :     0.006577  d :     0.087705
      dxz     :     0.010939
      dyz     :     0.006583
      dx2y2   :     0.028458
      dxy     :     0.035148

  4 C s       :     2.863329  s :     2.863329
      pz      :     0.964188  p :     3.066452
      px      :     1.056660
      py      :     1.045604
      dz2     :     0.006126  d :     0.090310
      dxz     :     0.011931
      dyz     :     0.006423
      dx2y2   :     0.031836
      dxy     :     0.033994

  5 C s       :     2.862381  s :     2.862381
      pz      :     0.982325  p :     3.082994
      px      :     1.035837
      py      :     1.064832
      dz2     :     0.006122  d :     0.089419
      dxz     :     0.003916
      dyz     :     0.013253
      dx2y2   :     0.035419
      dxy     :     0.030709

  6 H s       :     0.905695  s :     0.905695
      pz      :     0.013926  p :     0.066387
      px      :     0.018383
      py      :     0.034077

  7 H s       :     0.902033  s :     0.902033
      pz      :     0.014559  p :     0.067751
      px      :     0.019282
      py      :     0.033910

  8 H s       :     0.902035  s :     0.902035
      pz      :     0.014560  p :     0.067751
      px      :     0.019285
      py      :     0.033906

  9 H s       :     0.905695  s :     0.905695
      pz      :     0.013925  p :     0.066387
      px      :     0.018380
      py      :     0.034082

 10 H s       :     0.906435  s :     0.906435
      pz      :     0.014465  p :     0.066680
      px      :     0.041449
      py      :     0.010767

 11 O s       :     3.453967  s :     3.453967
      pz      :     1.445557  p :     4.646945
      px      :     1.342730
      py      :     1.858658
      dz2     :     0.010672  d :     0.023167
      dxz     :     0.004153
      dyz     :     0.000246
      dx2y2   :     0.005838
      dxy     :     0.002258

 12 H s       :     0.731592  s :     0.731592
      pz      :     0.089959  p :     0.179503
      px      :     0.036843
      py      :     0.052700



                      *****************************
                      * MAYER POPULATION ANALYSIS *
                      *****************************

  NA   - Mulliken gross atomic population
  ZA   - Total nuclear charge
  QA   - Mulliken gross atomic charge
  VA   - Mayer's total valence
  BVA  - Mayer's bonded valence
  FA   - Mayer's free valence

  ATOM       NA         ZA         QA         VA         BVA        FA
  0 C      5.9858     6.0000     0.0142     3.8162     3.8162     0.0000
  1 C      6.0037     6.0000    -0.0037     3.8169     3.8169     0.0000
  2 C      5.8453     6.0000     0.1547     3.9372     3.9372    -0.0000
  3 C      6.0037     6.0000    -0.0037     3.8169     3.8169    -0.0000
  4 C      5.9858     6.0000     0.0142     3.8163     3.8163     0.0000
  5 C      5.9720     6.0000     0.0280     3.8210     3.8210     0.0000
  6 H      1.0134     1.0000    -0.0134     0.9781     0.9781     0.0000
  7 H      1.0243     1.0000    -0.0243     0.9962     0.9962    -0.0000
  8 H      1.0243     1.0000    -0.0243     0.9962     0.9962    -0.0000
  9 H      1.0134     1.0000    -0.0134     0.9781     0.9781    -0.0000
 10 H      1.0164     1.0000    -0.0164     0.9780     0.9780     0.0000
 11 O      8.2953     8.0000    -0.2953     2.0848     2.0848     0.0000
 12 H      0.8166     1.0000     0.1834     0.9997     0.9997    -0.0000

  Mayer bond orders larger than 0.100000
B(  0-C ,  1-C ) :   1.3525 B(  0-C ,  5-C ) :   1.3856 B(  0-C ,  6-H ) :   0.9814 
B(  1-C ,  2-C ) :   1.3863 B(  1-C ,  7-H ) :   0.9892 B(  2-C ,  3-C ) :   1.3863 
B(  2-C , 11-O ) :   1.0357 B(  3-C ,  4-C ) :   1.3525 B(  3-C ,  8-H ) :   0.9892 
B(  4-C ,  5-C ) :   1.3856 B(  4-C ,  9-H ) :   0.9814 B(  5-C , 10-H ) :   0.9866 
B( 11-O , 12-H ) :   0.9754 

-------
TIMINGS
-------

Total SCF time: 0 days 0 hours 0 min 12 sec 

Total time                  ....      12.268 sec
Sum of individual times     ....      12.217 sec  ( 99.6%)

SCF preparation             ....       0.076 sec  (  0.6%)
Fock matrix formation       ....      12.088 sec  ( 98.5%)
  Startup                   ....       0.004 sec  (  0.0% of F)
  Split-RI-J                ....       0.654 sec  (  5.4% of F)
  Chain of spheres X        ....       9.692 sec  ( 80.2% of F)
  XC integration            ....       1.709 sec  ( 14.1% of F)
    XC Preparation          ....       0.000 sec  (  0.0% of XC)
    Basis function eval.    ....       0.728 sec  ( 42.6% of XC)
    Density eval.           ....       0.335 sec  ( 19.6% of XC)
    XC-Functional eval.     ....       0.184 sec  ( 10.8% of XC)
    XC-Potential eval.      ....       0.389 sec  ( 22.8% of XC)
Diagonalization             ....       0.000 sec  (  0.0%)
Density matrix formation    ....       0.008 sec  (  0.1%)
Total Energy calculation    ....       0.002 sec  (  0.0%)
Population analysis         ....       0.011 sec  (  0.1%)
Orbital Transformation      ....       0.005 sec  (  0.0%)
Orbital Orthonormalization  ....       0.000 sec  (  0.0%)
DIIS solution               ....       0.006 sec  (  0.1%)
SOSCF solution              ....       0.021 sec  (  0.2%)
Finished LeanSCF after  12.3 sec

Maximum memory used throughout the entire LEANSCF-calculation: 15.0 MB

-------------------------   --------------------
FINAL SINGLE POINT ENERGY      -307.056782721811
-------------------------   --------------------

                                *** OPTIMIZATION RUN DONE ***


------------------------------------------------------------------------------
                              ORCA PROPERTY CALCULATIONS
------------------------------------------------------------------------------

GBWName                                 ... input.gbw
Number of atoms                         ...     13
Number of basis functions               ...    128
Max core memory                         ...   1024 MB

Electric properties:
Dipole moment                           ... YES
Quadrupole moment                       ...  NO
Static polarizability (Dipole/Dipole)   ...  NO
Static polarizability (Dipole/Quad.)    ...  NO
Static polarizability (Quad./Quad.)     ...  NO
Static polarizability (Velocity)        ...  NO

Atomic electric properties:
Dipole moment                           ...  NO
Quadrupole moment                       ...  NO
Static polarizability                   ...  NO

Choice of electric origin               ... Center of mass
Position of electric origin             ...    -0.635198     0.937595     0.061157

General magnetic properties:
Magnetizability                         ...  NO

EPR properties:
g-Tensor (aka g-matrix)                 ...  NO
Zero-Field splitting spin-orbit         ...  NO
Zero-field splitting spin-spin          ...  NO
Hyperfine couplings                     ...  NO (   0 nuclei)
Quadrupole couplings                    ...  NO (   0 nuclei)
Contact density                         ...  NO (   0 nuclei)

NMR properties:
Chemical shifts                         ...  NO (   0 nuclei)
Spin-rotation constants                 ...  NO (   0 nuclei)
Spin-spin couplings                     ...  NO (   0 nuclei,    0 pairs)

Choice of magnetic origin               ... GIAO
Position of magnetic origin             ...     0.000000     0.000000     0.000000

Properties with geometric perturbations:
SCF Hessian                             ...  NO
IR spectrum                             ...  NO
VCD spectrum                            ...  NO
X-ray spectroscopy properties:
SCF XES/XAS/RIXS spectra                ...  NO


-------------
DIPOLE MOMENT
-------------

Method             : SCF
Type of density    : Electron Density
Multiplicity       :   1
Irrep              :   0
Energy             :  -307.0567827218112029 Eh
Relativity type    : 
Basis              : AO
                                X                 Y                 Z
Electronic contribution:      1.836087765      -0.000086286       0.132867604
Nuclear contribution   :     -2.071499004      -0.000156579      -0.700848256
                        -----------------------------------------
Total Dipole Moment    :     -0.235411239      -0.000242865      -0.567980652
                        -----------------------------------------
Magnitude (a.u.)       :      0.614833743
Magnitude (Debye)      :      1.562783178



--------------------
Rotational spectrum 
--------------------
 
Rotational constants in cm-1:             0.187106             0.084842             0.058694 
Rotational constants in MHz :          5609.288342          2543.491397          1759.604069 

Dipole components along the rotational axes: 
x,y,z [a.u.] :    -0.214303    -0.000120    -0.576277 
x,y,z [Debye]:    -0.544714    -0.000305    -1.464779 

 

Dipole moment calculation done in   0.0 sec 

Maximum memory used throughout the entire PROP-calculation: 8.0 MB

--------------------------------
SUGGESTED CITATIONS FOR THIS RUN
--------------------------------

Below you find a list of papers that are relevant to this ORCA run
We neither can nor want to force you to cite these papers, but we appreciate if you do
You receive ORCA, which is the product of decades of hard work by many enthusiastic individuals, for free
The only thing we kindly ask in return is that you cite our papers,
We deeply appreciate it, if you show your appreciation for ORCA by not just citing the generic ORCA reference.

Please note that relegating all ORCA citations to the supporting information does *not* help us.
SI sections are not indexed - citations you put there will not count into any citation statistics
But we need these citations in order to attract the funding resources that allow us to do what we are doing

Therefore, if you are a happy ORCA user, please consider citing a few of the papers listed below in the main body of your paper

In addition to the list printed below, the program has created the file input.bibtex that contains the list in bibtex format
You can import this file easily into all common literature databanks and citation aid programs


List of essential papers. We consider these as the minimum necessary citations

  1. Neese,F.
     Software update: the ORCA program system, version 5.0
     WIRES Comput. Molec. Sci., 2022 12(1)e1606
     doi.org/10.1002/wcms.1606

List of papers to cite with high priority. The work reported in these papers was absolutely
necessary for this run to complete.
Our perspective: the developers of density functionals and basis sets usually get cited in chemistry papers
Good! But without the algorithms to do something with them, the functionals or basis sets would not do anything.
Hence, in our opinion, the algorithm design and method developments papers are equally worthy of getting cited

  1. Neese,F.
     An improvement of the resolution of the identity approximation for the formation of the Coulomb matrix
     J. Comp. Chem., 2003 24(14)1740-1747
     doi.org/10.1002/jcc.10318
  2. Neese,F.; Wennmohs,F.; Hansen,A.; Becker,U.
     Efficient, approximate and parallel Hartree-Fock and hybrid DFT calculations. A 'chain-of-spheres' algorithm for the Hartree-Fock exchange
     Chem. Phys., 2009 356(1-3)98-109
     doi.org/10.1016/j.chemphys.2008.10.036
  3. Helmich-Paris,B.; de Souza,B.; Neese,F.; Izsák,R.
     An improved chain of spheres for exchange algorithm
     J. Chem. Phys., 2021 155 104109
     doi.org/doi: 10.1063/5.0058766.
  4. Neese,F.
     The SHARK Integral Generation and Digestion System
     J. Comp. Chem., 2022  1-16
     doi.org/10.1002/jcc.26942

List of suggested additional citations. These are papers that are important in the 'surrounding' of 
of this run, or papers that preceded the highly important papers. If you like your results we are grateful for a citation.

  1. Izsak,R.; Neese,F.
     An overlap fitted chain of spheres exchange method
     J. Chem. Phys., 2011 135 144105
     doi.org/10.1063/1.3646921
  2. Izsak,R.; Hansen,A.; Neese,F.
     The resolution of identity and chain of spheres approximations for the LPNO-CCSD singles Fock term
     Molec. Phys., 2012 110 2413-2417
     doi.org/10.1080/00268976.2012.687466
  3. Neese,F.
     The ORCA program system
     WIRES Comput. Molec. Sci., 2012 2(1)73-78
     doi.org/10.1002/wcms.81
  4. Izsak,R.; Neese,F.; Klopper,W.
     Robust fitting techniques in the chain of spheres approximation to the Fock exchange: The role of the complementary space
     J. Chem. Phys., 2013 139 
     doi.org/10.1063/1.4819264
  5. Neese,F.
     Software update: the ORCA program system, version 4.0
     WIRES Comput. Molec. Sci., 2018 8(1)1-6
     doi.org/10.1002/wcms.1327
  6. Neese,F.; Wennmohs,F.; Becker,U.; Riplinger,C.
     The ORCA quantum chemistry program package
     J. Chem. Phys., 2020 152 Art. No. L224108
     doi.org/10.1063/5.0004608

List of optional additional citations

  1. Neese,F.
     Approximate second-order SCF convergence for spin unrestricted wavefunctions
     Chem. Phys. Lett., 2000 325(1-3)93-98
     doi.org/10.1016/s0009-2614(00)00662-x

Timings for individual modules:

Sum of individual times          ...      190.421 sec (=   3.174 min)
Startup calculation              ...        6.486 sec (=   0.108 min)   3.4 %
SCF iterations                   ...       92.886 sec (=   1.548 min)  48.8 %
Property calculations            ...        0.073 sec (=   0.001 min)   0.0 %
SCF Gradient evaluation          ...       90.903 sec (=   1.515 min)  47.7 %
Geometry relaxation              ...        0.073 sec (=   0.001 min)   0.0 %
                             ****ORCA TERMINATED NORMALLY****
TOTAL RUN TIME: 0 days 0 hours 3 minutes 11 seconds 19 msec
