
                                 *****************
                                 * O   R   C   A *
                                 *****************

                                            #,                                       
                                            ###                                      
                                            ####                                     
                                            #####                                    
                                            ######                                   
                                           ########,                                 
                                     ,,################,,,,,                         
                               ,,#################################,,                 
                          ,,##########################################,,             
                       ,#########################################, ''#####,          
                    ,#############################################,,   '####,        
                  ,##################################################,,,,####,       
                ,###########''''           ''''###############################       
              ,#####''   ,,,,##########,,,,          '''####'''          '####       
            ,##' ,,,,###########################,,,                        '##       
           ' ,,###''''                  '''############,,,                           
         ,,##''                                '''############,,,,        ,,,,,,###''
      ,#''                                            '''#######################'''  
     '                                                          ''''####''''         
             ,#######,   #######,   ,#######,      ##                                
            ,#'     '#,  ##    ##  ,#'     '#,    #''#        ,####,    ,#,          
            ##       ##  ##   ,#'  ##            #'  '#       #'       ,# #          
            ##       ##  #######   ##           ,######,      #####,      #          
            '#,     ,#'  ##    ##  '#,     ,#' ,#      #,     #,   #      #          
             '#######'   ##     ##  '#######'  #'      '#     '####' #    #          



                #########################################################
                #                        -***-                          #
                #          Department of theory and spectroscopy        #
                #                                                       #
                #                      Frank Neese                      #
                #                                                       #
                #     Directorship, Architecture, Infrastructure        #
                #                    SHARK, DRIVERS                     #
                #        Core code/Algorithms in most modules           #
                #                                                       #
                #        Max Planck Institute fuer Kohlenforschung      #
                #                Kaiser Wilhelm Platz 1                 #
                #                 D-45470 Muelheim/Ruhr                 #
                #                      Germany                          #
                #                                                       #
                #                  All rights reserved                  #
                #                        -***-                          #
                #########################################################


                         Program Version 6.1.0  -  RELEASE   -
                                (GIT: $679e74b$)
                          ($2025-06-10 18:02:51 +0200$)


 With contributions from (in alphabetic order):
[Max-Planck-Institut fuer Kohlenforschung]                               
  Daniel Aravena         : Magnetic Suceptibility                        
  Michael Atanasov       : Ab Initio Ligand Field Theory (pilot matlab implementation)
  Alexander A. Auer      : GIAO ZORA, VPT2 properties, NMR spectrum      
  Ute Becker             : All parallelization in ORCA, NUMFREQ, NUMCALC 
  Giovanni Bistoni       : ED, misc. LED, open-shell LED, HFLD           
  Dmytro Bykov           : pre 5.0 version of the SCF Hessian            
  Marcos Casanova-Páez   : Triplet and SCS-CIS(D). UHF-(DLPNO)-IP/EA/STEOM-CCSD. UHF-CVS-IP/STEOM-CCSD   
  Vijay G. Chilkuri      : MRCI spin determinant printing, contributions to CSF-ICE 
  Pauline Colinet        : FMM embedding                                 
  Dipayan Datta          : RHF DLPNO-CCSD density                        
  Achintya Kumar Dutta   : EOM-CC, STEOM-CC                              
  Nicolas Foglia         : Exact transition moments, OPA infrastructure, MCD improvements    
  Dmitry Ganyushin       : Spin-Orbit,Spin-Spin,Magnetic field MRCI      
  Miquel Garcia-Rates    : C-PCM and meta-GGA Hessian, CCSD/C-PCM, Gaussian charge scheme 
  Tiago L. C. Gouveia    : GS-ROHF, GS-ROCIS                             
  Yang Guo               : DLPNO-NEVPT2, F12-NEVPT2, CIM, IAO-localization        
  Andreas Hansen         : Spin unrestricted coupled pair/coupled cluster methods 
  Ingolf Harden          : AUTO-CI MPn and infrastructure                
  Benjamin Helmich-Paris : MC-RPA, TRAH-(SCF,CASSCF), AVAS, COSX integrals, SCF dyn. polar., MC-PDFT, srDFT 
  Lee Huntington         : MR-EOM, pCC                                   
  Robert Izsak           : Overlap fitted RIJCOSX, COSX-SCS-MP3, EOM     
  Riya Kayal             : Wick's Theorem for AUTO-CI, AUTO-CI UHF-CCSDT 
  Emily Kempfer          : AUTO-CI RHF CISDT and CCSDT, approximate NEVPT4
  Christian Kollmar      : KDIIS, OOCD, Brueckner-CCSD(T), CCSD density, CASPT2, CASPT2-K, improved NEVPT2 
  Axel Koslowski         : Symmetry handling                             
  Simone Kossmann        : meta-GGA functionals, TD-DFT gradient, OOMP2, (MP2 Hessian; deprecated post 5.0) 
  Lucas Lang             : DCDCAS, Hyperfine gauge corrections, ICE-SOC+SSC
  Marvin Lechner         : AUTO-CI (C++ implementation), FIC-MRCC        
  Spencer Leger          : CASSCF response                               
  Dagmar Lenk            : GEPOL surface, SMD, ORCA-2-JSON               
  Dimitrios Liakos       : Extrapolation schemes; Compound Job, Property file
  Dimitrios Manganas     : Further ROCIS development; embedding schemes. LFT, Crystal Embedding 
  Dimitrios Pantazis     : SARC Basis sets                               
  Anastasios Papadopoulos: AUTO-CI, single reference methods and gradients 
  Taras Petrenko         : pre 6.0 DFT Hessian and TD-DFT gradient,  ECA, NRVS 
  Petra Pikulova         : Analytic Raman intensities                    
  Peter Pinski           : DLPNO-MP2, DLPNO-MP2 Gradient                 
  Shashank Vittal Rao    : ES-AILFT, MagRelax                            
  Christoph Reimann      : Effective Core Potentials                     
  Marius Retegan         : Local ZFS, SOC                                
  Christoph Riplinger    : Optimizer, TS searches, QM/MM, DLPNO-CCSD(T), (RO)-DLPNO pert. Triples 
  Michael Roemelt        : Original ROCIS implementation, recursive CI coupling coefficients
  Masaaki Saitow         : Open-shell DLPNO-CCSD energy and density      
  Barbara Sandhoefer     : DKH picture change effects                    
  Yorick L. A. Schmerwitz: GMF and freeze-and-release deltaSCF, NEB S-IDPP initial path                    
  Kantharuban Sivalingam : CASSCF convergence/infrastructure, NEVPT2, NEVPT3, NEVPT4(SD), FIC-MRCI and CEPA variants
  Bernardo de Souza      : ESD, SOC TD-DFT                               
  Georgi L. Stoychev     : AutoAux, RI-MP2 NMR, DLPNO-MP2 response, X2C  
  Van Anh Tran           : RI-MP2 g-tensors                              
  Willem Van den Heuvel  : Paramagnetic NMR                              
  Zikuan Wang            : NOTCH, Electric field optimization            
  Frank Wennmohs         : Technical directorship and infrastructure     
  Hang Xu                : AUTO-CI-Response properties                   
                                                                         
[FACCTs GmbH]                                                            
  Markus Bursch, Nicolas Foglia, Miquel Garcia-Rates, Ingolf Harden, Hagen Neugebauer, Anastasios Papadopoulos, 
  Christoph Riplinger, Bernardo de Souza, Georgi L. Stoychev                                                    
                                                                 
  APM, various basis sets, CI-OPT, improved COSX, DLPNO-Multilevel,           
  DOCKER, DRACO, updates on ESD, Fragmentator, GOAT, IRC, LR-CPCM, L-BFGS, MBIS, meta-GGA TD-DFT gradient, ML-optimized integration grids, 
  MM, NACMEs, nearIR, NEB, NEB-TS, NL-DFT gradient (VV10), 2- and 3-layer-ONIOM, interface openCOSMO-RS, QMMM,   
  Crystal-QMMM, RESP, rigid body optimization, SF, symmetry and pop. for TD-DFT, various functionals, SOLVATOR                                   
                                                                         
[Other institutions]                                                     
  V. Asgeirsson          : NEB                                           
  Christoph Bannwarth    : sTDA-DFT, sTD-DFT, PBEh-3c, B97-3c, D3        
  Giovanni Bistoni       : ETS/NOCV, ADLD/ADEX, COVALED                  
  Martin Brehm           : Molecular dynamics                            
  Ronald Cardenas        : ETS/NOCV                                      
  Martina Colucci        : COVALED                                       
  Sebastian Ehlert       : rSCAN, r2SCAN, r2SCAN-3c, D4, dhf basis sets  
  Marvin Friede          : D4 for Fr, Ra, Ac-Lr                          
  Lars Goerigk           : TD-DFT with DH, B97 family of functionals     
  Stefan Grimme          : VdW corrections, initial TS optimization, DFT functionals, gCP, sTDA/sTD-DF 
  Waldemar Hujo          : DFT-NL                                        
  H. Jonsson             : NEB                                           
  Holger Kruse           : gCP                                           
  Marcel Mueller         : wB97X-3c, vDZP basis set                      
  Hagen Neugebauer       : wr2SCAN, Native XTB                           
  Gianluca Regni         : ADLD/ADEX                                     
  Tobias Risthaus        : pre 6.0 range-separated hybrid DFT and stability analysis
  Lukas Wittmann         : regularized MP2, r2SCAN double-hybrids, wr2SCAN        
                                                                         
We gratefully acknowledge several colleagues who have allowed us to      
interface, adapt or use parts of their codes:                            
  Ed Valeev, F. Pavosevic, A. Kumar             : LibInt (2-el integral package), F12 methods 
  Garnet Chan, S. Sharma, J. Yang, R. Olivares  : DMRG                   
  Ulf Ekstrom                                   : XCFun DFT Library      
  Mihaly Kallay                                 : mrcc  (arbitrary order and MRCC methods)
  Frank Weinhold                                : gennbo (NPA and NBO analysis)           
  Simon Mueller                                 : openCOSMO-RS                            
  Christopher J. Cramer and Donald G. Truhlar   : smd solvation model                     
  S Lehtola, MJT Oliveira, MAL Marques          : LibXC Library                           
  Liviu Ungur et al                             : ANISO software                          


 Your calculation uses the libint2 library for the computation of 2-el integrals
 For citations please refer to: http://libint.valeyev.net

 Your ORCA version has been built with support for libXC version: 7.0.0
 For citations please refer to: https://libxc.gitlab.io

 This ORCA versions uses:
   CBLAS   interface :  Fast vector & matrix operations
   LAPACKE interface :  Fast linear algebra routines
   SCALAPACK package :  Parallel linear algebra routines
   Shared memory     :  Shared parallel matrices
   BLAS/LAPACK       :  OpenBLAS 0.3.29  USE64BITINT DYNAMIC_ARCH NO_AFFINITY Cooperlake SINGLE_THREADED
        Core in use  :  Cooperlake
   Copyright (c) 2011-2014, The OpenBLAS Project


  ***********************************
  * Starting time: Mon Oct 13 22:48:12 2025
  * Host name:     chpc-cn073.rc.cuhk.edu.hk
  * Process ID:    3398432
  * Working dir.:  /lustre/scratch/xlzhang/xz/sn2_ts
  ***********************************

XCFun DFT library Copyright 2009-2010 Ulf Ekstrom and contributors.
See http://admol.org/xcfun for more information.
This is free software; see the source code for copying conditions.
There is ABSOLUTELY NO WARRANTY; not even for MERCHANTABILITY or FITNESS FOR A PARTICULAR PURPOSE.
For details see the documentation.
Scientific users of this library should cite U. Ekstrom, L. Visscher, R. Bast, A. J. Thorvaldsen and K. Ruud;
J.Chem.Theor.Comp. 2010, DOI: 10.1021/ct100117s
XCFun Version 0.99 

Warning: RI is on but no J-basis has been assigned. Assigning Def2/J (nothing to worry about!)
================================================================================

----- Orbital basis set information -----
Your calculation utilizes the basis: def2-SVP
   F. Weigend and R. Ahlrichs, Phys. Chem. Chem. Phys. 7, 3297 (2005).

----- AuxJ basis set information -----
Your calculation utilizes the auxiliary basis: def2/J
   H-Rn: F. Weigend, Phys. Chem. Chem. Phys. 8, 1057 (2006).
   Fr-Lr: K. Eichkorn, F. Weigend, O. Treutler, R. Ahlrichs; Theor. Chem. Acc. 97, 119 (1997).

================================================================================
                                        WARNINGS
                       Please study these warnings very carefully!
================================================================================

WARNING: Functional chosen is sensitive to the integration grid.
         DEFGRID3 seems to be a minimum grid for robust results!

WARNING: Geometry Optimization
  ===> : Switching off AutoStart
         For restart on a previous wavefunction, please use MOREAD

================================================================================
                                       INPUT FILE
================================================================================
NAME = /users/b163264/scratch/sn2_ts/sn2_ts.inp
|  1> # TS search for F- + CH3Cl -> CH3F + Cl-
|  2> ! M062X Def2-SVP OptTS Freq
|  3> * xyz -1 1
|  4> # Paste the highest-energy geometry from the scan here
|  5> C   0.000000   0.000000   -0.038166
|  6> Cl  0.000000   0.000000    1.905623
|  7> H   0.000000   1.037145   -0.327668
|  8> H   0.899732  -0.518572   -0.327668
|  9> H  -0.899732  -0.518572   -0.327668
| 10> F   0.000000   0.000000   -1.905623
| 11> *
| 12> 
| 13>                          ****END OF INPUT****
================================================================================

                       *****************************
                       * Geometry Optimization Run *
                       *****************************

Geometry optimization settings:
Update method            Update   .... Bofill
Choice of coordinates    CoordSys .... (2022) Redundant Internals
Initial Hessian          InHess   .... Almloef's Model
Max. no of cycles        MaxIter  .... 50

Convergence Tolerances:
Energy Change            TolE     ....  5.0000e-06 Eh
Max. Gradient            TolMAXG  ....  3.0000e-04 Eh/bohr
RMS Gradient             TolRMSG  ....  1.0000e-04 Eh/bohr
Max. Displacement        TolMAXD  ....  4.0000e-03 bohr
RMS Displacement         TolRMSD  ....  2.0000e-03 bohr
Strict Convergence                .... False

------------------------------------------------------------------------------
                        ORCA OPTIMIZATION COORDINATE SETUP
------------------------------------------------------------------------------

The optimization will be done in redundant internal coordinates (2022)
Making redundant internal coordinates   ...  (2022 redundants) done
Following TS mode number                ...     0
Evaluating the initial hessian          ...  (Almloef) done
Evaluating the coordinates              ...  done
Calculating the B-matrix                .... done
Calculating the G-matrix                .... done
The number of degrees of freedom        ....   14

    -----------------------------------------------------------------
                    Redundant Internal Coordinates


    -----------------------------------------------------------------
         Definition                    Initial Value    Approx d2E/dq
    -----------------------------------------------------------------
      1. B(Cl  1,C   0)                  1.9438         0.183316   
      2. B(H   2,C   0)                  1.0768         0.378003   
      3. B(H   3,C   0)                  1.0781         0.376226   
      4. B(H   4,C   0)                  1.0781         0.376226   
      5. B(F   5,C   0)                  1.8675         0.089994   
      6. A(Cl  1,C   0,H   3)          105.5772         0.302964   
      7. A(H   2,C   0,H   3)          113.0235         0.295102   
      8. A(Cl  1,C   0,H   4)          105.5772         0.302964   
      9. A(H   2,C   0,H   4)          113.0235         0.295102   
     10. A(H   3,C   0,H   4)          113.1427         0.294882   
     11. A(H   2,C   0,F   5)           74.4038         0.259017   
     12. A(H   3,C   0,F   5)           74.4228         0.258836   
     13. A(H   4,C   0,F   5)           74.4228         0.258836   
     14. A(Cl  1,C   0,H   2)          105.5962         0.303192   
    -----------------------------------------------------------------

Number of atoms                         .... 6
Number of degrees of freedom            .... 14


         *************************************************************
         *                GEOMETRY OPTIMIZATION CYCLE   1            *
         *************************************************************
---------------------------------
CARTESIAN COORDINATES (ANGSTROEM)
---------------------------------
  C      0.000000    0.000000   -0.038166
  Cl     0.000000    0.000000    1.905623
  H      0.000000    1.037145   -0.327668
  H      0.899732   -0.518572   -0.327668
  H     -0.899732   -0.518572   -0.327668
  F      0.000000    0.000000   -1.905623

----------------------------
CARTESIAN COORDINATES (A.U.)
----------------------------
  NO LB      ZA    FRAG     MASS         X           Y           Z
   0 C     6.0000    0    12.011    0.000000    0.000000   -0.072123
   1 Cl   17.0000    0    35.453    0.000000    0.000000    3.601106
   2 H     1.0000    0     1.008    0.000000    1.959920   -0.619203
   3 H     1.0000    0     1.008    1.700247   -0.979959   -0.619203
   4 H     1.0000    0     1.008   -1.700247   -0.979959   -0.619203
   5 F     9.0000    0    18.998    0.000000    0.000000   -3.601106

--------------------------------
INTERNAL COORDINATES (ANGSTROEM)
--------------------------------
 C      0   0   0     0.000000000000     0.00000000     0.00000000
 Cl     1   0   0     1.943789000000     0.00000000     0.00000000
 H      1   2   0     1.076792068614   105.59620307     0.00000000
 H      1   2   3     1.078075136070   105.57716972   119.95754588
 H      1   2   3     1.078075136070   105.57716972   240.04245412
 F      1   2   3     1.867457000000   180.00000000     0.00000000

---------------------------
INTERNAL COORDINATES (A.U.)
---------------------------
 C      0   0   0     0.000000000000     0.00000000     0.00000000
 Cl     1   0   0     3.673228872129     0.00000000     0.00000000
 H      1   2   0     2.034842112858   105.59620307     0.00000000
 H      1   2   3     2.037266758962   105.57716972   119.95754588
 H      1   2   3     2.037266758962   105.57716972   240.04245412
 F      1   2   3     3.528982296874   180.00000000     0.00000000

---------------------
BASIS SET INFORMATION
---------------------
There are 4 groups of distinct atoms

 Group   1 Type C   : 7s4p1d contracted to 3s2p1d pattern {511/31/1}
 Group   2 Type Cl  : 10s7p1d contracted to 4s3p1d pattern {5311/511/1}
 Group   3 Type H   : 4s1p contracted to 2s1p pattern {31/1}
 Group   4 Type F   : 7s4p1d contracted to 3s2p1d pattern {511/31/1}

Atom   0C    basis set group =>   1
Atom   1Cl   basis set group =>   2
Atom   2H    basis set group =>   3
Atom   3H    basis set group =>   3
Atom   4H    basis set group =>   3
Atom   5F    basis set group =>   4
---------------------------------
AUXILIARY/J BASIS SET INFORMATION
---------------------------------
There are 4 groups of distinct atoms

 Group   1 Type C   : 12s5p4d2f1g contracted to 6s4p3d1f1g pattern {711111/2111/211/2/1}
 Group   2 Type Cl  : 14s5p5d2f1g contracted to 8s4p3d1f1g pattern {71111111/2111/311/2/1}
 Group   3 Type H   : 5s2p1d contracted to 3s1p1d pattern {311/2/1}
 Group   4 Type F   : 12s5p4d2f1g contracted to 6s4p3d1f1g pattern {711111/2111/211/2/1}

Atom   0C    basis set group =>   1
Atom   1Cl   basis set group =>   2
Atom   2H    basis set group =>   3
Atom   3H    basis set group =>   3
Atom   4H    basis set group =>   3
Atom   5F    basis set group =>   4
------------------------------------------------------------------------------
                             ORCA STARTUP CALCULATIONS
                           -- RI-GTO INTEGRALS CHOSEN --
------------------------------------------------------------------------------
------------------------------------------------------------------------------
                   ___                                                        
                  /   \      - P O W E R E D   B Y -                         
                 /     \                                                     
                 |  |  |   _    _      __       _____    __    __             
                 |  |  |  | |  | |    /  \     |  _  \  |  |  /  |          
                  \  \/   | |  | |   /    \    | | | |  |  | /  /          
                 / \  \   | |__| |  /  /\  \   | |_| |  |  |/  /          
                |  |  |   |  __  | /  /__\  \  |    /   |      \           
                |  |  |   | |  | | |   __   |  |    \   |  |\   \          
                \     /   | |  | | |  |  |  |  | |\  \  |  | \   \       
                 \___/    |_|  |_| |__|  |__|  |_| \__\ |__|  \__/        
                                                                              
                      - O R C A' S   B I G   F R I E N D -                    
                                      &                                       
                       - I N T E G R A L  F E E D E R -                       
                                                                              
 v1 FN, 2020, v2 2021, v3 2022-2024                                           
------------------------------------------------------------------------------


----------------------
SHARK INTEGRAL PACKAGE
----------------------

Number of atoms                             ...      6
Number of basis functions                   ...     61
Number of shells                            ...     29
Maximum angular momentum                    ...      2
Integral batch strategy                     ... SHARK/LIBINT Hybrid
RI-J (if used) integral strategy            ... SPLIT-RIJ (Revised 2003 algorithm where possible)
Printlevel                                  ...      1
Contraction scheme used                     ... SEGMENTED contraction
Prescreening option                         ... SCHWARTZ
   Thresh                                   ... 2.500e-11
   Tcut                                     ... 2.500e-12
   Tpresel                                  ... 2.500e-12 
Coulomb Range Separation                    ... NOT USED
Exchange Range Separation                   ... NOT USED
Multipole approximations                    ... NOT USED
Finite Nucleus Model                        ... NOT USED
CABS basis                                  ... NOT available
Auxiliary Coulomb fitting basis             ... AVAILABLE
   # of basis functions in Aux-J            ...    182
   # of shells in Aux-J                     ...     62
   Maximum angular momentum in Aux-J        ...      4
Auxiliary J/K fitting basis                 ... NOT available
Auxiliary Correlation fitting basis         ... NOT available
Auxiliary 'external' fitting basis          ... NOT available

Checking pre-screening integrals            ... done (  0.0 sec) Dimension = 29
   => SHARK Basis and OBASIS are compatible. Storing Pre-screening
Shell pair information
Shell pair cut-off parameter TPreSel        ...   2.5e-12
Total number of shell pairs                 ...       435
Shell pairs after pre-screening             ...       419
Total number of primitive shell pairs       ...      1711
Primitive shell pairs kept                  ...      1349
          la=0 lb=0:    130 shell pairs
          la=1 lb=0:    155 shell pairs
          la=1 lb=1:     54 shell pairs
          la=2 lb=0:     45 shell pairs
          la=2 lb=1:     29 shell pairs
          la=2 lb=2:      6 shell pairs

Checking whether 4 symmetric matrices of dimension 61 fit in memory
:Max Core in MB      =   4096.00
 MB in use           =      3.76
 MB left             =   4092.24
 MB needed           =      0.06
 Data fit in memory  = YES
Calculating RI/J V-Matrix + Cholesky decomp.... done (  0.4 sec)
Calculating Nuclear repulsion               ... done (  0.0 sec) ENN=     92.558803047584 Eh

Diagonalization of the overlap matrix:
Smallest eigenvalue                        ... 1.063e-02
Time for diagonalization                   ...    0.033 sec
Threshold for overlap eigenvalues          ... 1.000e-07
Number of eigenvalues below threshold      ... 0
Time for construction of square roots      ...    0.004 sec
Total time needed                          ...    0.038 sec

-------------------
DFT GRID GENERATION
-------------------

General Integration Accuracy     IntAcc      ... 4.388
Radial Grid Type                 RadialGrid  ... OptM3 with GC (2021)
Angular Grid (max. ang.)         AngularGrid ... 4 (Lebedev-302)
Angular grid pruning method      GridPruning ... 4 (adaptive)
Weight generation scheme         WeightScheme... mBecke (2022)
Basis function cutoff            BFCut       ... 1.0000e-11
Integration weight cutoff        WCut        ... 1.0000e-14
Partially contracted basis set               ... off
Rotationally invariant grid construction     ... off
Angular grids for H and He will be reduced by one unit

Total number of grid points                  ...    29379
Total number of batches                      ...      463
Average number of points per batch           ...       63
Average number of grid points per atom       ...     4896

--------------------
COSX GRID GENERATION
--------------------

GRIDX 1
-------
General Integration Accuracy     IntAcc      ... 3.816
Radial Grid Type                 RadialGrid  ... OptM3 with GC (2021)
Angular Grid (max. ang.)         AngularGrid ... 1 (Lebedev-50)
Angular grid pruning method      GridPruning ... 4 (adaptive)
Weight generation scheme         WeightScheme... mBecke (2022)
Basis function cutoff            BFCut       ... 1.0000e-11
Integration weight cutoff        WCut        ... 1.0000e-14
Partially contracted basis set               ... on
Rotationally invariant grid construction     ... off
Angular grids for H and He will be reduced by one unit

Total number of grid points                  ...     4807
Total number of batches                      ...       42
Average number of points per batch           ...      114
Average number of grid points per atom       ...      801
UseSFitting                                  ... on

GRIDX 2
-------
General Integration Accuracy     IntAcc      ... 4.020
Radial Grid Type                 RadialGrid  ... OptM3 with GC (2021)
Angular Grid (max. ang.)         AngularGrid ... 2 (Lebedev-110)
Angular grid pruning method      GridPruning ... 4 (adaptive)
Weight generation scheme         WeightScheme... mBecke (2022)
Basis function cutoff            BFCut       ... 1.0000e-11
Integration weight cutoff        WCut        ... 1.0000e-14
Partially contracted basis set               ... on
Rotationally invariant grid construction     ... off
Angular grids for H and He will be reduced by one unit

Total number of grid points                  ...     8085
Total number of batches                      ...       66
Average number of points per batch           ...      122
Average number of grid points per atom       ...     1348
UseSFitting                                  ... on

GRIDX 3
-------
General Integration Accuracy     IntAcc      ... 4.338
Radial Grid Type                 RadialGrid  ... OptM3 with GC (2021)
Angular Grid (max. ang.)         AngularGrid ... 3 (Lebedev-194)
Angular grid pruning method      GridPruning ... 4 (adaptive)
Weight generation scheme         WeightScheme... mBecke (2022)
Basis function cutoff            BFCut       ... 1.0000e-11
Integration weight cutoff        WCut        ... 1.0000e-14
Partially contracted basis set               ... on
Rotationally invariant grid construction     ... off
Angular grids for H and He will be reduced by one unit

Total number of grid points                  ...    18482
Total number of batches                      ...      148
Average number of points per batch           ...      124
Average number of grid points per atom       ...     3080
UseSFitting                                  ... on
Grids setup in   0.6 sec
Initializing property integral containers    ... done (  0.1 sec)

SHARK setup successfully completed in   2.3 seconds

Maximum memory used throughout the entire STARTUP-calculation: 13.4 MB
-------------------------------------------------------------------------------
                                 ORCA GUESS
                   Start orbitals & Density for SCF / CASSCF
-------------------------------------------------------------------------------

------------
SCF SETTINGS
------------
Hamiltonian:
 Density Functional     Method          .... DFT(GTOs)
 Exchange Functional    Exchange        .... M062X
 Correlation Functional Correlation     .... M062X
 Gradients option       PostSCFGGA      .... off
 Hybrid DFT is turned on
   Fraction HF Exchange ScalHFX         ....  0.540000
   Scaling of DF-GGA-X  ScalDFX         ....  0.460000
   Scaling of DF-GGA-C  ScalDFC         ....  1.000000
   Scaling of DF-LDA-C  ScalLDAC        ....  1.000000
   Perturbative correction              ....  0.000000
 RI-approximation to the Coulomb term is turned on
   Number of AuxJ basis functions       .... 182
   RIJ-COSX (HFX calculated with COS-X)).... on


General Settings:
 Integral files         IntName         .... /users/b163264/scratch/sn2_ts/sn2_ts
 Hartree-Fock type      HFTyp           .... RHF
 Total Charge           Charge          ....   -1
 Multiplicity           Mult            ....    1
 Number of Electrons    NEL             ....   36
 Basis Dimension        Dim             ....   61
 Nuclear Repulsion      ENuc            ....     92.5588030476 Eh

Convergence Acceleration:
 AO-DIIS                CNVDIIS         .... on
   Start iteration      DIISMaxIt       ....    12
   Startup error        DIISStart       ....  0.200000
   # of expansion vecs  DIISMaxEq       ....     5
   Bias factor          DIISBfac        ....   1.050
   Max. coefficient     DIISMaxC        ....  10.000
 MO-DIIS                CNVKDIIS        .... off
 Trust-Rad. Augm. Hess. CNVTRAH         .... auto
   Auto Start mean grad. ratio tolernc. ....  1.125000
   Auto Start start iteration           ....    50
   Auto Start num. interpolation iter.  ....    10
   Max. Number of Micro iterations      ....    24
   Max. Number of Macro iterations      .... Maxiter - #DIIS iter
   Number of Davidson start vectors     ....     2
   Converg. threshold    (grad. norm)   ....   1.000e-05
   Grad. Scal. Fac. for Micro threshold ....   0.100
   Minimum threshold for Micro iter.    ....   1.000e-02
   NR start threshold (gradient norm)   ....   1.000e-04
   Initial trust radius                 ....   0.400
   Minimum AH scaling param. (alpha)    ....   1.000
   Maximum AH scaling param. (alpha)    .... 1000.000
   Quad. conv. algorithm                .... NR
   White noise on init. David. guess    .... on
   Maximum white noise                  ....   0.010
   Pseudo random numbers                .... off
   Inactive MOs                         .... canonical
   Orbital update algorithm             .... Taylor
   Preconditioner                       .... Diag
   Full preconditioner red. dimension   ....   250
 SOSCF                 CNVSOSCF           .... on
   Start iteration     SOSCFMaxIt         ....   150
   Startup grad/error  SOSCFStart         ....  0.003300
   Hessian update      SOSCFHessUp        .... L-BFGS
   Autom. constraints  SOSCFAutoConstrain .... off
 Level Shifting         CNVShift        .... on
   Level shift para.    LevelShift      ....    0.2500
   Turn off err/grad.   ShiftErr        ....    0.0010
 Zerner damping         CNVZerner       .... off
 Static damping         CNVDamp         .... on
   Fraction old density DampFac         ....    0.7000
   Max. Damping (<1)    DampMax         ....    0.9800
   Min. Damping (>=0)   DampMin         ....    0.0000
   Turn off err/grad.   DampErr         ....    0.1000

SCF Procedure:
 Maximum # iterations   MaxIter         ....   125
 SCF integral mode      SCFMode         .... Direct
   Integral package                     .... SHARK and LIBINT hybrid scheme
 Reset frequency        DirectResetFreq ....    20
 Integral Threshold     Thresh          ....  2.500e-11 Eh
 Primitive CutOff       TCut            ....  2.500e-12 Eh

Convergence Tolerance:
 Convergence Check Mode ConvCheckMode   .... Total+1el-Energy
 Convergence forced     ConvForced      .... 0
 Energy Change          TolE            ....  1.000e-08 Eh
 1-El. energy change                    ....  1.000e-05 Eh
 Orbital Gradient       TolG            ....  1.000e-05
 Orbital Rotation angle TolX            ....  1.000e-05
 DIIS Error             TolErr          ....  5.000e-07

------------------------------
INITIAL GUESS: MODEL POTENTIAL
------------------------------
Loading Hartree-Fock densities                     ... done
Calculating cut-offs                               ... done
Initializing the effective Hamiltonian             ... done
Setting up the integral package (SHARK)            ... done
Starting the Coulomb interaction                   ... done (   0.3 sec)
Making the grid                                    ... done (   0.0 sec)
Mapping shells                                     ... done
Starting the XC term evaluation                    ... done (   0.0 sec)
  promolecular density results
     # of electrons  =     34.996966083
     EX              =    -43.295964147
     EC              =     -1.250788502
     EX+EC           =    -44.546752649
Transforming the Hamiltonian                       ... done (   0.0 sec)
Diagonalizing the Hamiltonian                      ... done (   0.0 sec)
Back transforming the eigenvectors                 ... done (   0.0 sec)
Now organizing SCF variables                       ... done
                      ------------------
                      INITIAL GUESS DONE (   0.4 sec)
                      ------------------
             **** ENERGY FILE WAS UPDATED (/users/b163264/scratch/sn2_ts/sn2_ts.en.tmp) ****
Finished Guess after   0.7 sec
Maximum memory used throughout the entire GUESS-calculation: 6.3 MB

-------------------------------------------------------------------------------------------
                                      ORCA LEAN-SCF
                              memory conserving SCF solver
-------------------------------------------------------------------------------------------

----------------------------------------D-I-I-S--------------------------------------------
Iteration    Energy (Eh)           Delta-E    RMSDP     MaxDP     DIISErr   Damp  Time(sec)
-------------------------------------------------------------------------------------------
               ***  Starting incremental Fock matrix formation  ***
    1    -599.4470454755113451     0.00e+00  6.48e-03  7.74e-02  3.16e-01  0.700   1.4
    2    -599.5061551681994843    -5.91e-02  4.62e-03  6.13e-02  1.47e-01  0.700   0.4
                               ***Turning on AO-DIIS***
    3    -599.5332306382501883    -2.71e-02  2.15e-03  3.53e-02  4.95e-02  0.700   0.3
    4    -599.5494625361741328    -1.62e-02  4.39e-03  8.02e-02  3.18e-02  0.000   0.3
    5    -599.5850261128991860    -3.56e-02  5.25e-04  5.83e-03  4.50e-03  0.000   0.3
                              *** Initializing SOSCF ***
---------------------------------------S-O-S-C-F--------------------------------------
Iteration    Energy (Eh)           Delta-E    RMSDP     MaxDP     MaxGrad    Time(sec)
--------------------------------------------------------------------------------------
    6    -599.5850967029451795    -7.06e-05  2.30e-04  3.23e-03  2.90e-03     0.3
               *** Restarting incremental Fock matrix formation ***
    7    -599.5851960105940179    -9.93e-05  1.92e-04  3.24e-03  2.81e-04     0.4
    8    -599.5851986196435064    -2.61e-06  1.15e-04  1.86e-03  2.28e-04     0.4
    9    -599.5851990197774057    -4.00e-07  3.92e-05  5.37e-04  1.53e-04     0.4
   10    -599.5851992053458162    -1.86e-07  3.82e-06  5.68e-05  2.20e-05     0.4
   11    -599.5851992082609740    -2.92e-09  2.50e-06  3.26e-05  1.41e-05     0.4
                 **** Energy Check signals convergence ****

               *****************************************************
               *                     SUCCESS                       *
               *           SCF CONVERGED AFTER  11 CYCLES          *
               *****************************************************

Recomputing exchange energy using gridx3       ... done (    0.455 sec)
Old exchange energy                            :    -23.846300995 Eh
New exchange energy                            :    -23.846319137 Eh
Exchange energy change after final integration :     -0.000018142 Eh
Total energy after final integration           :   -599.585217353 Eh
             **** ENERGY FILE WAS UPDATED (/users/b163264/scratch/sn2_ts/sn2_ts.en.tmp) ****

----------------
TOTAL SCF ENERGY
----------------

Total Energy       :       -599.58521735347347 Eh          -16315.54323 eV

Components:
Nuclear Repulsion  :         92.55880304758419 Eh            2518.65308 eV
Electronic Energy  :       -692.14400225864347 Eh          -18834.19581 eV
One Electron Energy:      -1021.89949628110151 Eh          -27807.29899 eV
Two Electron Energy:        329.75549402245804 Eh            8973.10318 eV

Virial components:
Potential Energy   :      -1197.79512640735857 Eh          -32593.66242 eV
Kinetic Energy     :        598.20990905388499 Eh           16278.11919 eV
Virial Ratio       :          2.00229903964942

DFT components:
N(Alpha)           :       18.000005278673 electrons
N(Beta)            :       18.000005278673 electrons
N(Total)           :       36.000010557346 electrons
E(XC)              :      -21.680591513943 Eh       

---------------
SCF CONVERGENCE
---------------

  Last Energy change         ...    2.9152e-09  Tolerance :   1.0000e-08
  Last MAX-Density change    ...    3.2561e-05  Tolerance :   1.0000e-07
  Last RMS-Density change    ...    2.4970e-06  Tolerance :   5.0000e-09
  Last DIIS Error            ...    2.9030e-03  Tolerance :   5.0000e-07
  Last Orbital Gradient      ...    1.4082e-05  Tolerance :   1.0000e-05
  Last Orbital Rotation      ...    1.9235e-05  Tolerance :   1.0000e-05


----------------
ORBITAL ENERGIES
----------------

  NO   OCC          E(Eh)            E(eV) 
   0   2.0000    -102.376296     -2785.8006 
   1   2.0000     -24.819666      -675.3774 
   2   2.0000     -10.386185      -282.6225 
   3   2.0000      -9.545813      -259.7548 
   4   2.0000      -7.271779      -197.8752 
   5   2.0000      -7.267583      -197.7610 
   6   2.0000      -7.267582      -197.7610 
   7   2.0000      -0.863910       -23.5082 
   8   2.0000      -0.682675       -18.5765 
   9   2.0000      -0.529147       -14.3988 
  10   2.0000      -0.292254        -7.9526 
  11   2.0000      -0.292246        -7.9524 
  12   2.0000      -0.235683        -6.4132 
  13   2.0000      -0.144175        -3.9232 
  14   2.0000      -0.144169        -3.9230 
  15   2.0000      -0.096332        -2.6213 
  16   2.0000      -0.096249        -2.6191 
  17   2.0000      -0.069486        -1.8908 
  18   0.0000       0.295276         8.0349 
  19   0.0000       0.346030         9.4159 
  20   0.0000       0.371657        10.1133 
  21   0.0000       0.371836        10.1182 
  22   0.0000       0.671772        18.2798 
  23   0.0000       0.672082        18.2883 
  24   0.0000       0.754100        20.5201 
  25   0.0000       0.855941        23.2913 
  26   0.0000       0.933612        25.4049 
  27   0.0000       0.934089        25.4179 
  28   0.0000       0.952342        25.9145 
*Only the first 10 virtual orbitals were printed.

                    ********************************
                    * MULLIKEN POPULATION ANALYSIS *
                    ********************************

-----------------------
MULLIKEN ATOMIC CHARGES
-----------------------
   0 C :    0.119870
   1 Cl:   -0.508816
   2 H :    0.034738
   3 H :    0.034497
   4 H :    0.034497
   5 F :   -0.714784
Sum of atomic charges:   -1.0000000

--------------------------------
MULLIKEN REDUCED ORBITAL CHARGES
--------------------------------
  0 C s       :     3.089117  s :     3.089117
      pz      :     0.602018  p :     2.751165
      px      :     1.074537
      py      :     1.074611
      dz2     :     0.021168  d :     0.039848
      dxz     :     0.003491
      dyz     :     0.003497
      dx2y2   :     0.005859
      dxy     :     0.005834

  1 Cls       :     5.959376  s :     5.959376
      pz      :     3.557732  p :    11.532755
      px      :     3.987519
      py      :     3.987504
      dz2     :     0.010401  d :     0.016685
      dxz     :     0.003129
      dyz     :     0.003128
      dx2y2   :     0.000014
      dxy     :     0.000014

  2 H s       :     0.941015  s :     0.941015
      pz      :     0.007569  p :     0.024247
      px      :     0.003874
      py      :     0.012804

  3 H s       :     0.941294  s :     0.941294
      pz      :     0.007553  p :     0.024209
      px      :     0.010584
      py      :     0.006072

  4 H s       :     0.941294  s :     0.941294
      pz      :     0.007553  p :     0.024209
      px      :     0.010584
      py      :     0.006072

  5 F s       :     3.968084  s :     3.968084
      pz      :     1.802758  p :     5.745515
      px      :     1.971339
      py      :     1.971417
      dz2     :     0.000659  d :     0.001185
      dxz     :     0.000257
      dyz     :     0.000257
      dx2y2   :     0.000007
      dxy     :     0.000007



                     *******************************
                     * LOEWDIN POPULATION ANALYSIS *
                     *******************************

----------------------
LOEWDIN ATOMIC CHARGES
----------------------
   0 C :   -0.035801
   1 Cl:   -0.320336
   2 H :    0.003480
   3 H :    0.003699
   4 H :    0.003699
   5 F :   -0.654741

-------------------------------
LOEWDIN REDUCED ORBITAL CHARGES
-------------------------------
  0 C s       :     2.926568  s :     2.926568
      pz      :     0.765504  p :     3.012807
      px      :     1.123460
      py      :     1.123843
      dz2     :     0.051383  d :     0.096426
      dxz     :     0.008602
      dyz     :     0.008617
      dx2y2   :     0.013945
      dxy     :     0.013879

  1 Cls       :     5.840725  s :     5.840725
      pz      :     3.518771  p :    11.461086
      px      :     3.971168
      py      :     3.971147
      dz2     :     0.012403  d :     0.018524
      dxz     :     0.003047
      dyz     :     0.003045
      dx2y2   :     0.000015
      dxy     :     0.000015

  2 H s       :     0.920749  s :     0.920749
      pz      :     0.022893  p :     0.075771
      px      :     0.012694
      py      :     0.040185

  3 H s       :     0.920783  s :     0.920783
      pz      :     0.022800  p :     0.075518
      px      :     0.033256
      py      :     0.019462

  4 H s       :     0.920783  s :     0.920783
      pz      :     0.022800  p :     0.075518
      px      :     0.033256
      py      :     0.019462

  5 F s       :     3.900492  s :     3.900492
      pz      :     1.808961  p :     5.752595
      px      :     1.971783
      py      :     1.971851
      dz2     :     0.000919  d :     0.001654
      dxz     :     0.000353
      dyz     :     0.000353
      dx2y2   :     0.000014
      dxy     :     0.000014



                      *****************************
                      * MAYER POPULATION ANALYSIS *
                      *****************************

  NA   - Mulliken gross atomic population
  ZA   - Total nuclear charge
  QA   - Mulliken gross atomic charge
  VA   - Mayer's total valence
  BVA  - Mayer's bonded valence
  FA   - Mayer's free valence

  ATOM       NA         ZA         QA         VA         BVA        FA
  0 C      5.8801     6.0000     0.1199     3.8514     3.8514    -0.0000
  1 Cl    17.5088    17.0000    -0.5088     0.7015     0.7015    -0.0000
  2 H      0.9653     1.0000     0.0347     1.0308     1.0308    -0.0000
  3 H      0.9655     1.0000     0.0345     1.0307     1.0307    -0.0000
  4 H      0.9655     1.0000     0.0345     1.0307     1.0307    -0.0000
  5 F      9.7148     9.0000    -0.7148     0.4832     0.4832    -0.0000

  Mayer bond orders larger than 0.100000
B(  0-C ,  1-Cl) :   0.6182 B(  0-C ,  2-H ) :   0.9777 B(  0-C ,  3-H ) :   0.9777 
B(  0-C ,  4-H ) :   0.9777 B(  0-C ,  5-F ) :   0.3001 

-------
TIMINGS
-------

Total SCF time: 0 days 0 hours 0 min 6 sec 

Total time                  ....       6.511 sec
Sum of individual times     ....       6.033 sec  ( 92.7%)

SCF preparation             ....       0.310 sec  (  4.8%)
Fock matrix formation       ....       5.449 sec  ( 83.7%)
  Startup                   ....       0.009 sec  (  0.2% of F)
  Split-RI-J                ....       0.650 sec  ( 11.9% of F)
  Chain of spheres X        ....       2.708 sec  ( 49.7% of F)
  XC integration            ....       2.154 sec  ( 39.5% of F)
    Basis function eval.    ....       0.379 sec  ( 17.6% of XC)
    Density eval.           ....       0.446 sec  ( 20.7% of XC)
    XC-Functional eval.     ....       0.416 sec  ( 19.3% of XC)
    XC-Potential eval.      ....       0.409 sec  ( 19.0% of XC)
Diagonalization             ....       0.000 sec  (  0.0%)
Density matrix formation    ....       0.038 sec  (  0.6%)
Total Energy calculation    ....       0.004 sec  (  0.1%)
Population analysis         ....       0.176 sec  (  2.7%)
Orbital Transformation      ....       0.010 sec  (  0.1%)
Orbital Orthonormalization  ....       0.000 sec  (  0.0%)
DIIS solution               ....       0.025 sec  (  0.4%)
SOSCF solution              ....       0.021 sec  (  0.3%)
Finished LeanSCF after   6.5 sec

Maximum memory used throughout the entire LEANSCF-calculation: 7.4 MB

------------------------------------------------------------------------------
                         ORCA PROPERTY INTEGRAL CALCULATIONS
------------------------------------------------------------------------------

GBWName                                   ... /users/b163264/scratch/sn2_ts/sn2_ts.gbw
Number of atoms                           ...      6
Number of basis functions                 ...     61
Max core memory                           ...   4096 MB

Dipole integrals                          ... YES
Quadrupole integrals                      ...  NO
Linear momentum integrals                 ...  NO
Angular momentum integrals                ...  NO
Higher moments length integrals           ...  NO
Higher moments velocity integrals         ...  NO
Kinetic energy integrals                  ...  NO
GIAO right hand sides                     ...  NO
GIAO dipole derivative integrals          ...  NO
SOC integrals                             ...  NO
EPR diamagnetic integrals (GIAO)          ...  NO
EPR gauge integrals                       ...  NO
Field gradient integrals                  ...  NO (   0 nuclei)
Spin-dipole/Fermi contact integrals       ...  NO (   0 nuclei)
Contact density integrals                 ...  NO (   0 nuclei)
Nucleus-orbit integrals                   ...  NO (   0 nuclei)
Geometric perturbations                   ...  NO (   6 nuclei)

Choice of electric origin   ... Center of mass
Position of electric origin ... (  0.0000,  0.0000,  0.8134) 
Choice of magnetic origin   ... GIAO
Position of magnetic origin ... (  0.0000,  0.0000,  0.0000) 

Calculating integrals                     ... Electric Dipole (Length)     done (  0.0 sec)

Property integrals calculated in   0.0 sec

Maximum memory used throughout the entire PROPINT-calculation: 6.4 MB

-------------------------   --------------------
FINAL SINGLE POINT ENERGY      -599.585217353473
-------------------------   --------------------

------------------------------------------------------------------------------
                         ORCA SCF GRADIENT CALCULATION
------------------------------------------------------------------------------

Nuc. rep. gradient        (SHARK) ... done (  0.0 sec)
HCore & Overlap gradient  (SHARK) ... done (  0.1 sec)
Split-RIJ-J gradient      (SHARK) ... done (  1.4 sec)
done (  2.3 sec)
XC gradient                       ... done (  0.4 sec)

------------------
CARTESIAN GRADIENT
------------------

   1   C   :   -0.000000019    0.000577693    0.012660224
   2   Cl  :    0.000000010   -0.000008240   -0.022709035
   3   H   :    0.000000002   -0.008783725   -0.012996401
   4   H   :   -0.006739244    0.004146885   -0.013252352
   5   H   :    0.006739245    0.004146924   -0.013252353
   6   F   :    0.000000006   -0.000079538    0.049549916

Difference to translation invariance:
           :   -0.0000000000   -0.0000000000   -0.0000000002

Difference to rotation invariance:
           :   -0.0000168222    0.0000000085   -0.0000000692

Norm of the Cartesian gradient     ...    0.0620810301
RMS gradient                       ...    0.0146326391
MAX gradient                       ...    0.0495499161

-------
TIMINGS
-------

Total SCF gradient time     ....        4.161 sec

Densities                   ....       0.000 sec  (  0.0%)
One electron gradient       ....       0.071 sec  (  1.7%)
RI-J Coulomb gradient       ....       1.352 sec  ( 32.5%)
COSX gradient               ....       2.254 sec  ( 54.2%)
XC gradient                 ....       0.445 sec  ( 10.7%)

Maximum memory used throughout the entire SCFGRAD-calculation: 9.2 MB
------------------------------------------------------------------------------
                         ORCA GEOMETRY RELAXATION STEP
------------------------------------------------------------------------------

Reading the OPT-File                    .... done
Getting information on internals        .... done
Copying old internal coords+grads       .... done
Making the new internal coordinates     .... (2022 redundants) done
Validating the new internal coordinates .... (2022 redundants) done
Calculating the B-matrix                .... done
Calculating the G,G- and P matrices     .... done
Transforming gradient to internals      .... done
Projecting the internal gradient        .... done
Number of atoms                         ....   6
Number of internal coordinates          ....  14
Current Energy                          ....  -599.585217353 Eh
Current gradient norm                   ....     0.062081030 Eh/bohr
Maximum allowed component of the step   ....  0.300
Current trust radius                    ....  0.300
Evaluating the initial hessian          ....  (Almloef) done
Projecting the Hessian                  .... done
Diagonalizing the Hessian               .... done
Dimension of the hessian                ....  14
Lowest eigenvalues of the Hessian:
  0.089994208  0.183315631  0.258835666  0.258956522  0.284658613
Hessian has   0 negative eigenvalues
Taking P-RFO step
Searching for lambda that maximizes along the lowest mode
TS mode is mode number   0 with eigenvalue   0.08999421 and components:
   1.   -0.00000000
   2.    0.00000000
   3.    0.00000000
   4.    0.00000000
   5.   -1.00000000
   6.   -0.00000000
   7.    0.00000000
   8.    0.00000000
   9.   -0.00000000
  10.    0.00000000
  11.    0.00000000
  12.   -0.00000000
  13.    0.00000000
  14.   -0.00000000

Lambda that maximizes along the TS mode:       0.11192941
Searching for lambda that minimizes along all other modes
In cycle   1: lambdaN =  -0.00635839   step =   0.00635839
In cycle   2: lambdaN =  -0.00636332   step =   0.00000493
In cycle   3: lambdaN =  -0.00636332   step =   0.00000000
Lambda that minimizes along all other modes:  -0.00636332
Calculated stepsize too large (   0.3417 >    0.3000). Scaled with    0.8781.
The final length of the internal step   ....       0.3000
Converting the step to Cartesian space:
 Initial RMS(Int)=    0.0801783726
Transforming coordinates:
 Iter   0:  RMS(Cart)=    0.0487780160 RMS(Int)=    0.0800618642
done
Storing new coordinates                 .... done

                                .--------------------.
          ----------------------|Geometry convergence|-------------------------
          Item                value                   Tolerance       Converged
          ---------------------------------------------------------------------
          RMS gradient        0.0169987656            0.0001000000      NO
          MAX gradient        0.0495499162            0.0003000000      NO
          RMS step            0.0801783726            0.0020000000      NO
          MAX step            0.2634188161            0.0040000000      NO
          -------------------------------------------------------------------------
          ........................................................
          Max(Bonds)      0.1394      Max(Angles)    1.95
          Max(Dihed)        0.00      Max(Improp)    0.00
          ---------------------------------------------------------------------

The optimization has not yet converged - more geometry cycles are needed


    ---------------------------------------------------------------------------
                         Redundant Internal Coordinates
                            (Angstroem and degrees)

        Definition                    Value    dE/dq     Step     New-Value  comp.(TS mode)
    ----------------------------------------------------------------------------
     1. B(Cl  1,C   0)                1.9438 -0.022709  0.0556    1.9994   
     2. B(H   2,C   0)                1.0768 -0.004966  0.0060    1.0828   
     3. B(H   3,C   0)                1.0781 -0.004060  0.0049    1.0830   
     4. B(H   4,C   0)                1.0781 -0.004060  0.0049    1.0830   
     5. B(F   5,C   0)                1.8675 -0.049550 -0.1394    1.7281          1.00
     6. A(Cl  1,C   0,H   3)          105.58  0.011171   -1.93    103.65   
     7. A(H   2,C   0,H   3)          113.02 -0.009602    1.66    114.68   
     8. A(Cl  1,C   0,H   4)          105.58  0.011171   -1.93    103.65   
     9. A(H   2,C   0,H   4)          113.02 -0.009602    1.66    114.68   
    10. A(H   3,C   0,H   4)          113.14 -0.009093    1.57    114.72   
    11. A(H   2,C   0,F   5)           74.40 -0.010986    1.90     76.30   
    12. A(H   3,C   0,F   5)           74.42 -0.011275    1.95     76.37   
    13. A(H   4,C   0,F   5)           74.42 -0.011275    1.95     76.37   
    14. A(Cl  1,C   0,H   2)          105.60  0.011194   -1.93    103.66   
    ----------------------------------------------------------------------------

Geometry step timings:
Preparation and reading OPT file:      0.000 s ( 0.120 %)
Internal coordinates            :      0.015 s (23.824 %)
B/P matrices and projection     :      0.017 s (27.425 %)
Hessian update/contruction      :      0.006 s ( 9.119 %)
Making the step                 :      0.002 s ( 2.907 %)
Converting the step to Cartesian:      0.017 s (26.565 %)
Storing new data                :      0.004 s ( 6.863 %)
Checking convergence            :      0.000 s ( 0.068 %)
Final printing                  :      0.001 s ( 1.805 %)
Total time                      :      0.063 s

Time for energy+gradient        :     14.744 s
Time for complete geometry iter :     15.085 s

         *************************************************************
         *                GEOMETRY OPTIMIZATION CYCLE   2            *
         *************************************************************
---------------------------------
CARTESIAN COORDINATES (ANGSTROEM)
---------------------------------
  C      0.000000   -0.000189   -0.087874
  Cl    -0.000000    0.000208    1.911544
  H      0.000000    1.052037   -0.343350
  H      0.911639   -0.526346   -0.342777
  H     -0.911639   -0.526346   -0.342777
  F     -0.000000    0.000637   -1.815936

----------------------------
CARTESIAN COORDINATES (A.U.)
----------------------------
  NO LB      ZA    FRAG     MASS         X           Y           Z
   0 C     6.0000    0    12.011    0.000000   -0.000357   -0.166058
   1 Cl   17.0000    0    35.453   -0.000000    0.000394    3.612295
   2 H     1.0000    0     1.008    0.000000    1.988061   -0.648838
   3 H     1.0000    0     1.008    1.722749   -0.994650   -0.647755
   4 H     1.0000    0     1.008   -1.722749   -0.994650   -0.647755
   5 F     9.0000    0    18.998   -0.000000    0.001203   -3.431621

--------------------------------
INTERNAL COORDINATES (ANGSTROEM)
--------------------------------
 C      0   0   0     0.000000000000     0.00000000     0.00000000
 Cl     1   0   0     1.999418637370     0.00000000     0.00000000
 H      1   2   0     1.082795670841   103.63571474     0.00000000
 H      1   2   3     1.083006346770   103.61888833   119.98920936
 H      1   2   3     1.083006370234   103.61888246   240.01078907
 F      1   2   3     1.728061766264   179.96123759     0.00000000

---------------------------
INTERNAL COORDINATES (A.U.)
---------------------------
 C      0   0   0     0.000000000000     0.00000000     0.00000000
 Cl     1   0   0     3.778353651686     0.00000000     0.00000000
 H      1   2   0     2.046187276884   103.63571474     0.00000000
 H      1   2   3     2.046585396694   103.61888833   119.98920936
 H      1   2   3     2.046585441035   103.61888246   240.01078907
 F      1   2   3     3.265563480740   179.96123759     0.00000000

------------------------------------------------------------------------------
                   ___                                                        
                  /   \      - P O W E R E D   B Y -                         
                 /     \                                                     
                 |  |  |   _    _      __       _____    __    __             
                 |  |  |  | |  | |    /  \     |  _  \  |  |  /  |          
                  \  \/   | |  | |   /    \    | | | |  |  | /  /          
                 / \  \   | |__| |  /  /\  \   | |_| |  |  |/  /          
                |  |  |   |  __  | /  /__\  \  |    /   |      \           
                |  |  |   | |  | | |   __   |  |    \   |  |\   \          
                \     /   | |  | | |  |  |  |  | |\  \  |  | \   \       
                 \___/    |_|  |_| |__|  |__|  |_| \__\ |__|  \__/        
                                                                              
                      - O R C A' S   B I G   F R I E N D -                    
                                      &                                       
                       - I N T E G R A L  F E E D E R -                       
                                                                              
 v1 FN, 2020, v2 2021, v3 2022-2024                                           
------------------------------------------------------------------------------


----------------------
SHARK INTEGRAL PACKAGE
----------------------

Number of atoms                             ...      6
Number of basis functions                   ...     61
Number of shells                            ...     29
Maximum angular momentum                    ...      2
Integral batch strategy                     ... SHARK/LIBINT Hybrid
RI-J (if used) integral strategy            ... SPLIT-RIJ (Revised 2003 algorithm where possible)
Printlevel                                  ...      1
Contraction scheme used                     ... SEGMENTED contraction
Prescreening option                         ... SCHWARTZ
   Thresh                                   ... 2.500e-11
   Tcut                                     ... 2.500e-12
   Tpresel                                  ... 2.500e-12 
Coulomb Range Separation                    ... NOT USED
Exchange Range Separation                   ... NOT USED
Multipole approximations                    ... NOT USED
Finite Nucleus Model                        ... NOT USED
CABS basis                                  ... NOT available
Auxiliary Coulomb fitting basis             ... AVAILABLE
   # of basis functions in Aux-J            ...    182
   # of shells in Aux-J                     ...     62
   Maximum angular momentum in Aux-J        ...      4
Auxiliary J/K fitting basis                 ... NOT available
Auxiliary Correlation fitting basis         ... NOT available
Auxiliary 'external' fitting basis          ... NOT available

Checking pre-screening integrals            ... done (  0.0 sec) Dimension = 29
   => SHARK Basis and OBASIS are compatible. Storing Pre-screening
Shell pair information
Shell pair cut-off parameter TPreSel        ...   2.5e-12
Total number of shell pairs                 ...       435
Shell pairs after pre-screening             ...       419
Total number of primitive shell pairs       ...      1711
Primitive shell pairs kept                  ...      1348
          la=0 lb=0:    130 shell pairs
          la=1 lb=0:    155 shell pairs
          la=1 lb=1:     54 shell pairs
          la=2 lb=0:     45 shell pairs
          la=2 lb=1:     29 shell pairs
          la=2 lb=2:      6 shell pairs

Checking whether 4 symmetric matrices of dimension 61 fit in memory
:Max Core in MB      =   4096.00
 MB in use           =      3.79
 MB left             =   4092.21
 MB needed           =      0.06
 Data fit in memory  = YES
Calculating RI/J V-Matrix + Cholesky decomp.... done (  0.0 sec)
Calculating Nuclear repulsion               ... done (  0.0 sec) ENN=     93.658844094146 Eh

Diagonalization of the overlap matrix:
Smallest eigenvalue                        ... 1.026e-02
Time for diagonalization                   ...    0.000 sec
Threshold for overlap eigenvalues          ... 1.000e-07
Number of eigenvalues below threshold      ... 0
Time for construction of square roots      ...    0.003 sec
Total time needed                          ...    0.005 sec

-------------------
DFT GRID GENERATION
-------------------

General Integration Accuracy     IntAcc      ... 4.388
Radial Grid Type                 RadialGrid  ... OptM3 with GC (2021)
Angular Grid (max. ang.)         AngularGrid ... 4 (Lebedev-302)
Angular grid pruning method      GridPruning ... 4 (adaptive)
Weight generation scheme         WeightScheme... mBecke (2022)
Basis function cutoff            BFCut       ... 1.0000e-11
Integration weight cutoff        WCut        ... 1.0000e-14
Partially contracted basis set               ... off
Rotationally invariant grid construction     ... off
Angular grids for H and He will be reduced by one unit

Total number of grid points                  ...    29367
Total number of batches                      ...      463
Average number of points per batch           ...       63
Average number of grid points per atom       ...     4894

--------------------
COSX GRID GENERATION
--------------------

GRIDX 1
-------
General Integration Accuracy     IntAcc      ... 3.816
Radial Grid Type                 RadialGrid  ... OptM3 with GC (2021)
Angular Grid (max. ang.)         AngularGrid ... 1 (Lebedev-50)
Angular grid pruning method      GridPruning ... 4 (adaptive)
Weight generation scheme         WeightScheme... mBecke (2022)
Basis function cutoff            BFCut       ... 1.0000e-11
Integration weight cutoff        WCut        ... 1.0000e-14
Partially contracted basis set               ... on
Rotationally invariant grid construction     ... off
Angular grids for H and He will be reduced by one unit

Total number of grid points                  ...     4806
Total number of batches                      ...       42
Average number of points per batch           ...      114
Average number of grid points per atom       ...      801
UseSFitting                                  ... on

GRIDX 2
-------
General Integration Accuracy     IntAcc      ... 4.020
Radial Grid Type                 RadialGrid  ... OptM3 with GC (2021)
Angular Grid (max. ang.)         AngularGrid ... 2 (Lebedev-110)
Angular grid pruning method      GridPruning ... 4 (adaptive)
Weight generation scheme         WeightScheme... mBecke (2022)
Basis function cutoff            BFCut       ... 1.0000e-11
Integration weight cutoff        WCut        ... 1.0000e-14
Partially contracted basis set               ... on
Rotationally invariant grid construction     ... off
Angular grids for H and He will be reduced by one unit

Total number of grid points                  ...     8082
Total number of batches                      ...       66
Average number of points per batch           ...      122
Average number of grid points per atom       ...     1347
UseSFitting                                  ... on

GRIDX 3
-------
General Integration Accuracy     IntAcc      ... 4.338
Radial Grid Type                 RadialGrid  ... OptM3 with GC (2021)
Angular Grid (max. ang.)         AngularGrid ... 3 (Lebedev-194)
Angular grid pruning method      GridPruning ... 4 (adaptive)
Weight generation scheme         WeightScheme... mBecke (2022)
Basis function cutoff            BFCut       ... 1.0000e-11
Integration weight cutoff        WCut        ... 1.0000e-14
Partially contracted basis set               ... on
Rotationally invariant grid construction     ... off
Angular grids for H and He will be reduced by one unit

Total number of grid points                  ...    18471
Total number of batches                      ...      148
Average number of points per batch           ...      124
Average number of grid points per atom       ...     3078
UseSFitting                                  ... on
Grids setup in   0.3 sec
Initializing property integral containers    ... done (  0.0 sec)

SHARK setup successfully completed in   0.4 seconds

Maximum memory used throughout the entire STARTUP-calculation: 13.4 MB
Occupation numbers will be reassigned to an Aufbau configuration
             **** ENERGY FILE WAS UPDATED (/users/b163264/scratch/sn2_ts/sn2_ts.en.tmp) ****
Finished Guess after   0.1 sec
Maximum memory used throughout the entire GUESS-calculation: 6.3 MB
----------------------------------------D-I-I-S--------------------------------------------
Iteration    Energy (Eh)           Delta-E    RMSDP     MaxDP     DIISErr   Damp  Time(sec)
-------------------------------------------------------------------------------------------
               ***  Starting incremental Fock matrix formation  ***
    1    -599.5710332347701979     0.00e+00  7.82e-04  1.06e-02  2.12e-02  0.700   0.5
    2    -599.5723255123409672    -1.29e-03  7.72e-04  1.06e-02  1.71e-02  0.700   0.3
                               ***Turning on AO-DIIS***
    3    -599.5733957058532724    -1.07e-03  7.40e-04  9.68e-03  1.34e-02  0.700   0.3
    4    -599.5742221451196201    -8.26e-04  2.09e-03  2.55e-02  9.99e-03  0.000   0.3
                              *** Initializing SOSCF ***
---------------------------------------S-O-S-C-F--------------------------------------
Iteration    Energy (Eh)           Delta-E    RMSDP     MaxDP     MaxGrad    Time(sec)
--------------------------------------------------------------------------------------
    5    -599.5765249514402058    -2.30e-03  3.09e-04  4.18e-03  1.34e-03     0.3
               *** Restarting incremental Fock matrix formation ***
    6    -599.5765195761601944     5.38e-06  2.60e-04  4.07e-03  5.83e-04     0.4
    7    -599.5765247920110141    -5.22e-06  1.46e-04  2.14e-03  1.55e-04     0.4
    8    -599.5765253171171025    -5.25e-07  3.84e-05  5.51e-04  1.85e-04     0.4
    9    -599.5765255745252489    -2.57e-07  7.55e-06  1.04e-04  2.55e-05     0.4
   10    -599.5765255800005207    -5.48e-09  3.29e-06  3.81e-05  2.57e-05     0.4
                 **** Energy Check signals convergence ****

               *****************************************************
               *                     SUCCESS                       *
               *           SCF CONVERGED AFTER  10 CYCLES          *
               *****************************************************

Recomputing exchange energy using gridx3       ... done (    0.470 sec)
Old exchange energy                            :    -23.845847396 Eh
New exchange energy                            :    -23.845827259 Eh
Exchange energy change after final integration :      0.000020137 Eh
Total energy after final integration           :   -599.576505448 Eh
             **** ENERGY FILE WAS UPDATED (/users/b163264/scratch/sn2_ts/sn2_ts.en.tmp) ****

----------------
TOTAL SCF ENERGY
----------------

Total Energy       :       -599.57650544825663 Eh          -16315.30617 eV

Components:
Nuclear Repulsion  :         93.65884409414606 Eh            2548.58672 eV
Electronic Energy  :       -693.23536967898428 Eh          -18863.89343 eV
One Electron Energy:      -1024.17214980066205 Eh          -27869.14104 eV
Two Electron Energy:        330.93678012167777 Eh            9005.24761 eV

Virial components:
Potential Energy   :      -1197.84647161187627 Eh          -32595.05959 eV
Kinetic Energy     :        598.26996616361964 Eh           16279.75343 eV
Virial Ratio       :          2.00218386240081

DFT components:
N(Alpha)           :       18.000006441281 electrons
N(Beta)            :       18.000006441281 electrons
N(Total)           :       36.000012882562 electrons
E(XC)              :      -21.684505824646 Eh       

---------------
SCF CONVERGENCE
---------------

  Last Energy change         ...    5.4753e-09  Tolerance :   1.0000e-08
  Last MAX-Density change    ...    3.8134e-05  Tolerance :   1.0000e-07
  Last RMS-Density change    ...    3.2944e-06  Tolerance :   5.0000e-09
  Last DIIS Error            ...    1.3358e-03  Tolerance :   5.0000e-07
  Last Orbital Gradient      ...    2.5664e-05  Tolerance :   1.0000e-05
  Last Orbital Rotation      ...    3.4231e-05  Tolerance :   1.0000e-05


Total SCF time: 0 days 0 hours 0 min 4 sec 
Finished LeanSCF after   4.7 sec

Maximum memory used throughout the entire LEANSCF-calculation: 7.4 MB

------------------------------------------------------------------------------
                         ORCA PROPERTY INTEGRAL CALCULATIONS
------------------------------------------------------------------------------

GBWName                                   ... /users/b163264/scratch/sn2_ts/sn2_ts.gbw
Number of atoms                           ...      6
Number of basis functions                 ...     61
Max core memory                           ...   4096 MB

Dipole integrals                          ... YES
Quadrupole integrals                      ...  NO
Linear momentum integrals                 ...  NO
Angular momentum integrals                ...  NO
Higher moments length integrals           ...  NO
Higher moments velocity integrals         ...  NO
Kinetic energy integrals                  ...  NO
GIAO right hand sides                     ...  NO
GIAO dipole derivative integrals          ...  NO
SOC integrals                             ...  NO
EPR diamagnetic integrals (GIAO)          ...  NO
EPR gauge integrals                       ...  NO
Field gradient integrals                  ...  NO (   0 nuclei)
Spin-dipole/Fermi contact integrals       ...  NO (   0 nuclei)
Contact density integrals                 ...  NO (   0 nuclei)
Nucleus-orbit integrals                   ...  NO (   0 nuclei)
Geometric perturbations                   ...  NO (   6 nuclei)

Choice of electric origin   ... Center of mass
Position of electric origin ... ( -0.0000,  0.0005,  0.8479) 
Choice of magnetic origin   ... GIAO
Position of magnetic origin ... (  0.0000,  0.0000,  0.0000) 

Calculating integrals                     ... Electric Dipole (Length)     done (  0.0 sec)

Property integrals calculated in   0.0 sec

Maximum memory used throughout the entire PROPINT-calculation: 6.4 MB

-------------------------   --------------------
FINAL SINGLE POINT ENERGY      -599.576505448257
-------------------------   --------------------

------------------------------------------------------------------------------
                         ORCA SCF GRADIENT CALCULATION
------------------------------------------------------------------------------

Nuc. rep. gradient        (SHARK) ... done (  0.0 sec)
HCore & Overlap gradient  (SHARK) ... done (  0.0 sec)
Split-RIJ-J gradient      (SHARK) ... done (  0.1 sec)
done (  2.1 sec)
XC gradient                       ... done (  0.3 sec)

------------------
CARTESIAN GRADIENT
------------------

   1   C   :    0.000000007    0.000216968    0.029823661
   2   Cl  :    0.000000002   -0.000005999   -0.029079954
   3   H   :   -0.000000023   -0.007798736   -0.023868129
   4   H   :   -0.006554196    0.003797622   -0.023838310
   5   H   :    0.006554174    0.003797610   -0.023838241
   6   F   :    0.000000037   -0.000007465    0.070800973

Difference to translation invariance:
           :   -0.0000000000   -0.0000000000   -0.0000000002

Difference to rotation invariance:
           :   -0.0000749102    0.0000000373    0.0000000437

Norm of the Cartesian gradient     ...    0.0928962463
RMS gradient                       ...    0.0218958552
MAX gradient                       ...    0.0708009730

-------
TIMINGS
-------

Total SCF gradient time     ....        2.577 sec

Densities                   ....       0.000 sec  (  0.0%)
One electron gradient       ....       0.011 sec  (  0.4%)
RI-J Coulomb gradient       ....       0.126 sec  (  4.9%)
COSX gradient               ....       2.117 sec  ( 82.2%)
XC gradient                 ....       0.323 sec  ( 12.5%)

Maximum memory used throughout the entire SCFGRAD-calculation: 9.2 MB
------------------------------------------------------------------------------
                         ORCA GEOMETRY RELAXATION STEP
------------------------------------------------------------------------------

Reading the OPT-File                    .... done
Getting information on internals        .... done
Copying old internal coords+grads       .... done
Making the new internal coordinates     .... (2022 redundants) done
Validating the new internal coordinates .... (2022 redundants) done
Calculating the B-matrix                .... done
Calculating the G,G- and P matrices     .... done
Transforming gradient to internals      .... done
Projecting the internal gradient        .... done
Number of atoms                         ....   6
Number of internal coordinates          ....  14
Current Energy                          ....  -599.576505448 Eh
Current gradient norm                   ....     0.092896246 Eh/bohr
Maximum allowed component of the step   ....  0.300
Current trust radius                    ....  0.300
Updating the Hessian (Bofill)           .... done
Diagonalizing the Hessian               .... done
Dimension of the hessian                ....  14
Lowest eigenvalues of the Hessian:
 -0.013331513  0.182121594  0.258835666  0.258952470  0.294822211
Hessian has   1 negative eigenvalues
Taking P-RFO step
Searching for lambda that maximizes along the lowest mode
TS mode is mode number   0 with eigenvalue  -0.01333151 and components:
   1.    0.51406023
   2.    0.01617444
   3.    0.01455418
   4.    0.01455411
   5.   -0.62248146
   6.   -0.20805686
   7.    0.17117038
   8.   -0.20805670
   9.    0.17117072
  10.    0.17071520
  11.    0.20863768
  12.    0.20783092
  13.    0.20782939
  14.   -0.20818161

Lambda that maximizes along the TS mode:       0.00086016
Searching for lambda that minimizes along all other modes
In cycle   1: lambdaN =  -0.03080856   step =   0.03080856
In cycle   2: lambdaN =  -0.03130421   step =   0.00049565
In cycle   3: lambdaN =  -0.03130430   step =   0.00000010
In cycle   4: lambdaN =  -0.03130430   step =   0.00000000
Lambda that minimizes along all other modes:  -0.03130430
Calculated stepsize too large (   0.3012 >    0.3000). Scaled with    0.9960.
The final length of the internal step   ....       0.3000
Converting the step to Cartesian space:
 Initial RMS(Int)=    0.0801783726
Transforming coordinates:
 Iter   0:  RMS(Cart)=    0.0656471218 RMS(Int)=    0.0801751995
done
Storing new coordinates                 .... done
The predicted energy change is          ....    -0.014683950
Previously predicted energy change      ....     0.012974779
Actually observed energy change         ....     0.008711905
Ratio of predicted to observed change   ....     0.671449193
New trust radius                        ....     0.200000000

                                .--------------------.
          ----------------------|Geometry convergence|-------------------------
          Item                value                   Tolerance       Converged
          ---------------------------------------------------------------------
          Energy change       0.0087119052            0.0000050000      NO
          RMS gradient        0.0252384130            0.0001000000      NO
          MAX gradient        0.0708009679            0.0003000000      NO
          RMS step            0.0801783726            0.0020000000      NO
          MAX step            0.2988046318            0.0040000000      NO
          -------------------------------------------------------------------------
          ........................................................
          Max(Bonds)      0.1581      Max(Angles)    0.11
          Max(Dihed)        0.00      Max(Improp)    0.00
          ---------------------------------------------------------------------

The optimization has not yet converged - more geometry cycles are needed


    ---------------------------------------------------------------------------
                         Redundant Internal Coordinates
                            (Angstroem and degrees)

        Definition                    Value    dE/dq     Step     New-Value  comp.(TS mode)
    ----------------------------------------------------------------------------
     1. B(Cl  1,C   0)                1.9994 -0.029080  0.0138    2.0132          0.51
     2. B(H   2,C   0)                1.0828 -0.001947  0.0019    1.0847   
     3. B(H   3,C   0)                1.0830 -0.001751  0.0015    1.0846   
     4. B(H   4,C   0)                1.0830 -0.001751  0.0015    1.0846   
     5. B(F   5,C   0)                1.7281 -0.070801  0.1581    1.8862          0.62
[...]
Electronic contribution:      0.000000936       0.007520938       3.440735059
Nuclear contribution   :     -0.000001417      -0.012221650      -1.626726359
                        -----------------------------------------
Total Dipole Moment    :     -0.000000481      -0.004700712       1.814008700
                        -----------------------------------------
Magnitude (a.u.)       :      1.814014790
Magnitude (Debye)      :      4.610859166



--------------------
Rotational spectrum 
--------------------
 
Rotational constants in cm-1:             4.973563             0.077423             0.077423 
Rotational constants in MHz :        149103.667270          2321.080687          2321.072706 

Dipole components along the rotational axes: 
x,y,z [a.u.] :     1.814011    -0.003782     0.000001 
x,y,z [Debye]:     4.610849    -0.009613     0.000003 

 

Dipole moment calculation done in   0.5 sec 

-----------
SCF HESSIAN
-----------

Occupied/Occupied contributions to the Hessian:
   => Occupied/Occupied contributions              ... done (  0.0 sec)
Perturbed density contributions to the Hessian:
   => Perturbed density contributions              ... done (  0.0 sec)
Explicit contributions to the Hessian:
   => Nuclear repulsion Hessian                    ... done (  0.0 sec)
   => HCore and overlap Hessian                    ... done (  0.2 sec)
   => RI-J Hessian                                 ... done (  4.1 sec)
   => COSX Hessian                                 ... done ( 17.8 sec)
   => XC-Hessian                                   ... done (  2.5 sec)
   => Explicit contributions done
Dipole derivatives                                 ... done (  0.2 sec)
Mass weighting the Hessian           ... done
Calculating normal modes             ... done
Scaling frequencies                  ... done

-----------------------
VIBRATIONAL FREQUENCIES
-----------------------

Scaling factor for frequencies =  1.000000000  (already applied!)

     0:       0.00 cm**-1
     1:       0.00 cm**-1
     2:       0.00 cm**-1
     3:       0.00 cm**-1
     4:       0.00 cm**-1
     5:       0.00 cm**-1
     6:    -407.58 cm**-1  ***imaginary mode***
     7:     212.75 cm**-1
     8:     214.67 cm**-1
     9:     308.27 cm**-1
    10:     882.84 cm**-1
    11:     884.88 cm**-1
    12:    1062.79 cm**-1
    13:    1361.79 cm**-1
    14:    1363.05 cm**-1
    15:    3209.04 cm**-1
    16:    3397.13 cm**-1
    17:    3398.56 cm**-1


------------
NORMAL MODES
------------

These modes are the Cartesian displacements weighted by the diagonal matrix
M(i,i)=1/sqrt(m[i]) where m[i] is the mass of the displaced atom
Thus, these vectors are normalized but *not* orthogonal

                  0          1          2          3          4          5    
      0       0.000000   0.000000   0.000000   0.000000   0.000000   0.000000
      1       0.000000   0.000000   0.000000   0.000000   0.000000   0.000000
      2       0.000000   0.000000   0.000000   0.000000   0.000000   0.000000
      3       0.000000   0.000000   0.000000   0.000000   0.000000   0.000000
      4       0.000000   0.000000   0.000000   0.000000   0.000000   0.000000
      5       0.000000   0.000000   0.000000   0.000000   0.000000   0.000000
      6       0.000000   0.000000   0.000000   0.000000   0.000000   0.000000
      7       0.000000   0.000000   0.000000   0.000000   0.000000   0.000000
      8       0.000000   0.000000   0.000000   0.000000   0.000000   0.000000
      9       0.000000   0.000000   0.000000   0.000000   0.000000   0.000000
     10       0.000000   0.000000   0.000000   0.000000   0.000000   0.000000
     11       0.000000   0.000000   0.000000   0.000000   0.000000   0.000000
     12       0.000000   0.000000   0.000000   0.000000   0.000000   0.000000
     13       0.000000   0.000000   0.000000   0.000000   0.000000   0.000000
     14       0.000000   0.000000   0.000000   0.000000   0.000000   0.000000
     15       0.000000   0.000000   0.000000   0.000000   0.000000   0.000000
     16       0.000000   0.000000   0.000000   0.000000   0.000000   0.000000
     17       0.000000   0.000000   0.000000   0.000000   0.000000   0.000000
                  6          7          8          9         10         11    
      0      -0.000000   0.428110   0.000003   0.000007  -0.000004   0.074133
      1      -0.004790   0.000003  -0.429360   0.005143  -0.073184  -0.000004
      2       0.859726  -0.000001  -0.004459   0.240113   0.001799   0.000000
      3      -0.000000  -0.090230  -0.000001  -0.000001   0.000001  -0.017663
      4       0.000786  -0.000001   0.090422  -0.000811   0.017641   0.000001
      5      -0.118060   0.000001  -0.000272  -0.520432  -0.000562   0.000000
      6       0.000001   0.482113   0.000005   0.000007   0.000007  -0.114636
      7      -0.197735   0.000004  -0.490551  -0.031987   0.089967   0.000006
      8      -0.149549   0.000002  -0.236790   0.068458   0.809170   0.000049
      9      -0.162414   0.479999   0.009059  -0.033215   0.009132  -0.093356
     10       0.080202  -0.014449  -0.474979   0.022929   0.100621  -0.013060
     11      -0.118726   0.203671   0.116765   0.062350  -0.394331  -0.694025
     12       0.162414   0.479998  -0.009053   0.033229  -0.009121  -0.093355
     13       0.080201   0.014456  -0.474976   0.022929   0.100620   0.013070
     14      -0.118726  -0.203671   0.116763   0.062347  -0.394414   0.693977
     15       0.000000  -0.178795  -0.000001  -0.000003  -0.000000   0.002082
     16       0.003542  -0.000001   0.179143  -0.002475  -0.002103  -0.000000
     17      -0.302689  -0.000002   0.003500   0.809147  -0.001173  -0.000000
                 12         13         14         15         16         17    
      0       0.000000   0.083725   0.000014   0.000000   0.000022  -0.101365
      1      -0.000293   0.000014  -0.083653   0.000033  -0.101657  -0.000022
      2      -0.004484  -0.000000   0.000489  -0.026997   0.000163  -0.000000
      3       0.000000   0.000591   0.000000   0.000000  -0.000000   0.000464
      4      -0.000188   0.000000  -0.000534  -0.000016   0.000476   0.000000
      5      -0.026679   0.000000   0.000104   0.000173  -0.000002  -0.000000
      6      -0.000002  -0.790009  -0.000129   0.000000   0.000002  -0.009638
      7       0.106374   0.000017  -0.107696  -0.568431   0.794986   0.000171
      8       0.554863   0.000025  -0.157685   0.107896  -0.161133  -0.000035
      9       0.095618  -0.116926   0.389741  -0.489853  -0.349351   0.594810
     10      -0.050831  -0.388440   0.566699   0.284593   0.193918  -0.349328
     11       0.572370   0.141293   0.071691   0.106349   0.079518  -0.137333
     12      -0.095619  -0.116797  -0.389780   0.489851   0.349093   0.594964
     13      -0.050830   0.388255   0.566826   0.284591   0.193767   0.349413
     14       0.572370  -0.141318   0.071648   0.106349   0.079458   0.137368
     15       0.000000   0.000282   0.000000  -0.000000  -0.000000   0.000604
     16       0.000287   0.000000  -0.000544  -0.000032   0.000632   0.000000
     17      -0.037557   0.000000   0.000257  -0.000264   0.000015   0.000000


-----------
IR SPECTRUM
-----------

 Mode   freq       eps      Int      T**2         TX        TY        TZ
       cm**-1   L/(mol*cm) km/mol    a.u.
----------------------------------------------------------------------------
  7:    212.75   0.003487   17.62  0.005115  ( 0.071520  0.000001 -0.000000)
  8:    214.67   0.003475   17.56  0.005052  ( 0.000001 -0.070961 -0.004067)
  9:    308.27   0.000119    0.60  0.000120  ( 0.000000  0.000216  0.010974)
 10:    882.84   0.000054    0.27  0.000019  ( 0.000000  0.004232  0.001061)
 11:    884.88   0.000062    0.31  0.000022  (-0.004668  0.000000  0.000000)
 12:   1062.79   0.001142    5.77  0.000335  (-0.000000 -0.000207 -0.018307)
 13:   1361.79   0.001459    7.38  0.000334  (-0.018287 -0.000003  0.000000)
 14:   1363.05   0.001641    8.29  0.000376  (-0.000003  0.019380 -0.000088)
 15:   3209.04   0.000142    0.72  0.000014  ( 0.000000 -0.000268 -0.003700)
 16:   3397.13   0.000125    0.63  0.000012  ( 0.000001 -0.003380 -0.000273)
 17:   3398.56   0.000119    0.60  0.000011  (-0.003310 -0.000001 -0.000000)

* The epsilon (eps) is given for a Dirac delta lineshape.
** The dipole moment derivative (T) already includes vibrational overlap.

The first frequency considered to be a vibration is 7
The total number of vibrations considered is 11


--------------------------
THERMOCHEMISTRY AT 298.15K
--------------------------

Temperature         ...   298.15 K
Pressure            ...     1.00 atm
Total Mass          ...    69.49 AMU
Quasi RRHO          ...     True
Cut-Off Frequency   ...     1.00 cm^-1

Throughout the following assumptions are being made:
  (1) The electronic state is orbitally nondegenerate
  (2) There are no thermally accessible electronically excited states
  (3) Hindered rotations indicated by low frequency modes are not
      treated as such but are treated as vibrations and this may
      cause some error
  (4) All equations used are the standard statistical mechanics
      equations for an ideal gas
  (5) All vibrations are strictly harmonic

freq.     212.75  E(vib)   ...       0.34 
freq.     214.67  E(vib)   ...       0.34 
freq.     308.27  E(vib)   ...       0.26 
freq.     882.84  E(vib)   ...       0.04 
freq.     884.88  E(vib)   ...       0.04 
freq.    1062.79  E(vib)   ...       0.02 
freq.    1361.79  E(vib)   ...       0.01 
freq.    1363.05  E(vib)   ...       0.01 
freq.    3209.04  E(vib)   ...       0.00 
freq.    3397.13  E(vib)   ...       0.00 
freq.    3398.56  E(vib)   ...       0.00 

------------
INNER ENERGY
------------

The inner energy is: U= E(el) + E(ZPE) + E(vib) + E(rot) + E(trans)
    E(el)   - is the total energy from the electronic structure calculation
              = E(kin-el) + E(nuc-el) + E(el-el) + E(nuc-nuc)
    E(ZPE)  - the the zero temperature vibrational energy from the frequency calculation
    E(vib)  - the the finite temperature correction to E(ZPE) due to population
              of excited vibrational states
    E(rot)  - is the rotational thermal energy
    E(trans)- is the translational thermal energy

Summary of contributions to the inner energy U:
Electronic energy                ...   -599.59902094 Eh
Zero point energy                ...      0.03712451 Eh      23.30 kcal/mol
Thermal vibrational correction   ...      0.00165009 Eh       1.04 kcal/mol
Thermal rotational correction    ...      0.00141627 Eh       0.89 kcal/mol
Thermal translational correction ...      0.00141627 Eh       0.89 kcal/mol
-----------------------------------------------------------------------
Total thermal energy                   -599.55741380 Eh


Summary of corrections to the electronic energy:
(perhaps to be used in another calculation)
Total thermal correction                  0.00448263 Eh       2.81 kcal/mol
Non-thermal (ZPE) correction              0.03712451 Eh      23.30 kcal/mol
-----------------------------------------------------------------------
Total correction                          0.04160714 Eh      26.11 kcal/mol


--------
ENTHALPY
--------

The enthalpy is H = U + kB*T
                kB is Boltzmann's constant
Total thermal energy              ...   -599.55741380 Eh 
Thermal Enthalpy correction       ...      0.00094421 Eh       0.59 kcal/mol
-----------------------------------------------------------------------
Total Enthalpy                    ...   -599.55646959 Eh


Note: Rotational entropy computed according to Herzberg 
Infrared and Raman Spectra, Chapter V,1, Van Nostrand Reinhold, 1945 
Point Group:  Cs, Symmetry Number:   1  
Rotational constants in cm-1:     4.973567     0.077423     0.077423 

Vibrational entropy computed according to the QRRHO of S. Grimme
Chem.Eur.J. 2012 18 9955 using a reference frequency of 100.0 cm-1


-------
ENTROPY
-------

The entropy contributions are T*S = T*(S(el)+S(vib)+S(rot)+S(trans))
     S(el)   - electronic entropy
     S(vib)  - vibrational entropy
     S(rot)  - rotational entropy
     S(trans)- translational entropy
The entropies will be listed as multiplied by the temperature to get
units of energy

Electronic entropy                ...      0.00000000 Eh      0.00 kcal/mol
Vibrational entropy               ...      0.00276525 Eh      1.74 kcal/mol
Rotational entropy                ...      0.01116917 Eh      7.01 kcal/mol
Translational entropy             ...      0.01835566 Eh     11.52 kcal/mol
-----------------------------------------------------------------------
Final entropy term                ...      0.03229008 Eh     20.26 kcal/mol

In case the symmetry of your molecule has not been determined correctly
or in case you have a reason to use a different symmetry number we print 
out the resulting rotational entropy values for sn=1,12:

 non-linear molecules -----------------------------------
|  sn= 1 | S(rot)=       0.01116917 Eh      7.01 kcal/mol|
|  sn= 2 | S(rot)=       0.01051472 Eh      6.60 kcal/mol|
|  sn= 3 | S(rot)=       0.01013189 Eh      6.36 kcal/mol|
|  sn= 4 | S(rot)=       0.00986026 Eh      6.19 kcal/mol|
|  sn= 5 | S(rot)=       0.00964957 Eh      6.06 kcal/mol|
|  sn= 6 | S(rot)=       0.00947743 Eh      5.95 kcal/mol|
|  sn= 7 | S(rot)=       0.00933188 Eh      5.86 kcal/mol|
|  sn= 8 | S(rot)=       0.00920580 Eh      5.78 kcal/mol|
|  sn= 9 | S(rot)=       0.00909460 Eh      5.71 kcal/mol|
|  sn=10 | S(rot)=       0.00899512 Eh      5.64 kcal/mol|
|  sn=11 | S(rot)=       0.00890513 Eh      5.59 kcal/mol|
|  sn=12 | S(rot)=       0.00882297 Eh      5.54 kcal/mol|
 linear molecules ---------------------------------------
|  Dinfh | S(rot)=       0.00774147 Eh      4.86 kcal/mol|
|  Cinfv | S(rot)=       0.00839593 Eh      5.27 kcal/mol|
 --------------------------------------------------------


-------------------
GIBBS FREE ENERGY
-------------------

The Gibbs free energy is G = H - T*S

Total enthalpy                    ...   -599.55646959 Eh 
Total entropy correction          ...     -0.03229008 Eh    -20.26 kcal/mol
-----------------------------------------------------------------------
Final Gibbs free energy         ...   -599.58875967 Eh

For completeness - the Gibbs free energy minus the electronic energy
G-E(el)                           ...      0.01026126 Eh      6.44 kcal/mol


Maximum memory used throughout the entire PROP-calculation: 13.4 MB

--------------------------------
SUGGESTED CITATIONS FOR THIS RUN
--------------------------------

Below you find a list of papers that are relevant to this ORCA run
We neither can nor want to force you to cite these papers, but we appreciate if you do
You receive ORCA, which is the product of decades of hard work by many enthusiastic individuals, for free
The only thing we kindly ask in return is that you cite our papers,
We deeply appreciate it, if you show your appreciation for ORCA by not just citing the generic ORCA reference.

Please note that relegating all ORCA citations to the supporting information does *not* help us.
SI sections are not indexed - citations you put there will not count into any citation statistics
But we need these citations in order to attract the funding resources that allow us to do what we are doing

Therefore, if you are a happy ORCA user, please consider citing a few of the papers listed below in the main body of your paper

In addition to the list printed below, the program has created the file /users/b163264/scratch/sn2_ts/sn2_ts.bibtex that contains the list in bibtex format
You can import this file easily into all common literature databanks and citation aid programs


List of essential papers. We consider these as the minimum necessary citations

  1. Neese, F.
     Software update: the ORCA program system, version 6.0
     WIRES Comput. Molec. Sci. 2025 15(1), e70019
     doi.org/10.1002/wcms.7019

List of papers to cite with high priority. The work reported in these papers was absolutely
necessary for this run to complete.
Our perspective: the developers of density functionals and basis sets usually get cited in chemistry papers
Good! But without the algorithms to do something with them, the functionals or basis sets would not do anything.
Hence, in our opinion, the algorithm design and method developments papers are equally worthy of getting cited

  1. Neese, F.
     An improvement of the resolution of the identity approximation for the formation of the Coulomb matrix
     J. Comp. Chem. 2003 24(14), 1740-1747
     doi.org/10.1002/jcc.10318
  2. Neese, F.; Wennmohs, F.; Hansen, A.; Becker, U.
     Efficient, approximate and parallel Hartree-Fock and hybrid DFT calculations. A 'chain-of-spheres' algorithm for the Hartree-Fock exchange
     Chem. Phys. 2009 356(1-3), 98-109
     doi.org/10.1016/j.chemphys.2008.10.036
  3. Bykov, D.; Petrenko, T.; Izsak, R.; Kossmann, S.; Becker, U.; Valeev, E.; Neese, F.
     Efficient implementation of the analytic second derivatives of Hartree-Fock and hybrid DFT energies: a detailed analysis of different approximations
     Molec. Phys. 2015 113 , 1961-1977
     doi.org/10.1080/00268976.2015.1025114
  4. Helmich-Paris, B.; de Souza, B.; Neese, F.; Izsák, R.
     An improved chain of spheres for exchange algorithm
     J. Chem. Phys. 2021 155(10), 104109
     doi.org/10.1063/5.0058766
  5. Neese, F.
     The SHARK Integral Generation and Digestion System
     J. Comp. Chem. 2022 44(3), 381
     doi.org/10.1002/jcc.26942

List of suggested additional citations. These are papers that are important in the 'surrounding' of 
of this run, or papers that preceded the highly important papers. If you like your results we are grateful for a citation.

  1. Izsak, R.; Neese, F.
     An overlap fitted chain of spheres exchange method
     J. Chem. Phys. 2011 135 , 144105
     doi.org/10.1063/1.3646921
  2. Izsak, R.; Hansen, A.; Neese, F.
     The resolution of identity and chain of spheres approximations for the LPNO-CCSD singles Fock term
     Molec. Phys. 2012 110 , 2413-2417
     doi.org/10.1080/00268976.2012.687466
  3. Neese, F.
     The ORCA program system
     WIRES Comput. Molec. Sci. 2012 2(1), 73-78
     doi.org/10.1002/wcms.81
  4. Izsak, R.; Neese, F.; Klopper, W.
     Robust fitting techniques in the chain of spheres approximation to the Fock exchange: The role of the complementary space
     J. Chem. Phys. 2013 139 , 
     doi.org/10.1063/1.4819264
  5. Neese, F.
     Software update: the ORCA program system, version 4.0
     WIRES Comput. Molec. Sci. 2018 8(1), 1-6
     doi.org/10.1002/wcms.1327
  6. Neese, F.; Wennmohs, F.; Becker, U.; Riplinger, C.
     The ORCA quantum chemistry program package
     J. Chem. Phys. 2020 152(22), 224108
     doi.org/10.1063/5.0004608
  7. Neese, F.
     Software update: The ORCA program system—Version 5.0
     WIRES Comput. Molec. Sci. 2022 12(1), e1606
     doi.org/10.1002/wcms.1606

List of optional additional citations

  1. Neese, F.
     Approximate second-order SCF convergence for spin unrestricted wavefunctions
     Chem. Phys. Lett. 2000 325(1-3), 93-98
     doi.org/10.1016/s0009-2614(00)00662-x

Timings for individual modules:

Sum of individual times          ...      131.754 sec (=   2.196 min)
Startup calculation              ...        7.368 sec (=   0.123 min)   5.6 %
SCF iterations                   ...       54.241 sec (=   0.904 min)  41.2 %
Property integrals               ...        8.999 sec (=   0.150 min)   6.8 %
SCF Response                     ...        4.068 sec (=   0.068 min)   3.1 %
Property calculations            ...       26.825 sec (=   0.447 min)  20.4 %
SCF Gradient evaluation          ...       29.897 sec (=   0.498 min)  22.7 %
Geometry relaxation              ...        0.356 sec (=   0.006 min)   0.3 %
                             ****ORCA TERMINATED NORMALLY****
TOTAL RUN TIME: 0 days 0 hours 2 minutes 15 seconds 601 msec
