37
3b_permuted.xyz    Empirical formula: C17H17NOS    Energy(Hartree): -1185.549310    
N        0.5721200000   -0.8110060000    0.1515480000
C        0.9926190000    1.5791230000   -0.2183720000
C        0.8095470000    1.9251500000    1.1262660000
C        0.5561170000    3.8832770000   -0.8481540000
C        0.4959310000    3.2375030000    1.4803110000
C        0.3687740000    4.2214620000    0.4938370000
C        3.4394800000   -1.0070610000    0.3293990000
H        1.0001190000    2.3001210000   -2.2529500000
C        2.8612190000   -0.0199780000   -0.3578940000
H        0.9036400000    1.1504090000    1.8894770000
H        0.4544410000    4.6444610000   -1.6254830000
H        0.3481140000    3.4957130000    2.5318070000
S        1.1141370000   -2.4793010000    0.0379090000
O        1.5065340000   -2.7958980000   -1.3723190000
H        0.1207250000    5.2486370000    0.7716070000
C       -3.6818010000   -0.5778400000   -0.0206670000
C       -2.9008150000   -0.0503020000   -1.0561310000
C       -3.0123820000   -1.1779880000    1.0587230000
C       -0.8489490000   -0.7090870000    0.0569990000
C       -1.5059870000   -0.1198880000   -1.0300220000
C       -5.1868690000   -0.4974350000   -0.0463320000
H       -3.3918690000    0.4208380000   -1.9118200000
H       -3.5920480000   -1.5956550000    1.8868090000
H       -0.9369130000    0.2902530000   -1.8629280000
H       -1.1150960000   -1.6796430000    1.9628060000
H       -5.5525480000   -0.0878160000   -0.9992190000
H       -5.6442040000   -1.4906290000    0.0933570000
H       -5.5666640000    0.1485240000    0.7634570000
C        2.6876610000   -2.1481220000    0.9409390000
H        3.2517870000   -3.0911340000    0.8720870000
H        2.4121490000   -1.9828530000    1.9960800000
H        3.4811580000    0.7565560000   -0.8130840000
H        4.5296340000   -1.0203290000    0.4272300000
C        1.3815670000    0.1563310000   -0.6013990000
H        1.2247320000    0.0350270000   -1.6919100000
C        0.8646990000    2.5661330000   -1.2007440000
C       -1.6225560000   -1.2328510000    1.1055490000
