4
formaldehyde.xyz    Empirical formula: CH2O    Energy(Hartree): -114.363211    
O        0.6740590000   -0.0000060000    0.0000020000
C       -0.5259120000   -0.0000020000   -0.0000070000
H       -1.1184530000    0.9428290000    0.0000130000
H       -1.1185480000   -0.9427700000    0.0000130000
