5
R-Bromochlorofluoromethane.xyz    Empirical formula: CHBrClF    Energy(Hartree): -3172.307559    
Br      -1.2006770000   -0.1854330000   -0.0280700000
Cl       1.8234150000   -0.6812370000   -0.0677570000
F        0.7733820000    1.6292030000   -0.2074010000
C        0.5744810000    0.4675550000    0.4164280000
H        0.6183120000    0.6030500000    1.5023660000
