
                                 *****************
                                 * O   R   C   A *
                                 *****************

                                            #,                                       
                                            ###                                      
                                            ####                                     
                                            #####                                    
                                            ######                                   
                                           ########,                                 
                                     ,,################,,,,,                         
                               ,,#################################,,                 
                          ,,##########################################,,             
                       ,#########################################, ''#####,          
                    ,#############################################,,   '####,        
                  ,##################################################,,,,####,       
                ,###########''''           ''''###############################       
              ,#####''   ,,,,##########,,,,          '''####'''          '####       
            ,##' ,,,,###########################,,,                        '##       
           ' ,,###''''                  '''############,,,                           
         ,,##''                                '''############,,,,        ,,,,,,###''
      ,#''                                            '''#######################'''  
     '                                                          ''''####''''         
             ,#######,   #######,   ,#######,      ##                                
            ,#'     '#,  ##    ##  ,#'     '#,    #''#        ######   ,####,        
            ##       ##  ##   ,#'  ##            #'  '#       #        #'  '#        
            ##       ##  #######   ##           ,######,      #####,   #    #        
            '#,     ,#'  ##    ##  '#,     ,#' ,#      #,         ##   #,  ,#        
             '#######'   ##     ##  '#######'  #'      '#     #####' # '####'        



                  #######################################################
                  #                        -***-                        #
                  #          Department of theory and spectroscopy      #
                  #    Directorship and core code : Frank Neese         #
                  #        Max Planck Institute fuer Kohlenforschung    #
                  #                Kaiser Wilhelm Platz 1               #
                  #                 D-45470 Muelheim/Ruhr               #
                  #                      Germany                        #
                  #                                                     #
                  #                  All rights reserved                #
                  #                        -***-                        #
                  #######################################################


                         Program Version 5.0.4 -  RELEASE  -


 With contributions from (in alphabetic order):
   Daniel Aravena         : Magnetic Suceptibility
   Michael Atanasov       : Ab Initio Ligand Field Theory (pilot matlab implementation)
   Alexander A. Auer      : GIAO ZORA, VPT2 properties, NMR spectrum
   Ute Becker             : Parallelization
   Giovanni Bistoni       : ED, misc. LED, open-shell LED, HFLD
   Martin Brehm           : Molecular dynamics
   Dmytro Bykov           : SCF Hessian
   Vijay G. Chilkuri      : MRCI spin determinant printing, contributions to CSF-ICE
   Dipayan Datta          : RHF DLPNO-CCSD density
   Achintya Kumar Dutta   : EOM-CC, STEOM-CC
   Dmitry Ganyushin       : Spin-Orbit,Spin-Spin,Magnetic field MRCI
   Miquel Garcia          : C-PCM and meta-GGA Hessian, CC/C-PCM, Gaussian charge scheme
   Yang Guo               : DLPNO-NEVPT2, F12-NEVPT2, CIM, IAO-localization
   Andreas Hansen         : Spin unrestricted coupled pair/coupled cluster methods
   Benjamin Helmich-Paris : MC-RPA, TRAH-SCF, COSX integrals
   Lee Huntington         : MR-EOM, pCC
   Robert Izsak           : Overlap fitted RIJCOSX, COSX-SCS-MP3, EOM
   Marcus Kettner         : VPT2
   Christian Kollmar      : KDIIS, OOCD, Brueckner-CCSD(T), CCSD density, CASPT2, CASPT2-K
   Simone Kossmann        : Meta GGA functionals, TD-DFT gradient, OOMP2, MP2 Hessian
   Martin Krupicka        : Initial AUTO-CI
   Lucas Lang             : DCDCAS
   Marvin Lechner         : AUTO-CI (C++ implementation), FIC-MRCC
   Dagmar Lenk            : GEPOL surface, SMD
   Dimitrios Liakos       : Extrapolation schemes; Compound Job, initial MDCI parallelization
   Dimitrios Manganas     : Further ROCIS development; embedding schemes
   Dimitrios Pantazis     : SARC Basis sets
   Anastasios Papadopoulos: AUTO-CI, single reference methods and gradients
   Taras Petrenko         : DFT Hessian,TD-DFT gradient, ASA, ECA, R-Raman, ABS, FL, XAS/XES, NRVS
   Peter Pinski           : DLPNO-MP2, DLPNO-MP2 Gradient
   Christoph Reimann      : Effective Core Potentials
   Marius Retegan         : Local ZFS, SOC
   Christoph Riplinger    : Optimizer, TS searches, QM/MM, DLPNO-CCSD(T), (RO)-DLPNO pert. Triples
   Tobias Risthaus        : Range-separated hybrids, TD-DFT gradient, RPA, STAB
   Michael Roemelt        : Original ROCIS implementation
   Masaaki Saitow         : Open-shell DLPNO-CCSD energy and density
   Barbara Sandhoefer     : DKH picture change effects
   Avijit Sen             : IP-ROCIS
   Kantharuban Sivalingam : CASSCF convergence, NEVPT2, FIC-MRCI
   Bernardo de Souza      : ESD, SOC TD-DFT
   Georgi Stoychev        : AutoAux, RI-MP2 NMR, DLPNO-MP2 response
   Willem Van den Heuvel  : Paramagnetic NMR
   Boris Wezisla          : Elementary symmetry handling
   Frank Wennmohs         : Technical directorship


 We gratefully acknowledge several colleagues who have allowed us to
 interface, adapt or use parts of their codes:
   Stefan Grimme, W. Hujo, H. Kruse, P. Pracht,  : VdW corrections, initial TS optimization,
                  C. Bannwarth, S. Ehlert          DFT functionals, gCP, sTDA/sTD-DF
   Ed Valeev, F. Pavosevic, A. Kumar             : LibInt (2-el integral package), F12 methods
   Garnet Chan, S. Sharma, J. Yang, R. Olivares  : DMRG
   Ulf Ekstrom                                   : XCFun DFT Library
   Mihaly Kallay                                 : mrcc  (arbitrary order and MRCC methods)
   Jiri Pittner, Ondrej Demel                    : Mk-CCSD
   Frank Weinhold                                : gennbo (NPA and NBO analysis)
   Christopher J. Cramer and Donald G. Truhlar   : smd solvation model
   Lars Goerigk                                  : TD-DFT with DH, B97 family of functionals
   V. Asgeirsson, H. Jonsson                     : NEB implementation
   FAccTs GmbH                                   : IRC, NEB, NEB-TS, DLPNO-Multilevel, CI-OPT
                                                   MM, QMMM, 2- and 3-layer-ONIOM, Crystal-QMMM,
                                                   LR-CPCM, SF, NACMEs, symmetry and pop. for TD-DFT,
                                                   nearIR, NL-DFT gradient (VV10), updates on ESD,
                                                   ML-optimized integration grids
   S Lehtola, MJT Oliveira, MAL Marques          : LibXC Library
   Liviu Ungur et al                             : ANISO software


 Your calculation uses the libint2 library for the computation of 2-el integrals
 For citations please refer to: http://libint.valeyev.net

 Your ORCA version has been built with support for libXC version: 5.1.0
 For citations please refer to: https://tddft.org/programs/libxc/

 This ORCA versions uses:
   CBLAS   interface :  Fast vector & matrix operations
   LAPACKE interface :  Fast linear algebra routines
   SCALAPACK package :  Parallel linear algebra routines
   Shared memory     :  Shared parallel matrices
   BLAS/LAPACK       :  OpenBLAS 0.3.15  USE64BITINT DYNAMIC_ARCH NO_AFFINITY Zen SINGLE_THREADED
        Core in use  :  Zen
   Copyright (c) 2011-2014, The OpenBLAS Project


================================================================================

----- Orbital basis set information -----
Your calculation utilizes the basis: cc-pVDZ 
       H, B-Ne : Obtained from the ccRepo (grant-hill.group.shef.ac.uk/ccrepo) Feb. 2017
                 T. H. Dunning, Jr., J. Chem. Phys. 90, 1007 (1989)
            He : Obtained from the ccRepo (grant-hill.group.shef.ac.uk/ccrepo) Feb. 2017
                 D. E. Woon, T. H. Dunning, Jr., J. Chem. Phys. 100, 2975 (1994)
  Li-Be, Na-Mg : Obtained from the ccRepo (grant-hill.group.shef.ac.uk/ccrepo) Feb. 2017
                 B. P. Prascher, D. E. Woon, K. A. Peterson, T. H. Dunning, Jr., A. K. Wilson, Theor. Chem. Acc. 128, 69 (2011)
         Al-Ar : Obtained from the ccRepo (grant-hill.group.shef.ac.uk/ccrepo) Feb. 2017
                 D. E. Woon, T. H. Dunning, Jr., J. Chem. Phys. 98, 1358 (1993)
            Ca : Obtained from the Peterson Research Group Website (tyr0.chem.wsu.edu/~kipeters) Feb. 2017
                 J. Koput, K. A. Peterson, J. Phys. Chem. 106, 9595 (2002)
         Sc-Zn : Obtained from the ccRepo (grant-hill.group.shef.ac.uk/ccrepo) Feb. 2017
                 N. B. Balabanov, K. A. Peterson, J. Chem. Phys. 123, 064107 (2005)
                 N. B. Balabanov, K. A. Peterson, J. Chem. Phys. 125, 074110 (2006)
         Ga-Kr : Obtained from the ccRepo (grant-hill.group.shef.ac.uk/ccrepo) Feb. 2017
                 A. K. Wilson, D. E. Woon, K. A. Peterson, T. H. Dunning, Jr., J. Chem. Phys. 110, 7667 (1999)

----- AuxJ basis set information -----
Your calculation utilizes the AutoAux generation procedure.
  G. L. Stoychev, A. A. Auer, F. Neese, J. Chem. Theory Comput. 13, 554 (2017)

----- AuxC basis set information -----
Your calculation utilizes the AutoAux generation procedure.
  G. L. Stoychev, A. A. Auer, F. Neese, J. Chem. Theory Comput. 13, 554 (2017)

----- AuxJK basis set information -----
Your calculation utilizes the AutoAux generation procedure.
  G. L. Stoychev, A. A. Auer, F. Neese, J. Chem. Theory Comput. 13, 554 (2017)

================================================================================
                                        WARNINGS
                       Please study these warnings very carefully!
================================================================================


WARNING: Post HF methods need fully converged wavefunctions
  ===> : Setting SCFConvForced true
         You can overwrite this default with %scf ConvForced false 


WARNING: MDCI localization with Augmented Hessian Foster-Boys
  ===> : Switching off randomization!

INFO   : the flag for use of the SHARK integral package has been found!

================================================================================
                                       INPUT FILE
================================================================================
NAME = udc3_ts1_c15_sp_water.inp
|  1> ! CPCM DLPNO-CCSD(T) Extrapolate(2/3,cc) AutoAux DEFGRID3 TightSCF KDIIS
|  2> %cpcm
|  3> epsilon 78.3553
|  4> end
|  5> # Number of processors
|  6> %pal nprocs 64 end
|  7> # Memory per core
|  8> %maxcore 3600
|  9> %scf maxiter 500
| 10> end
| 11> % mdci
| 12> # Normal cut-off
| 13> TCutPairs 1e-4
| 14> TCutPNO 3.33e-7
| 15> TCutMKN 1e-3
| 16> end
| 17> % elprop
| 18> Dipole False
| 19> end
| 20> * xyz 0 1
| 21> O         0.008639        1.249768        0.212313
| 22> O        -0.921320       -0.755174        0.675536
| 23> O         1.699758       -0.199956       -0.136433
| 24> C        -0.805328        0.417412        0.906358
| 25> C         0.978487        0.714769       -0.652299
| 26> O         0.812425       -2.006239       -1.531907
| 27> O        -0.024176        0.053956       -1.792922
| 28> O         2.839943       -1.043548       -2.203707
| 29> C        -0.106709       -1.204809       -1.876691
| 30> C         2.288902       -1.478958       -1.245852
| 31> C         2.831744       -2.420687       -0.220613
| 32> C         4.130812       -2.887058       -0.405634
| 33> C         2.078919       -2.827710        0.882276
| 34> C         4.681959       -3.774471        0.516234
| 35> H         4.695217       -2.548660       -1.275613
| 36> C         2.636355       -3.713095        1.796853
| 37> H         1.069053       -2.434396        1.011445
| 38> C         3.937471       -4.199866        1.618569
| 39> H         5.701530       -4.139981        0.378946
| 40> H         2.057933       -4.031287        2.666462
| 41> C         1.615887        1.846606       -1.413000
| 42> C         0.833036        2.850627       -1.989053
| 43> C         3.003162        1.893519       -1.513988
| 44> C         1.442456        3.891935       -2.677277
| 45> H        -0.253083        2.808264       -1.895934
| 46> C         3.608605        2.942404       -2.203412
| 47> H         3.596578        1.103648       -1.055089
| 48> C         2.836933        3.942839       -2.796344
| 49> H         0.833934        4.679310       -3.126350
| 50> H         4.696786        2.982582       -2.280799
| 51> C        -1.347948       -1.788732       -2.432022
| 52> C        -1.412098       -3.159169       -2.700103
| 53> C        -2.451601       -0.966463       -2.676620
| 54> C        -2.581376       -3.701909       -3.219488
| 55> H        -0.542414       -3.784283       -2.497611
| 56> C        -3.617228       -1.518394       -3.193738
| 57> H        -2.383902        0.098823       -2.456016
| 58> C        -3.688989       -2.886827       -3.477286
| 59> H        -2.639019       -4.771841       -3.427161
| 60> H        -4.485131       -0.883060       -3.378860
| 61> C        -1.565190        1.144344        1.961857
| 62> C        -2.527490        0.428927        2.680575
| 63> C        -1.339466        2.495265        2.241743
| 64> C        -3.261109        1.063443        3.675520
| 65> H        -2.685276       -0.623699        2.442663
| 66> C        -2.076068        3.122497        3.241366
| 67> H        -0.586554        3.044619        1.677061
| 68> C        -3.036949        2.413167        3.968982
| 69> H        -4.018481        0.508690        4.232525
| 70> H        -1.904706        4.178048        3.460379
| 71> C        -3.866084        3.111119        5.015282
| 72> H        -4.195009        2.413490        5.797276
| 73> H        -3.304960        3.924028        5.495729
| 74> C        -5.113760        3.728107        4.423608
| 75> C         4.548238       -5.126082        2.638257
| 76> H         3.780860       -5.729772        3.141605
| 77> H         5.272063       -5.811236        2.176106
| 78> C         5.289690       -4.372695        3.718968
| 79> C         3.496652        5.097816       -3.504090
| 80> H         4.473124        4.809463       -3.916183
| 81> H         2.875217        5.471158       -4.329619
| 82> C         3.740679        6.267183       -2.577878
| 83> C        -4.968819       -3.487354       -3.996976
| 84> H        -5.534895       -2.764576       -4.599873
| 85> H        -4.773491       -4.372506       -4.617179
| 86> C        -5.878401       -3.929937       -2.871948
| 87> F        -5.295863       -4.854506       -2.107185
| 88> F        -7.006278       -4.455760       -3.351392
| 89> F        -6.213513       -2.907754       -2.083427
| 90> F        -4.816827        4.638854        3.494956
| 91> F        -5.838213        4.335422        5.364857
| 92> F        -5.890700        2.807847        3.849723
| 93> F         6.294089       -3.652453        3.216206
| 94> F         5.811437       -5.215105        4.614845
| 95> F         4.485722       -3.536830        4.377518
| 96> F         2.600838        6.732952       -2.061688
| 97> F         4.534724        5.932574       -1.560124
| 98> F         4.325720        7.276552       -3.227598
| 99> *
|100> 
|101>                          ****END OF INPUT****
================================================================================

                   *****************************************
                   * Extrapolated Single Point Calculation *
                   *****************************************

----- Orbital basis set information -----
Your calculation utilizes the basis: cc-pVDZ 
       H, B-Ne : Obtained from the ccRepo (grant-hill.group.shef.ac.uk/ccrepo) Feb. 2017
                 T. H. Dunning, Jr., J. Chem. Phys. 90, 1007 (1989)
            He : Obtained from the ccRepo (grant-hill.group.shef.ac.uk/ccrepo) Feb. 2017
                 D. E. Woon, T. H. Dunning, Jr., J. Chem. Phys. 100, 2975 (1994)
  Li-Be, Na-Mg : Obtained from the ccRepo (grant-hill.group.shef.ac.uk/ccrepo) Feb. 2017
                 B. P. Prascher, D. E. Woon, K. A. Peterson, T. H. Dunning, Jr., A. K. Wilson, Theor. Chem. Acc. 128, 69 (2011)
         Al-Ar : Obtained from the ccRepo (grant-hill.group.shef.ac.uk/ccrepo) Feb. 2017
                 D. E. Woon, T. H. Dunning, Jr., J. Chem. Phys. 98, 1358 (1993)
            Ca : Obtained from the Peterson Research Group Website (tyr0.chem.wsu.edu/~kipeters) Feb. 2017
                 J. Koput, K. A. Peterson, J. Phys. Chem. 106, 9595 (2002)
         Sc-Zn : Obtained from the ccRepo (grant-hill.group.shef.ac.uk/ccrepo) Feb. 2017
                 N. B. Balabanov, K. A. Peterson, J. Chem. Phys. 123, 064107 (2005)
                 N. B. Balabanov, K. A. Peterson, J. Chem. Phys. 125, 074110 (2006)
         Ga-Kr : Obtained from the ccRepo (grant-hill.group.shef.ac.uk/ccrepo) Feb. 2017
                 A. K. Wilson, D. E. Woon, K. A. Peterson, T. H. Dunning, Jr., J. Chem. Phys. 110, 7667 (1999)

----- AuxJ basis set information -----
Your calculation utilizes the auxiliary basis: def2/JK
   H-Ba, Hf-Rn: F. Weigend, J. Comput. Chem. 29, 167 (2008).

----- AuxC basis set information -----
Your calculation utilizes the auxiliary basis: cc-pVTZ/C 
  Obtained from the EMSL Basis Set Exchange (bse.pnl.gov) Feb. 2017
  H-He, B-F, Al-Ar, Ga-Kr : F. Weigend, A. Kohn, C. Hattig, J. Chem. Phys. 116, 3175 (2002)
             Li-Be, Na-Mg : C. Haettig, Phys. Chem. Chem. Phys. 7, 59 (2005)
                       Ne : C. Haettig, Phys. Chem. Chem. Phys. 7, 59 (2005)
                            F. Weigend, A. Kohn, C. Hattig, J. Chem. Phys. 116, 3175 (2002)
                    Sc-Zn : J. G. Hill, J. A. Platts, J. Chem. Phys. 128, 044104 (2008)

----- AuxJK basis set information -----
Your calculation utilizes the auxiliary basis: def2/JK
   H-Ba, Hf-Rn: F. Weigend, J. Comput. Chem. 29, 167 (2008).

All done

                     -----------------------------------------
                     Extrapolated Energy 1 Basis=     cc-pVDZ
                     -----------------------------------------

---------------------------------
CARTESIAN COORDINATES (ANGSTROEM)
---------------------------------
  O      0.008639    1.249768    0.212313
  O     -0.921320   -0.755174    0.675536
  O      1.699758   -0.199956   -0.136433
  C     -0.805328    0.417412    0.906358
  C      0.978487    0.714769   -0.652299
  O      0.812425   -2.006239   -1.531907
  O     -0.024176    0.053956   -1.792922
  O      2.839943   -1.043548   -2.203707
  C     -0.106709   -1.204809   -1.876691
  C      2.288902   -1.478958   -1.245852
  C      2.831744   -2.420687   -0.220613
  C      4.130812   -2.887058   -0.405634
  C      2.078919   -2.827710    0.882276
  C      4.681959   -3.774471    0.516234
  H      4.695217   -2.548660   -1.275613
  C      2.636355   -3.713095    1.796853
  H      1.069053   -2.434396    1.011445
  C      3.937471   -4.199866    1.618569
  H      5.701530   -4.139981    0.378946
  H      2.057933   -4.031287    2.666462
  C      1.615887    1.846606   -1.413000
  C      0.833036    2.850627   -1.989053
  C      3.003162    1.893519   -1.513988
  C      1.442456    3.891935   -2.677277
  H     -0.253083    2.808264   -1.895934
  C      3.608605    2.942404   -2.203412
  H      3.596578    1.103648   -1.055089
  C      2.836933    3.942839   -2.796344
  H      0.833934    4.679310   -3.126350
  H      4.696786    2.982582   -2.280799
  C     -1.347948   -1.788732   -2.432022
  C     -1.412098   -3.159169   -2.700103
  C     -2.451601   -0.966463   -2.676620
  C     -2.581376   -3.701909   -3.219488
  H     -0.542414   -3.784283   -2.497611
  C     -3.617228   -1.518394   -3.193738
  H     -2.383902    0.098823   -2.456016
  C     -3.688989   -2.886827   -3.477286
  H     -2.639019   -4.771841   -3.427161
  H     -4.485131   -0.883060   -3.378860
  C     -1.565190    1.144344    1.961857
  C     -2.527490    0.428927    2.680575
  C     -1.339466    2.495265    2.241743
  C     -3.261109    1.063443    3.675520
  H     -2.685276   -0.623699    2.442663
  C     -2.076068    3.122497    3.241366
  H     -0.586554    3.044619    1.677061
  C     -3.036949    2.413167    3.968982
  H     -4.018481    0.508690    4.232525
  H     -1.904706    4.178048    3.460379
  C     -3.866084    3.111119    5.015282
  H     -4.195009    2.413490    5.797276
  H     -3.304960    3.924028    5.495729
  C     -5.113760    3.728107    4.423608
  C      4.548238   -5.126082    2.638257
  H      3.780860   -5.729772    3.141605
  H      5.272063   -5.811236    2.176106
  C      5.289690   -4.372695    3.718968
  C      3.496652    5.097816   -3.504090
  H      4.473124    4.809463   -3.916183
  H      2.875217    5.471158   -4.329619
  C      3.740679    6.267183   -2.577878
  C     -4.968819   -3.487354   -3.996976
  H     -5.534895   -2.764576   -4.599873
  H     -4.773491   -4.372506   -4.617179
  C     -5.878401   -3.929937   -2.871948
  F     -5.295863   -4.854506   -2.107185
  F     -7.006278   -4.455760   -3.351392
  F     -6.213513   -2.907754   -2.083427
  F     -4.816827    4.638854    3.494956
  F     -5.838213    4.335422    5.364857
  F     -5.890700    2.807847    3.849723
  F      6.294089   -3.652453    3.216206
  F      5.811437   -5.215105    4.614845
  F      4.485722   -3.536830    4.377518
  F      2.600838    6.732952   -2.061688
  F      4.534724    5.932574   -1.560124
  F      4.325720    7.276552   -3.227598

----------------------------
CARTESIAN COORDINATES (A.U.)
----------------------------
  NO LB      ZA    FRAG     MASS         X           Y           Z
   0 O     8.0000    0    15.999    0.016325    2.361719    0.401213
   1 O     8.0000    0    15.999   -1.741042   -1.427072    1.276578
   2 O     8.0000    0    15.999    3.212077   -0.377862   -0.257821
   3 C     6.0000    0    12.011   -1.521849    0.788794    1.712768
   4 C     6.0000    0    12.011    1.849072    1.350718   -1.232666
   5 O     8.0000    0    15.999    1.535261   -3.791242   -2.894885
   6 O     8.0000    0    15.999   -0.045686    0.101962   -3.388132
   7 O     8.0000    0    15.999    5.366715   -1.972020   -4.164403
   8 C     6.0000    0    12.011   -0.201651   -2.276759   -3.546432
   9 C     6.0000    0    12.011    4.325398   -2.794826   -2.354319
  10 C     6.0000    0    12.011    5.351221   -4.574435   -0.416898
  11 C     6.0000    0    12.011    7.806103   -5.455749   -0.766537
  12 C     6.0000    0    12.011    3.928588   -5.343597    1.667260
  13 C     6.0000    0    12.011    8.847620   -7.132716    0.975541
  14 H     1.0000    0     1.008    8.872674   -4.816269   -2.410559
  15 C     6.0000    0    12.011    4.981989   -7.016733    3.395560
  16 H     1.0000    0     1.008    2.020217   -4.600342    1.911354
  17 C     6.0000    0    12.011    7.440742   -7.936597    3.058652
  18 H     1.0000    0     1.008   10.774330   -7.823430    0.716104
  19 H     1.0000    0     1.008    3.888930   -7.618028    5.038883
  20 C     6.0000    0    12.011    3.053584    3.489580   -2.670183
  21 C     6.0000    0    12.011    1.574210    5.386904   -3.758765
  22 C     6.0000    0    12.011    5.675154    3.578232   -2.861023
  23 C     6.0000    0    12.011    2.725847    7.354691   -5.059320
  24 H     1.0000    0     1.008   -0.478258    5.306850   -3.582796
  25 C     6.0000    0    12.011    6.819275    5.560338   -4.163845
  26 H     1.0000    0     1.008    6.796547    2.085592   -1.993829
  27 C     6.0000    0    12.011    5.361026    7.450886   -5.284324
  28 H     1.0000    0     1.008    1.575907    8.842614   -5.907945
  29 H     1.0000    0     1.008    8.875639    5.636263   -4.310085
  30 C     6.0000    0    12.011   -2.547253   -3.380214   -4.595856
  31 C     6.0000    0    12.011   -2.668478   -5.969964   -5.102455
  32 C     6.0000    0    12.011   -4.632854   -1.826350   -5.058079
  33 C     6.0000    0    12.011   -4.878094   -6.995594   -6.083951
  34 H     1.0000    0     1.008   -1.025014   -7.151258   -4.719801
  35 C     6.0000    0    12.011   -6.835570   -2.869349   -6.035290
  36 H     1.0000    0     1.008   -4.504922    0.186748   -4.641198
  37 C     6.0000    0    12.011   -6.971179   -5.455312   -6.571118
  38 H     1.0000    0     1.008   -4.987023   -9.017473   -6.476396
  39 H     1.0000    0     1.008   -8.475669   -1.668742   -6.385120
  40 C     6.0000    0    12.011   -2.957780    2.162497    3.707372
  41 C     6.0000    0    12.011   -4.776264    0.810555    5.065553
  42 C     6.0000    0    12.011   -2.531224    4.715367    4.236280
  43 C     6.0000    0    12.011   -6.162603    2.009616    6.945726
  44 H     1.0000    0     1.008   -5.074436   -1.178620    4.615964
  45 C     6.0000    0    12.011   -3.923200    5.900664    6.125294
  46 H     1.0000    0     1.008   -1.108426    5.753496    3.169186
  47 C     6.0000    0    12.011   -5.739002    4.560225    7.500289
  48 H     1.0000    0     1.008   -7.593829    0.961285    7.998313
  49 H     1.0000    0     1.008   -3.599373    7.895366    6.539169
  50 C     6.0000    0    12.011   -7.305840    5.879163    9.477509
  51 H     1.0000    0     1.008   -7.927418    4.560835   10.955264
  52 H     1.0000    0     1.008   -6.245469    7.415338   10.385423
  53 C     6.0000    0    12.011   -9.663606    7.045101    8.359408
  54 C     6.0000    0    12.011    8.594924   -9.686891    4.985583
  55 H     1.0000    0     1.008    7.144790  -10.827700    5.936773
  56 H     1.0000    0     1.008    9.962755  -10.981645    4.112244
  57 C     6.0000    0    12.011    9.996065   -8.263196    7.027831
  58 C     6.0000    0    12.011    6.607715    9.633476   -6.621770
  59 H     1.0000    0     1.008    8.452979    9.088568   -7.400513
  60 H     1.0000    0     1.008    5.433373   10.338990   -8.181794
  61 C     6.0000    0    12.011    7.068859   11.843260   -4.871483
  62 C     6.0000    0    12.011   -9.389707   -6.590144   -7.553190
  63 H     1.0000    0     1.008  -10.459436   -5.224292   -8.692500
  64 H     1.0000    0     1.008   -9.020591   -8.262839   -8.725204
  65 C     6.0000    0    12.011  -11.108568   -7.426505   -5.427195
  66 F     9.0000    0    18.998  -10.007731   -9.173687   -3.982003
  67 F     9.0000    0    18.998  -13.239947   -8.420166   -6.333213
  68 F     9.0000    0    18.998  -11.741838   -5.494859   -3.937106
  69 F     9.0000    0    18.998   -9.102484    8.766164    6.604510
  70 F     9.0000    0    18.998  -11.032624    8.192760   10.138110
  71 F     9.0000    0    18.998  -11.131810    5.306062    7.274922
  72 F     9.0000    0    18.998   11.894104   -6.902136    6.077749
  73 F     9.0000    0    18.998   10.982024   -9.855120    8.720793
  74 F     9.0000    0    18.998    8.476786   -6.683640    8.272310
  75 F     9.0000    0    18.998    4.914872   12.723435   -3.896026
  76 F     9.0000    0    18.998    8.569386   11.210940   -2.948207
  77 F     9.0000    0    18.998    8.174426   13.750690   -6.099276

--------------------------------
INTERNAL COORDINATES (ANGSTROEM)
--------------------------------
 O      0   0   0     0.000000000000     0.00000000     0.00000000
 O      1   0   0     2.258138993236     0.00000000     0.00000000
 O      1   2   0     2.254596842199    76.68651117     0.00000000
 C      2   1   3     1.200704321281    29.83864938   142.76200348
 C      3   1   2     1.273998198987    34.54340237   122.65293261
 O      3   1   2     2.448951982717   106.89576141    48.22880563
 O      5   3   1     1.656208845728   109.58077547   249.73502557
 O      6   3   1     2.342844092509    63.04795519   131.12726555
 C      7   5   3     1.264246125830   118.84332834     9.99214423
 C      8   6   3     1.187734925312    38.42878126    47.24491808
 C     10   8   6     1.494204120435   128.01288881   134.15353027
 C     11  10   8     1.392591953411   117.31014545   358.21779407
 C     11  10   8     1.395986156620   122.00041374   178.32452560
 C     12  11  10     1.393235607355   119.63145048   180.43698083
 H     12  11  10     1.090838975683   118.99459515     0.28695430
 C     13  11  10     1.389637571905   119.30125135   179.55585511
 H     13  11  10     1.091425614100   119.17042056   358.92243090
 C     14  12  11     1.396554954305   120.35839002     0.21698779
 H     14  12  11     1.091774051297   119.96439166   180.27929125
 H     16  13  11     1.091804914730   119.82603392   179.54466909
 C      5   3   1     1.505323807681   120.31482336   132.08279978
 C     21   5   3     1.397408642971   120.75225449   179.63214685
 C     21   5   3     1.391736803903   118.95265121   358.43234438
 C     22  21   5     1.389016688683   119.80766060   179.46556231
 H     22  21   5     1.090926328443   119.64734381   359.32915691
 C     23  21   5     1.393566080690   119.62571762   180.64693161
 H     23  21   5     1.089324119763   119.20917150     0.96088255
 C     26  23  21     1.395677692533   120.62908099   359.80070201
 H     24  22  21     1.091753165527   119.99500662   180.15534301
 H     26  23  21     1.091668863811   119.72508835   179.79804350
 C      9   7   5     1.479875955819   118.19570309   154.31278470
 C     31   9   7     1.397884192639   119.82046753   171.81963318
 C     31   9   7     1.397857086534   119.72089126   351.40049258
 C     32  31   9     1.389798016659   119.54637847   179.89276170
 H     32  31   9     1.090009533406   119.34008081   359.89485215
 C     33  31   9     1.389505364442   119.58982089   180.22189563
 H     33  31   9     1.089992450072   119.37017210     0.09198041
 C     34  32  31     1.399151540505   120.48969607     0.14730034
 H     34  32  31     1.091423508544   119.89227045   180.24458261
 H     36  33  31     1.091409668204   119.93287221   179.47797051
 C      4   2   1     1.489932391308   124.29048452   178.13755440
 C     41   4   2     1.397997974753   117.74760289   356.37911490
 C     41   4   2     1.397953878142   122.07080793   176.32785165
 C     42  41   4     1.389504567982   119.85843876   179.95752253
 H     42  41   4     1.090651198787   118.77294372   359.90079953
 C     43  41   4     1.391132139790   119.60897337   180.18426472
 H     43  41   4     1.089739445090   119.66766672     0.00000000
 C     46  43  41     1.398522930994   120.59516335     0.12535618
 H     44  42  41     1.091612480424   119.97435215   179.51785864
 H     46  43  41     1.091567470573   119.80513064   180.19743533
 C     48  46  43     1.506434709016   120.29987184   182.24556444
 H     51  48  46     1.098359000192   111.41058662   207.32075332
 H     51  48  46     1.098412720914   111.43937961   328.22426802
 C     51  48  46     1.512431061370   111.79823400    87.78388711
 C     18  14  12     1.506876247171   120.35017970   181.89766859
 H     55  18  14     1.098485238903   111.39042240   206.80021616
 H     55  18  14     1.098609203103   111.45195128   327.59440063
 C     55  18  14     1.511714029039   112.10046943    87.19759568
 C     28  26  23     1.506686905102   120.46083707   178.09432345
 H     59  28  26     1.098392306984   111.36157365    28.57475872
 H     59  28  26     1.098664570299   111.45567645   149.34117825
 C     59  28  26     1.511567737934   112.07890247   268.96691219
 C     38  34  32     1.506212203751   120.26226669   182.04051967
 H     63  38  34     1.098332767275   111.40480294   208.21805488
 H     63  38  34     1.098316371496   111.41002841   329.12871058
 C     63  38  34     1.512913456678   111.77200663    88.68418997
 F     66  63  38     1.333806883838   111.50417487   299.73375442
 F     66  63  38     1.333590230766   110.88395287   179.86795278
 F     66  63  38     1.333762912018   111.49902902    60.00305811
 F     54  51  48     1.334175341401   111.54148554   299.55610581
 F     54  51  48     1.334021490994   110.95825342   179.69043245
 F     54  51  48     1.334113272712   111.54955377    59.81387938
 F     58  55  18     1.334292141328   111.64466839   299.22201459
 F     58  55  18     1.335840611465   110.89920485   179.48792121
 F     58  55  18     1.333687724225   111.69577324    59.68726663
 F     62  59  28     1.335151820110   111.65086274   299.69592207
 F     62  59  28     1.333526846157   111.69507932    60.10996370
 F     62  59  28     1.335378159265   110.93735601   179.98174973

---------------------------
INTERNAL COORDINATES (A.U.)
---------------------------
 O      0   0   0     0.000000000000     0.00000000     0.00000000
 O      1   0   0     4.267264269545     0.00000000     0.00000000
 O      1   2   0     4.260570574159    76.68651117     0.00000000
 C      2   1   3     2.269002335038    29.83864938   142.76200348
 C      3   1   2     2.407507691194    34.54340237   122.65293261
 O      3   1   2     4.627848562459   106.89576141    48.22880563
 O      5   3   1     3.129781139003   109.58077547   249.73502557
 O      6   3   1     4.427333709318    63.04795519   131.12726555
 C      7   5   3     2.389078943689   118.84332834     9.99214423
 C      8   6   3     2.244493728533    38.42878126    47.24491808
 C     10   8   6     2.823636575800   128.01288881   134.15353027
 C     11  10   8     2.631617408250   117.31014545   358.21779407
 C     11  10   8     2.638031522757   122.00041374   178.32452560
 C     12  11  10     2.632833737928   119.63145048   180.43698083
 H     12  11  10     2.061386920249   118.99459515     0.28695430
 C     13  11  10     2.626034436308   119.30125135   179.55585511
 H     13  11  10     2.062495506195   119.17042056   358.92243090
 C     14  12  11     2.639106394607   120.35839002     0.21698779
 H     14  12  11     2.063153957073   119.96439166   180.27929125
 H     16  13  11     2.063212280509   119.82603392   179.54466909
 C      5   3   1     2.844649739388   120.31482336   132.08279978
 C     21   5   3     2.640719632390   120.75225449   179.63214685
 C     21   5   3     2.630001409875   118.95265121   358.43234438
 C     22  21   5     2.624861137057   119.80766060   179.46556231
 H     22  21   5     2.061551993042   119.64734381   359.32915691
 C     23  21   5     2.633458242026   119.62571762   180.64693161
 H     23  21   5     2.058524257427   119.20917150     0.96088255
 C     26  23  21     2.637448610110   120.62908099   359.80070201
 H     24  22  21     2.063114488687   119.99500662   180.15534301
 H     26  23  21     2.062955181531   119.72508835   179.79804350
 C      9   7   5     2.796560268673   118.19570309   154.31278470
 C     31   9   7     2.641618291025   119.82046753   171.81963318
 C     31   9   7     2.641567067911   119.72089126   351.40049258
 C     32  31   9     2.626337632952   119.54637847   179.89276170
 H     32  31   9     2.059819501501   119.34008081   359.89485215
 C     33  31   9     2.625784600410   119.58982089   180.22189563
 H     33  31   9     2.059787218677   119.37017210     0.09198041
 C     34  32  31     2.644013231408   120.48969607     0.14730034
 H     34  32  31     2.062491527271   119.89227045   180.24458261
 H     36  33  31     2.062465372819   119.93287221   179.47797051
 C      4   2   1     2.815564177631   124.29048452   178.13755440
 C     41   4   2     2.641833308059   117.74760289   356.37911490
 C     41   4   2     2.641749977542   122.07080793   176.32785165
 C     42  41   4     2.625783095318   119.85843876   179.95752253
 H     42  41   4     2.061032073341   118.77294372   359.90079953
 C     43  41   4     2.628858760299   119.60897337   180.18426472
 H     43  41   4     2.059309108550   119.66766672     0.00000000
 C     46  43  41     2.642825331588   120.59516335     0.12535618
 H     44  42  41     2.062848632372   119.97435215   179.51785864
 H     46  43  41     2.062763576081   119.80513064   180.19743533
 C     48  46  43     2.846749038674   120.29987184   182.24556444
 H     51  48  46     2.075597707090   111.41058662   207.32075332
 H     51  48  46     2.075699224543   111.43937961   328.22426802
 C     51  48  46     2.858080502425   111.79823400    87.78388711
 C     18  14  12     2.847583424865   120.35017970   181.89766859
 H     55  18  14     2.075836263682   111.39042240   206.80021616
 H     55  18  14     2.076070522070   111.45195128   327.59440063
 C     55  18  14     2.856725507691   112.10046943    87.19759568
 C     28  26  23     2.847225620208   120.46083707   178.09432345
 H     59  28  26     2.075660647806   111.36157365    28.57475872
 H     59  28  26     2.076175150907   111.45567645   149.34117825
 C     59  28  26     2.856449057566   112.07890247   268.96691219
 C     38  34  32     2.846328564660   120.26226669   182.04051967
 H     63  38  34     2.075548134061   111.40480294   208.21805488
 H     63  38  34     2.075517150530   111.41002841   329.12871058
 C     63  38  34     2.858992097445   111.77200663    88.68418997
 F     66  63  38     2.520529725993   111.50417487   299.73375442
 F     66  63  38     2.520120311020   110.88395287   179.86795278
 F     66  63  38     2.520446631295   111.49902902    60.00305811
 F     54  51  48     2.521226009878   111.54148554   299.55610581
 F     54  51  48     2.520935274745   110.95825342   179.69043245
 F     54  51  48     2.521108717054   111.54955377    59.81387938
 F     58  55  18     2.521446729753   111.64466839   299.22201459
 F     58  55  18     2.524372914238   110.89920485   179.48792121
 F     58  55  18     2.520304546958   111.69577324    59.68726663
 F     62  59  28     2.523071287214   111.65086274   299.69592207
 F     62  59  28     2.520000531469   111.69507932    60.10996370
 F     62  59  28     2.523499006231   110.93735601   179.98174973

---------------------
BASIS SET INFORMATION
---------------------
There are 4 groups of distinct atoms

 Group   1 Type O   : 17s4p1d contracted to 3s2p1d pattern {881/31/1}
 Group   2 Type C   : 17s4p1d contracted to 3s2p1d pattern {881/31/1}
 Group   3 Type H   : 4s1p contracted to 2s1p pattern {31/1}
 Group   4 Type F   : 17s4p1d contracted to 3s2p1d pattern {881/31/1}

Atom   0O    basis set group =>   1
Atom   1O    basis set group =>   1
Atom   2O    basis set group =>   1
Atom   3C    basis set group =>   2
Atom   4C    basis set group =>   2
Atom   5O    basis set group =>   1
Atom   6O    basis set group =>   1
Atom   7O    basis set group =>   1
Atom   8C    basis set group =>   2
Atom   9C    basis set group =>   2
Atom  10C    basis set group =>   2
Atom  11C    basis set group =>   2
Atom  12C    basis set group =>   2
Atom  13C    basis set group =>   2
Atom  14H    basis set group =>   3
Atom  15C    basis set group =>   2
Atom  16H    basis set group =>   3
Atom  17C    basis set group =>   2
Atom  18H    basis set group =>   3
Atom  19H    basis set group =>   3
Atom  20C    basis set group =>   2
Atom  21C    basis set group =>   2
Atom  22C    basis set group =>   2
Atom  23C    basis set group =>   2
Atom  24H    basis set group =>   3
Atom  25C    basis set group =>   2
Atom  26H    basis set group =>   3
Atom  27C    basis set group =>   2
Atom  28H    basis set group =>   3
Atom  29H    basis set group =>   3
Atom  30C    basis set group =>   2
Atom  31C    basis set group =>   2
Atom  32C    basis set group =>   2
Atom  33C    basis set group =>   2
Atom  34H    basis set group =>   3
Atom  35C    basis set group =>   2
Atom  36H    basis set group =>   3
Atom  37C    basis set group =>   2
Atom  38H    basis set group =>   3
Atom  39H    basis set group =>   3
Atom  40C    basis set group =>   2
Atom  41C    basis set group =>   2
Atom  42C    basis set group =>   2
Atom  43C    basis set group =>   2
Atom  44H    basis set group =>   3
Atom  45C    basis set group =>   2
Atom  46H    basis set group =>   3
Atom  47C    basis set group =>   2
Atom  48H    basis set group =>   3
Atom  49H    basis set group =>   3
Atom  50C    basis set group =>   2
Atom  51H    basis set group =>   3
Atom  52H    basis set group =>   3
Atom  53C    basis set group =>   2
Atom  54C    basis set group =>   2
Atom  55H    basis set group =>   3
Atom  56H    basis set group =>   3
Atom  57C    basis set group =>   2
Atom  58C    basis set group =>   2
Atom  59H    basis set group =>   3
Atom  60H    basis set group =>   3
Atom  61C    basis set group =>   2
Atom  62C    basis set group =>   2
Atom  63H    basis set group =>   3
Atom  64H    basis set group =>   3
Atom  65C    basis set group =>   2
Atom  66F    basis set group =>   4
Atom  67F    basis set group =>   4
Atom  68F    basis set group =>   4
Atom  69F    basis set group =>   4
Atom  70F    basis set group =>   4
Atom  71F    basis set group =>   4
Atom  72F    basis set group =>   4
Atom  73F    basis set group =>   4
Atom  74F    basis set group =>   4
Atom  75F    basis set group =>   4
Atom  76F    basis set group =>   4
Atom  77F    basis set group =>   4
---------------------------------
AUXILIARY/J BASIS SET INFORMATION
---------------------------------
There are 4 groups of distinct atoms

 Group   1 Type O   : 14s10p6d2f1g contracted to 10s8p4d2f1g pattern {5111111111/31111111/3111/11/1}
 Group   2 Type C   : 14s10p6d2f1g contracted to 10s8p5d1f1g pattern {5111111111/31111111/21111/2/1}
 Group   3 Type H   : 4s2p2d contracted to 2s2p2d pattern {31/11/11}
 Group   4 Type F   : 14s10p6d2f1g contracted to 10s8p4d2f1g pattern {5111111111/31111111/3111/11/1}

Atom   0O    basis set group =>   1
Atom   1O    basis set group =>   1
Atom   2O    basis set group =>   1
Atom   3C    basis set group =>   2
Atom   4C    basis set group =>   2
Atom   5O    basis set group =>   1
Atom   6O    basis set group =>   1
Atom   7O    basis set group =>   1
Atom   8C    basis set group =>   2
Atom   9C    basis set group =>   2
Atom  10C    basis set group =>   2
Atom  11C    basis set group =>   2
Atom  12C    basis set group =>   2
Atom  13C    basis set group =>   2
Atom  14H    basis set group =>   3
Atom  15C    basis set group =>   2
Atom  16H    basis set group =>   3
Atom  17C    basis set group =>   2
Atom  18H    basis set group =>   3
Atom  19H    basis set group =>   3
Atom  20C    basis set group =>   2
Atom  21C    basis set group =>   2
Atom  22C    basis set group =>   2
Atom  23C    basis set group =>   2
Atom  24H    basis set group =>   3
Atom  25C    basis set group =>   2
Atom  26H    basis set group =>   3
Atom  27C    basis set group =>   2
Atom  28H    basis set group =>   3
Atom  29H    basis set group =>   3
Atom  30C    basis set group =>   2
Atom  31C    basis set group =>   2
Atom  32C    basis set group =>   2
Atom  33C    basis set group =>   2
Atom  34H    basis set group =>   3
Atom  35C    basis set group =>   2
Atom  36H    basis set group =>   3
Atom  37C    basis set group =>   2
Atom  38H    basis set group =>   3
Atom  39H    basis set group =>   3
Atom  40C    basis set group =>   2
Atom  41C    basis set group =>   2
Atom  42C    basis set group =>   2
Atom  43C    basis set group =>   2
Atom  44H    basis set group =>   3
Atom  45C    basis set group =>   2
Atom  46H    basis set group =>   3
Atom  47C    basis set group =>   2
Atom  48H    basis set group =>   3
Atom  49H    basis set group =>   3
Atom  50C    basis set group =>   2
Atom  51H    basis set group =>   3
Atom  52H    basis set group =>   3
Atom  53C    basis set group =>   2
Atom  54C    basis set group =>   2
Atom  55H    basis set group =>   3
Atom  56H    basis set group =>   3
Atom  57C    basis set group =>   2
Atom  58C    basis set group =>   2
Atom  59H    basis set group =>   3
Atom  60H    basis set group =>   3
Atom  61C    basis set group =>   2
Atom  62C    basis set group =>   2
Atom  63H    basis set group =>   3
Atom  64H    basis set group =>   3
Atom  65C    basis set group =>   2
Atom  66F    basis set group =>   4
Atom  67F    basis set group =>   4
Atom  68F    basis set group =>   4
Atom  69F    basis set group =>   4
Atom  70F    basis set group =>   4
Atom  71F    basis set group =>   4
Atom  72F    basis set group =>   4
Atom  73F    basis set group =>   4
Atom  74F    basis set group =>   4
Atom  75F    basis set group =>   4
Atom  76F    basis set group =>   4
Atom  77F    basis set group =>   4
---------------------------------
AUXILIARY/C BASIS SET INFORMATION
---------------------------------
There are 4 groups of distinct atoms

 Group   1 Type O   : 8s6p5d3f1g contracted to 8s6p5d3f1g pattern {11111111/111111/11111/111/1}
 Group   2 Type C   : 8s6p5d3f1g contracted to 8s6p5d3f1g pattern {11111111/111111/11111/111/1}
 Group   3 Type H   : 4s3p2d1f contracted to 4s3p2d1f pattern {1111/111/11/1}
 Group   4 Type F   : 8s6p5d3f1g contracted to 8s6p5d3f1g pattern {11111111/111111/11111/111/1}

Atom   0O    basis set group =>   1
Atom   1O    basis set group =>   1
Atom   2O    basis set group =>   1
Atom   3C    basis set group =>   2
Atom   4C    basis set group =>   2
Atom   5O    basis set group =>   1
Atom   6O    basis set group =>   1
Atom   7O    basis set group =>   1
Atom   8C    basis set group =>   2
Atom   9C    basis set group =>   2
Atom  10C    basis set group =>   2
Atom  11C    basis set group =>   2
Atom  12C    basis set group =>   2
Atom  13C    basis set group =>   2
Atom  14H    basis set group =>   3
Atom  15C    basis set group =>   2
Atom  16H    basis set group =>   3
Atom  17C    basis set group =>   2
Atom  18H    basis set group =>   3
Atom  19H    basis set group =>   3
Atom  20C    basis set group =>   2
Atom  21C    basis set group =>   2
Atom  22C    basis set group =>   2
Atom  23C    basis set group =>   2
Atom  24H    basis set group =>   3
Atom  25C    basis set group =>   2
Atom  26H    basis set group =>   3
Atom  27C    basis set group =>   2
Atom  28H    basis set group =>   3
Atom  29H    basis set group =>   3
Atom  30C    basis set group =>   2
Atom  31C    basis set group =>   2
Atom  32C    basis set group =>   2
Atom  33C    basis set group =>   2
Atom  34H    basis set group =>   3
Atom  35C    basis set group =>   2
Atom  36H    basis set group =>   3
Atom  37C    basis set group =>   2
Atom  38H    basis set group =>   3
Atom  39H    basis set group =>   3
Atom  40C    basis set group =>   2
Atom  41C    basis set group =>   2
Atom  42C    basis set group =>   2
Atom  43C    basis set group =>   2
Atom  44H    basis set group =>   3
Atom  45C    basis set group =>   2
Atom  46H    basis set group =>   3
Atom  47C    basis set group =>   2
Atom  48H    basis set group =>   3
Atom  49H    basis set group =>   3
Atom  50C    basis set group =>   2
Atom  51H    basis set group =>   3
Atom  52H    basis set group =>   3
Atom  53C    basis set group =>   2
Atom  54C    basis set group =>   2
Atom  55H    basis set group =>   3
Atom  56H    basis set group =>   3
Atom  57C    basis set group =>   2
Atom  58C    basis set group =>   2
Atom  59H    basis set group =>   3
Atom  60H    basis set group =>   3
Atom  61C    basis set group =>   2
Atom  62C    basis set group =>   2
Atom  63H    basis set group =>   3
Atom  64H    basis set group =>   3
Atom  65C    basis set group =>   2
Atom  66F    basis set group =>   4
Atom  67F    basis set group =>   4
Atom  68F    basis set group =>   4
Atom  69F    basis set group =>   4
Atom  70F    basis set group =>   4
Atom  71F    basis set group =>   4
Atom  72F    basis set group =>   4
Atom  73F    basis set group =>   4
Atom  74F    basis set group =>   4
Atom  75F    basis set group =>   4
Atom  76F    basis set group =>   4
Atom  77F    basis set group =>   4
----------------------------------
AUXILIARY/JK BASIS SET INFORMATION
----------------------------------
There are 4 groups of distinct atoms

 Group   1 Type O   : 14s10p6d2f1g contracted to 10s8p4d2f1g pattern {5111111111/31111111/3111/11/1}
 Group   2 Type C   : 14s10p6d2f1g contracted to 10s8p5d1f1g pattern {5111111111/31111111/21111/2/1}
 Group   3 Type H   : 4s2p2d contracted to 2s2p2d pattern {31/11/11}
 Group   4 Type F   : 14s10p6d2f1g contracted to 10s8p4d2f1g pattern {5111111111/31111111/3111/11/1}

Atom   0O    basis set group =>   1
Atom   1O    basis set group =>   1
Atom   2O    basis set group =>   1
Atom   3C    basis set group =>   2
Atom   4C    basis set group =>   2
Atom   5O    basis set group =>   1
Atom   6O    basis set group =>   1
Atom   7O    basis set group =>   1
Atom   8C    basis set group =>   2
Atom   9C    basis set group =>   2
Atom  10C    basis set group =>   2
Atom  11C    basis set group =>   2
Atom  12C    basis set group =>   2
Atom  13C    basis set group =>   2
Atom  14H    basis set group =>   3
Atom  15C    basis set group =>   2
Atom  16H    basis set group =>   3
Atom  17C    basis set group =>   2
Atom  18H    basis set group =>   3
Atom  19H    basis set group =>   3
Atom  20C    basis set group =>   2
Atom  21C    basis set group =>   2
Atom  22C    basis set group =>   2
Atom  23C    basis set group =>   2
Atom  24H    basis set group =>   3
Atom  25C    basis set group =>   2
Atom  26H    basis set group =>   3
Atom  27C    basis set group =>   2
Atom  28H    basis set group =>   3
Atom  29H    basis set group =>   3
Atom  30C    basis set group =>   2
Atom  31C    basis set group =>   2
Atom  32C    basis set group =>   2
Atom  33C    basis set group =>   2
Atom  34H    basis set group =>   3
Atom  35C    basis set group =>   2
Atom  36H    basis set group =>   3
Atom  37C    basis set group =>   2
Atom  38H    basis set group =>   3
Atom  39H    basis set group =>   3
Atom  40C    basis set group =>   2
Atom  41C    basis set group =>   2
Atom  42C    basis set group =>   2
Atom  43C    basis set group =>   2
Atom  44H    basis set group =>   3
Atom  45C    basis set group =>   2
Atom  46H    basis set group =>   3
Atom  47C    basis set group =>   2
Atom  48H    basis set group =>   3
Atom  49H    basis set group =>   3
Atom  50C    basis set group =>   2
Atom  51H    basis set group =>   3
Atom  52H    basis set group =>   3
Atom  53C    basis set group =>   2
Atom  54C    basis set group =>   2
Atom  55H    basis set group =>   3
Atom  56H    basis set group =>   3
Atom  57C    basis set group =>   2
Atom  58C    basis set group =>   2
Atom  59H    basis set group =>   3
Atom  60H    basis set group =>   3
Atom  61C    basis set group =>   2
Atom  62C    basis set group =>   2
Atom  63H    basis set group =>   3
Atom  64H    basis set group =>   3
Atom  65C    basis set group =>   2
Atom  66F    basis set group =>   4
Atom  67F    basis set group =>   4
Atom  68F    basis set group =>   4
Atom  69F    basis set group =>   4
Atom  70F    basis set group =>   4
Atom  71F    basis set group =>   4
Atom  72F    basis set group =>   4
Atom  73F    basis set group =>   4
Atom  74F    basis set group =>   4
Atom  75F    basis set group =>   4
Atom  76F    basis set group =>   4
Atom  77F    basis set group =>   4


           ************************************************************
           *        Program running with 64 parallel MPI-processes    *
           *              working on a common directory               *
           ************************************************************
------------------------------------------------------------------------------
                           ORCA GTO INTEGRAL CALCULATION
------------------------------------------------------------------------------
------------------------------------------------------------------------------
                   ___                                                        
                  /   \      - P O W E R E D   B Y -                         
                 /     \                                                     
                 |  |  |   _    _      __       _____    __    __             
                 |  |  |  | |  | |    /  \     |  _  \  |  |  /  |          
                  \  \/   | |  | |   /    \    | | | |  |  | /  /          
                 / \  \   | |__| |  /  /\  \   | |_| |  |  |/  /          
                |  |  |   |  __  | /  /__\  \  |    /   |      \           
                |  |  |   | |  | | |   __   |  |    \   |  |\   \          
                \     /   | |  | | |  |  |  |  | |\  \  |  | \   \       
                 \___/    |_|  |_| |__|  |__|  |_| \__\ |__|  \__/        
                                                                              
                      - O R C A' S   B I G   F R I E N D -                    
                                      &                                       
                       - I N T E G R A L  F E E D E R -                       
                                                                              
 v1 FN, 2020, v2 2021                                                         
------------------------------------------------------------------------------


Reading SHARK input file udc3_ts1_c15_sp_water.SHARKINP.tmp ... ok
----------------------
SHARK INTEGRAL PACKAGE
----------------------

Number of atoms                             ...     78
Number of basis functions                   ...   1200
Number of shells                            ...    720
Maximum angular momentum                    ...      2
Integral batch strategy                     ... SHARK/LIBINT Hybrid
RI-J (if used) integral strategy            ... SPLIT-RIJ (Revised 2003 algorithm where possible)
Printlevel                                  ...      1
Contraction scheme used                     ... PARTIAL GENERAL contraction
Coulomb Range Separation                    ... NOT USED
Exchange Range Separation                   ... NOT USED
Finite Nucleus Model                        ... NOT USED
Auxiliary Coulomb fitting basis             ... AVAILABLE
   # of basis functions in Aux-J            ...   4518
   # of shells in Aux-J                     ...   1494
   Maximum angular momentum in Aux-J        ...      4
Auxiliary J/K fitting basis                 ... AVAILABLE
   # of basis functions in Aux-JK           ...   4518
   # of shells in Aux-JK                    ...   1494
   Maximum angular momentum in Aux-JK       ...      4
Auxiliary Correlation fitting basis         ... AVAILABLE
   # of basis functions in Aux-C            ...   5094
   # of shells in Aux-C                     ...   1482
   Maximum angular momentum in Aux-C        ...      4
Auxiliary 'external' fitting basis          ... NOT available
Integral threshold                          ...     2.500000e-11
Primitive cut-off                           ...     2.500000e-12
Primitive pair pre-selection threshold      ...     2.500000e-12

Calculating pre-screening integrals         ... done (  0.1 sec) Dimension = 720
Calculating pre-screening integrals (ORCA)  ... done (  0.2 sec) Dimension = 396
Organizing shell pair data                  ... done (  0.4 sec)
Shell pair information
Total number of shell pairs                 ...    259560
Shell pairs after pre-screening             ...     60566
Total number of primitive shell pairs       ...    384360
Primitive shell pairs kept                  ...     77429
          la=0 lb=0:  24398 shell pairs
          la=1 lb=0:  22191 shell pairs
          la=1 lb=1:   3951 shell pairs
          la=2 lb=0:   6834 shell pairs
          la=2 lb=1:   2720 shell pairs
          la=2 lb=2:    472 shell pairs

Calculating one electron integrals          ... done (  0.8 sec)
Calculating RI/J V-Matrix + Cholesky decomp.... done (  4.6 sec)
Calculating RI/JK V-Matrix + Cholesky decomp... done (  4.6 sec)
Calculating RI/C V-Matrix + Cholesky decomp.... done (  5.3 sec)
Calculating Nuclear repulsion               ... done (  0.0 sec) ENN=   7316.390771467190 Eh

SHARK setup successfully completed in  16.6 seconds

Maximum memory used throughout the entire GTOINT-calculation: 90.7 MB


           ************************************************************
           *        Program running with 64 parallel MPI-processes    *
           *              working on a common directory               *
           ************************************************************
-------------------------------------------------------------------------------
                                 ORCA SCF
-------------------------------------------------------------------------------

------------
SCF SETTINGS
------------
Hamiltonian:
 Ab initio Hamiltonian  Method          .... Hartree-Fock(GTOs)


General Settings:
 Integral files         IntName         .... udc3_ts1_c15_sp_water
 Hartree-Fock type      HFTyp           .... RHF
 Total Charge           Charge          ....    0
 Multiplicity           Mult            ....    1
 Number of Electrons    NEL             ....  396
 Basis Dimension        Dim             ....  876
 Nuclear Repulsion      ENuc            ....   7316.3907714672 Eh

Convergence Acceleration:
 DIIS                   CNVDIIS         .... off
 Trust-Rad. Augm. Hess. CNVTRAH         .... auto
   Auto Start mean grad. ratio tolernc. ....  1.125000
   Auto Start start iteration           ....    20
   Auto Start num. interpolation iter.  ....    10
   Max. Number of Micro iterations      ....    16
   Max. Number of Macro iterations      .... Maxiter - #DIIS iter
   Number of Davidson start vectors     ....     2
   Converg. threshold I  (grad. norm)   ....   1.000e-05
   Converg. threshold II (energy diff.) ....   1.000e-08
   Grad. Scal. Fac. for Micro threshold ....   0.100
   Minimum threshold for Micro iter.    ....   0.010
   NR start threshold (gradient norm)   ....   0.001
   Initial trust radius                 ....   0.400
   Minimum AH scaling param. (alpha)    ....   1.000
   Maximum AH scaling param. (alpha)    .... 1000.000
   Orbital update algorithm             .... Taylor
   White noise on init. David. guess    .... on
   Maximum white noise                  ....   0.010
   Quad. conv. algorithm                .... NR
 SOSCF                  CNVSOSCF        .... off
 Level Shifting         CNVShift        .... off
 Zerner damping         CNVZerner       .... off
 Static damping         CNVDamp         .... off
 Fernandez-Rico         CNVRico         .... off

SCF Procedure:
 Maximum # iterations   MaxIter         ....   500
 SCF integral mode      SCFMode         .... Direct
   Integral package                     .... SHARK and LIBINT hybrid scheme
 Reset frequency        DirectResetFreq ....    20
 Integral Threshold     Thresh          ....  2.500e-11 Eh
 Primitive CutOff       TCut            ....  2.500e-12 Eh

Convergence Tolerance:
 Convergence Check Mode ConvCheckMode   .... Total+1el-Energy
 Convergence forced     ConvForced      .... 1
 Energy Change          TolE            ....  1.000e-08 Eh
 1-El. energy change                    ....  1.000e-05 Eh


Diagonalization of the overlap matrix:
Smallest eigenvalue                        ... 2.619e-04
Time for diagonalization                   ...    0.164 sec
Threshold for overlap eigenvalues          ... 1.000e-08
Number of eigenvalues below threshold      ... 0
Time for construction of square roots      ...    0.234 sec
Total time needed                          ...    0.404 sec

Time for model grid setup =    5.526 sec

------------------------------
INITIAL GUESS: MODEL POTENTIAL
------------------------------
Loading Hartree-Fock densities                     ... done
Calculating cut-offs                               ... done
Initializing the effective Hamiltonian             ... done
Setting up the integral package (SHARK)            ... done
Starting the Coulomb interaction                   ... done (   0.4 sec)
Reading the grid                                   ... done
Mapping shells                                     ... done
Starting the XC term evaluation                    ... done (   0.1 sec)
Transforming the Hamiltonian                       ... done (   0.2 sec)
Diagonalizing the Hamiltonian                      ... done (   0.2 sec)
Back transforming the eigenvectors                 ... done (   0.1 sec)
Now organizing SCF variables                       ... done
                      ------------------
                      INITIAL GUESS DONE (   6.8 sec)
                      ------------------

--------------------
CPCM SOLVATION MODEL
--------------------
CPCM parameters:
  Epsilon                                         ...      78.3553
  Refrac                                          ...       1.3300
  Rsolv                                           ...       1.3000
  Surface type                                    ... GAUSSIAN VDW
  Epsilon function type                           ...         CPCM
Radii:
 Radius for O  used is    3.4469 Bohr (=   1.8240 Ang.)
 Radius for C  used is    3.8550 Bohr (=   2.0400 Ang.)
 Radius for H  used is    2.4944 Bohr (=   1.3200 Ang.)
 Radius for F  used is    3.3335 Bohr (=   1.7640 Ang.)
Calculating surface                               ...        done! (  0.0s)
GEPOL surface points                              ...         4045
GEPOL Volume                                      ...    5165.4911
GEPOL Surface-area                                ...    2542.8681
Calculating surface distance matrix               ...        done! (  0.2s)
Performing Cholesky decomposition & store         ...        done! (  4.0s)
Overall time for CPCM initialization              ...                 4.3s
--------------
SCF ITERATIONS
--------------
ITER       Energy         Delta-E        Max-DP      RMS-DP      [F,P]   Gradient Norm
               ***  Starting incremental Fock matrix formation  ***
 re-compute Schwartz prescreening matrix in partically contracted basis ...done (   0.113 sec)
                             ****Resetting KDIIS****
                             ****Turning on KDIIS(Cayley)****
  0  -3018.5830809082   0.000000000000 0.02545021  0.00039526  0.0841353   0.103542387
  1  -3018.9211961305  -0.338115222323 0.03143272  0.00064428  0.0767251   0.091120544
  2  -3019.2900418896  -0.368845759130 0.04515271  0.00105121  0.0615914   0.073976523
  3  -3019.7410937118  -0.451051822236 0.06085906  0.00157631  0.0370714   0.044833892
  4  -3020.0107935311  -0.269699819225 0.00369383  0.00004856  0.0011940   0.001233059
  5  -3020.0111883864  -0.000394855356 0.00199048  0.00002315  0.0003863   0.000506086
  6  -3020.0112474006  -0.000059014189 0.00088811  0.00000658  0.0002821   0.000211034
  7  -3020.0112570359  -0.000009635334 0.00038734  0.00000389  0.0001505   0.000055485
  8  -3020.0112591024  -0.000002066412 0.00021550  0.00000188  0.0001056   0.000037633
  9  -3020.0112597581  -0.000000655768 0.00014057  0.00000132  0.0000444   0.000018893
 10  -3020.0112599784  -0.000000220292 0.00004185  0.00000039  0.0000126   0.000008759
 11  -3020.0112600124  -0.000000034001 0.00002471  0.00000026  0.0000081   0.000005127
 12  -3020.0112600381  -0.000000025712 0.00000988  0.00000009  0.0000028   0.000002426
 13  -3020.0112600419  -0.000000003755 0.00000650  0.00000005  0.0000018   0.000001371
 14  -3020.0112600594  -0.000000017473 0.00000224  0.00000002  0.0000007   0.000000544
 15  -3020.0112600957  -0.000000036386 0.00000147  0.00000001  0.0000005   0.000000315
 16  -3020.0112601363  -0.000000040523 0.00000073  0.00000001  0.0000002   0.000000141
 17  -3020.0112601471  -0.000000010785 0.00000057  0.00000001  0.0000001   0.000000100
 18  -3020.0112602320  -0.000000084963 0.00000072  0.00000001  0.0000001   0.000000063
 19  -3020.0112603468  -0.000000114750 0.00000044  0.00000001  0.0000001   0.000000043
               *** Restarting incremental Fock matrix formation ***
                             ****Resetting KDIIS****
 20  -3020.0112600509   0.000000295854 0.00000020  0.00000000  0.0000001   0.000000099
 21  -3020.0112601219  -0.000000071006 0.00000044  0.00000001  0.0000001   0.000000102
 22  -3020.0112600637   0.000000058190 0.00000086  0.00000001  0.0000001   0.000000104
 23  -3020.0112599359   0.000000127847 0.00000164  0.00000002  0.0000001   0.000000088
 24  -3020.0112597697   0.000000166186 0.00000087  0.00000001  0.0000001   0.000000049

 WARNING: the maximum gradient error descreased on average only by a factor   1.1
          during the last 20 iterations

                      *** Initiating the TRAH-SCF procedure ***

                    *** KDIIS BlockDiag ( 0.270 sec) ***
 --------------------------------------------------------------------------------------------
   Iter.        energy            ||Error||_2        Shift      TRadius  Mac/Mic        Rej.
 --------------------------------------------------------------------------------------------
    0      -3020.011260050910     6.247997e-06                     0.400 (TRAH MAcro)   No

               *****************************************************
               *                     SUCCESS                       *
               *           SCF CONVERGED AFTER  26 CYCLES          *
               *****************************************************


----------------
TOTAL SCF ENERGY
----------------

Total Energy       :        -3020.01126005 Eh          -82178.68427 eV

Components:
Nuclear Repulsion  :         7316.39077147 Eh          199089.11439 eV
Electronic Energy  :       -10336.40203152 Eh         -281267.79866 eV
One Electron Energy:       -18745.63957051 Eh         -510094.78543 eV
Two Electron Energy:         8409.23753899 Eh          228826.98678 eV
CPCM Dielectric    :           -0.04706076 Eh              -1.28059 eV

Virial components:
Potential Energy   :        -6038.52008787 Eh         -164316.48528 eV
Kinetic Energy     :         3018.50882782 Eh           82137.80101 eV
Virial Ratio       :            2.00049774

CPCM Solvation Model Properties:
Surface-charge          :           -0.01947218
Charge-correction       :            0.00004931 Eh               0.00134 eV
Free-energy (cav+disp)  :  This term is not implemented in the current solvation scheme

---------------
SCF CONVERGENCE
---------------

  Last Energy change         ...   -3.0200e+03  Tolerance :   1.0000e-08
  Last Orbital Gradient      ...    6.2480e-06  Tolerance :   1.0000e-05
  Last Orbital Rotation      ...    0.0000e+00

             **** THE GBW FILE WAS UPDATED (udc3_ts1_c15_sp_water.gbw) ****
             **** DENSITY udc3_ts1_c15_sp_water.scfp WAS UPDATED ****
             **** ENERGY FILE WAS UPDATED (udc3_ts1_c15_sp_water.en.tmp) ****
             **** THE GBW FILE WAS UPDATED (udc3_ts1_c15_sp_water.gbw) ****
             **** DENSITY udc3_ts1_c15_sp_water.scfp WAS UPDATED ****
----------------
ORBITAL ENERGIES
----------------

  NO   OCC          E(Eh)            E(eV) 
   0   2.0000     -26.342559      -716.8175 
   1   2.0000     -26.342511      -716.8162 
   2   2.0000     -26.342333      -716.8113 
   3   2.0000     -26.341671      -716.7933 
   4   2.0000     -26.341655      -716.7929 
   5   2.0000     -26.341567      -716.7905 
   6   2.0000     -26.341047      -716.7763 
   7   2.0000     -26.340925      -716.7730 
   8   2.0000     -26.340698      -716.7668 
   9   2.0000     -26.340372      -716.7580 
  10   2.0000     -26.340184      -716.7528 
  11   2.0000     -26.340044      -716.7490 
  12   2.0000     -20.631054      -561.3995 
  13   2.0000     -20.628585      -561.3323 
  14   2.0000     -20.619723      -561.0912 
  15   2.0000     -20.570392      -559.7488 
  16   2.0000     -20.554654      -559.3206 
  17   2.0000     -20.551512      -559.2351 
  18   2.0000     -11.504370      -313.0498 
  19   2.0000     -11.503212      -313.0183 
  20   2.0000     -11.501913      -312.9830 
  21   2.0000     -11.501429      -312.9698 
  22   2.0000     -11.449811      -311.5652 
  23   2.0000     -11.444394      -311.4178 
  24   2.0000     -11.442651      -311.3704 
  25   2.0000     -11.413518      -310.5776 
  26   2.0000     -11.276036      -306.8365 
  27   2.0000     -11.270833      -306.6950 
  28   2.0000     -11.268707      -306.6371 
  29   2.0000     -11.267346      -306.6001 
  30   2.0000     -11.266820      -306.5858 
  31   2.0000     -11.264800      -306.5308 
  32   2.0000     -11.263837      -306.5046 
  33   2.0000     -11.263142      -306.4857 
  34   2.0000     -11.262683      -306.4732 
  35   2.0000     -11.262313      -306.4631 
  36   2.0000     -11.261599      -306.4437 
  37   2.0000     -11.261402      -306.4383 
  38   2.0000     -11.260705      -306.4194 
  39   2.0000     -11.260548      -306.4151 
  40   2.0000     -11.259943      -306.3986 
  41   2.0000     -11.256933      -306.3167 
  42   2.0000     -11.256589      -306.3074 
  43   2.0000     -11.254249      -306.2437 
  44   2.0000     -11.254197      -306.2423 
  45   2.0000     -11.253786      -306.2311 
  46   2.0000     -11.253781      -306.2309 
  47   2.0000     -11.251976      -306.1818 
  48   2.0000     -11.251473      -306.1682 
  49   2.0000     -11.251377      -306.1655 
  50   2.0000     -11.249020      -306.1014 
  51   2.0000     -11.248687      -306.0923 
  52   2.0000     -11.247737      -306.0665 
  53   2.0000     -11.246877      -306.0431 
  54   2.0000      -1.740092       -47.3503 
  55   2.0000      -1.739122       -47.3239 
  56   2.0000      -1.738022       -47.2940 
  57   2.0000      -1.737651       -47.2839 
  58   2.0000      -1.641407       -44.6650 
  59   2.0000      -1.641151       -44.6580 
  60   2.0000      -1.640409       -44.6378 
  61   2.0000      -1.640225       -44.6328 
  62   2.0000      -1.639771       -44.6204 
  63   2.0000      -1.639279       -44.6070 
  64   2.0000      -1.638690       -44.5910 
  65   2.0000      -1.638446       -44.5844 
  66   2.0000      -1.536685       -41.8153 
  67   2.0000      -1.497750       -40.7559 
  68   2.0000      -1.437272       -39.1102 
  69   2.0000      -1.419467       -38.6256 
  70   2.0000      -1.391724       -37.8707 
  71   2.0000      -1.368466       -37.2379 
  72   2.0000      -1.186472       -32.2855 
  73   2.0000      -1.181690       -32.1554 
  74   2.0000      -1.178680       -32.0735 
  75   2.0000      -1.176342       -32.0099 
  76   2.0000      -1.108728       -30.1700 
  77   2.0000      -1.106091       -30.0983 
  78   2.0000      -1.101365       -29.9697 
  79   2.0000      -1.098555       -29.8932 
  80   2.0000      -1.043333       -28.3905 
  81   2.0000      -1.038715       -28.2649 
  82   2.0000      -1.035996       -28.1909 
  83   2.0000      -1.032389       -28.0927 
  84   2.0000      -1.028866       -27.9969 
  85   2.0000      -1.027387       -27.9566 
  86   2.0000      -1.025006       -27.8918 
  87   2.0000      -1.020585       -27.7715 
  88   2.0000      -0.965177       -26.2638 
  89   2.0000      -0.952437       -25.9171 
  90   2.0000      -0.934998       -25.4426 
  91   2.0000      -0.931074       -25.3358 
  92   2.0000      -0.914997       -24.8983 
  93   2.0000      -0.908617       -24.7247 
  94   2.0000      -0.877214       -23.8702 
  95   2.0000      -0.857793       -23.3417 
  96   2.0000      -0.853443       -23.2234 
  97   2.0000      -0.848854       -23.0985 
  98   2.0000      -0.846826       -23.0433 
  99   2.0000      -0.844157       -22.9707 
 100   2.0000      -0.831131       -22.6162 
 101   2.0000      -0.830305       -22.5937 
 102   2.0000      -0.829085       -22.5606 
 103   2.0000      -0.827666       -22.5219 
 104   2.0000      -0.827271       -22.5112 
 105   2.0000      -0.826561       -22.4919 
 106   2.0000      -0.826254       -22.4835 
 107   2.0000      -0.825507       -22.4632 
 108   2.0000      -0.816521       -22.2187 
 109   2.0000      -0.815172       -22.1820 
 110   2.0000      -0.806526       -21.9467 
 111   2.0000      -0.774953       -21.0875 
 112   2.0000      -0.774541       -21.0763 
 113   2.0000      -0.772032       -21.0081 
 114   2.0000      -0.769786       -20.9470 
 115   2.0000      -0.766426       -20.8555 
 116   2.0000      -0.758479       -20.6393 
 117   2.0000      -0.755722       -20.5642 
 118   2.0000      -0.739219       -20.1152 
 119   2.0000      -0.724161       -19.7054 
 120   2.0000      -0.715290       -19.4640 
 121   2.0000      -0.713568       -19.4172 
 122   2.0000      -0.713460       -19.4142 
 123   2.0000      -0.712232       -19.3808 
 124   2.0000      -0.711969       -19.3737 
 125   2.0000      -0.711869       -19.3709 
 126   2.0000      -0.711135       -19.3510 
 127   2.0000      -0.710402       -19.3310 
 128   2.0000      -0.706579       -19.2270 
 129   2.0000      -0.698279       -19.0011 
 130   2.0000      -0.694543       -18.8995 
 131   2.0000      -0.671463       -18.2714 
 132   2.0000      -0.667605       -18.1665 
 133   2.0000      -0.666585       -18.1387 
 134   2.0000      -0.666291       -18.1307 
 135   2.0000      -0.665330       -18.1045 
 136   2.0000      -0.664742       -18.0885 
 137   2.0000      -0.663329       -18.0501 
 138   2.0000      -0.662483       -18.0271 
 139   2.0000      -0.659087       -17.9347 
 140   2.0000      -0.652340       -17.7511 
 141   2.0000      -0.651160       -17.7190 
 142   2.0000      -0.650867       -17.7110 
 143   2.0000      -0.647393       -17.6165 
 144   2.0000      -0.646864       -17.6021 
 145   2.0000      -0.645784       -17.5727 
 146   2.0000      -0.645656       -17.5692 
 147   2.0000      -0.644595       -17.5403 
 148   2.0000      -0.644262       -17.5313 
 149   2.0000      -0.643868       -17.5205 
 150   2.0000      -0.641357       -17.4522 
 151   2.0000      -0.639280       -17.3957 
 152   2.0000      -0.635774       -17.3003 
 153   2.0000      -0.628867       -17.1123 
 154   2.0000      -0.609997       -16.5989 
 155   2.0000      -0.605922       -16.4880 
 156   2.0000      -0.604176       -16.4405 
 157   2.0000      -0.602352       -16.3908 
 158   2.0000      -0.599553       -16.3147 
 159   2.0000      -0.594550       -16.1785 
 160   2.0000      -0.593049       -16.1377 
 161   2.0000      -0.581876       -15.8337 
 162   2.0000      -0.574229       -15.6256 
 163   2.0000      -0.573021       -15.5927 
 164   2.0000      -0.572584       -15.5808 
 165   2.0000      -0.571436       -15.5496 
 166   2.0000      -0.568484       -15.4692 
 167   2.0000      -0.563183       -15.3250 
 168   2.0000      -0.560433       -15.2502 
 169   2.0000      -0.558869       -15.2076 
 170   2.0000      -0.557289       -15.1646 
 171   2.0000      -0.551393       -15.0042 
 172   2.0000      -0.530483       -14.4352 
 173   2.0000      -0.523692       -14.2504 
 174   2.0000      -0.522762       -14.2251 
 175   2.0000      -0.520719       -14.1695 
 176   2.0000      -0.519532       -14.1372 
 177   2.0000      -0.515083       -14.0161 
 178   2.0000      -0.512831       -13.9548 
 179   2.0000      -0.506628       -13.7860 
 180   2.0000      -0.504960       -13.7407 
 181   2.0000      -0.504338       -13.7237 
 182   2.0000      -0.500988       -13.6326 
 183   2.0000      -0.500270       -13.6130 
 184   2.0000      -0.496745       -13.5171 
 185   2.0000      -0.494270       -13.4498 
 186   2.0000      -0.479143       -13.0381 
 187   2.0000      -0.456823       -12.4308 
 188   2.0000      -0.448702       -12.2098 
 189   2.0000      -0.434640       -11.8272 
 190   2.0000      -0.360218        -9.8020 
 191   2.0000      -0.354818        -9.6551 
 192   2.0000      -0.353457        -9.6181 
 193   2.0000      -0.351160        -9.5555 
 194   2.0000      -0.350513        -9.5380 
 195   2.0000      -0.347038        -9.4434 
 196   2.0000      -0.346312        -9.4236 
 197   2.0000      -0.345396        -9.3987 
 198   0.0000       0.059436         1.6173 
 199   0.0000       0.071390         1.9426 
 200   0.0000       0.095566         2.6005 
 201   0.0000       0.103431         2.8145 
 202   0.0000       0.118091         3.2134 
 203   0.0000       0.120941         3.2910 
 204   0.0000       0.123997         3.3741 
 205   0.0000       0.125883         3.4254 
 206   0.0000       0.182048         4.9538 
 207   0.0000       0.189092         5.1455 
 208   0.0000       0.191514         5.2114 
 209   0.0000       0.196487         5.3467 
 210   0.0000       0.198928         5.4131 
 211   0.0000       0.204559         5.5663 
 212   0.0000       0.208846         5.6830 
 213   0.0000       0.215363         5.8603 
 214   0.0000       0.219549         5.9742 
 215   0.0000       0.219882         5.9833 
 216   0.0000       0.221951         6.0396 
 217   0.0000       0.227112         6.1800 
 218   0.0000       0.230926         6.2838 
 219   0.0000       0.233966         6.3665 
 220   0.0000       0.236864         6.4454 
 221   0.0000       0.250433         6.8146 
 222   0.0000       0.256946         6.9919 
 223   0.0000       0.261169         7.1068 
 224   0.0000       0.267042         7.2666 
 225   0.0000       0.271853         7.3975 
 226   0.0000       0.276617         7.5271 
 227   0.0000       0.278180         7.5697 
 228   0.0000       0.283291         7.7087 
 229   0.0000       0.289087         7.8665 
 230   0.0000       0.289882         7.8881 
 231   0.0000       0.300473         8.1763 
 232   0.0000       0.302069         8.2197 
 233   0.0000       0.313195         8.5225 
 234   0.0000       0.327160         8.9025 
 235   0.0000       0.336501         9.1567 
 236   0.0000       0.341537         9.2937 
 237   0.0000       0.343220         9.3395 
 238   0.0000       0.344391         9.3714 
 239   0.0000       0.345568         9.4034 
 240   0.0000       0.349146         9.5007 
 241   0.0000       0.354267         9.6401 
 242   0.0000       0.366325         9.9682 
 243   0.0000       0.377245        10.2654 
 244   0.0000       0.378009        10.2861 
 245   0.0000       0.383730        10.4418 
 246   0.0000       0.384214        10.4550 
 247   0.0000       0.385353        10.4860 
 248   0.0000       0.385517        10.4905 
 249   0.0000       0.386199        10.5090 
 250   0.0000       0.386772        10.5246 
 251   0.0000       0.398674        10.8485 
 252   0.0000       0.409746        11.1498 
 253   0.0000       0.421096        11.4586 
 254   0.0000       0.422544        11.4980 
 255   0.0000       0.423938        11.5359 
 256   0.0000       0.424148        11.5417 
 257   0.0000       0.429240        11.6802 
 258   0.0000       0.439454        11.9582 
 259   0.0000       0.444783        12.1032 
 260   0.0000       0.447274        12.1710 
 261   0.0000       0.449610        12.2345 
 262   0.0000       0.451714        12.2918 
 263   0.0000       0.454530        12.3684 
 264   0.0000       0.454788        12.3754 
 265   0.0000       0.456961        12.4345 
 266   0.0000       0.460072        12.5192 
 267   0.0000       0.461807        12.5664 
 268   0.0000       0.463051        12.6003 
 269   0.0000       0.466283        12.6882 
 270   0.0000       0.468483        12.7481 
 271   0.0000       0.474875        12.9220 
 272   0.0000       0.481800        13.1104 
 273   0.0000       0.486339        13.2339 
 274   0.0000       0.488808        13.3011 
 275   0.0000       0.490507        13.3474 
 276   0.0000       0.491368        13.3708 
 277   0.0000       0.496222        13.5029 
 278   0.0000       0.510086        13.8802 
[...]
                       4281 OF 7085 PAIRS ARE SKIPPED
                       ===========================

Total time spent in the initial guess                 ...   175.519 sec
SL-MP2 correlation energy (all non-screened pairs)    ...      -9.607746797802 Eh

Initial PNO correlation energy                        ...      -9.529799877971 Eh
sum of pair energies prescreened and skipped MP2 pairs...      -0.006975835060 Eh
sum of pair energies of crude MP2 skipped pairs only  ...      -0.006871830051 Eh
sum of MP2 pair energies for pairs that were not kept ...      -0.048278355733 Eh
sum of PNO error estimates for the kept pairs         ...      -0.029668564097 Eh
                                                          --------------------
sum of all corrections                                         -0.078050924840
Initial total correlation energy                               -9.607850802811
Thresholds for map construction and integral transformation for fine MP2 and CCSD(T) calculation:
   TCutMKN   ...     1.0e-03
   TCutDO    ...     1.0e-02
   TCutPairs ...     1.0e-04
   TCutCMO   ...     1.0e-03
   TCutCPAO  ...     1.0e-03

Thresholds for map construction and integral transformation for strong Triples:
   TCutMKN   ...     1.0e-02
   TCutDO    ...     2.0e-02
   TCutCMO   ...     1.0e-03
   TCutCPAO  ...     1.0e-03

Thresholds for map construction and integral transformation for weak Triples:
   TCutMKN   ...     1.0e-01
   TCutDO    ...     4.0e-02
   TCutCMO   ...     1.0e-03
   TCutCPAO  ...     1.0e-03

--------------------------------
LOCAL RI TRANSFORMATION (IAVPAO)
--------------------------------

Orbital window:      54 to 197
Number of PAOs:    1956
Basis functions:   1956 (684 shells)
Aux. functions:    5094 (1482 shells)
Use SHARK:           on

Processing maps (0.2 sec)
Average map sizes:
   Aux shells -> MOs              61.7
   Aux shells -> PAOs           1944.8
   MOs        -> AO shells       359.3
   PAOs       -> AO shells       496.2

Calculating integrals (10.7 sec, 4693.574 MB)
Sorting integrals (20.1 sec, 3858.243 MB)
Total time for the integral transformation: 32.1 sec
--------------------------------
INITIAL GUESS AND PNO GENERATION
--------------------------------

PNO truncation parameters                   .... 
    PAOOverlapThresh   =        1.000e-08

    TCutPairs          =        1.000e-04
    TCutPNO            =        3.330e-07
    TCutPNOSingles     =        9.990e-09
    TCutMP2Pairs       =        1.000e-05
    TCutMKN            =        1.000e-03
    TCutDO             =        1.000e-02

Pair selection                          .... not used
Type of local MP2 treatment                 .... semi-local MP2
Strategy for PNO selection                  .... occupation number selection
Pair density normalization                  .... MP2 norm
Spin component scaling                      .... not used

   .... Finished loop over pairs

 PNO Occupation Number Statistics: 
  | Av. % of trace(Dij) retained        ...  96.995512758778
  | sigma^2 in % of trace(Dij) retained ...   8.93e+00
  | Av. % of trace(Di) retained         ...  99.998952305648
  | sigma^2 in % of trace(Di) retained  ...   1.25e-07
 Distributions of % trace(Dij) recovered:
  |       >= 99.9  ...   408 ( 14.6 % of all pairs)
  |   [80.0, 90.0) ...    97 (  3.5 % of all pairs)
  |   [90.0, 99.0) ...  1764 ( 62.9 % of all pairs)
  |   [99.0, 99.9) ...   535 ( 19.1 % of all pairs)
 Distributions of % trace(Di) recovered :
  |       >= 99.9  ...   144 (100.0 % of all I-pairs )

Making pair pair interaction lists          ... done

                       ===========================
                       1659 OF 2804 PAIRS ARE KEPT
                       ===========================

Total time spent in the initial guess                 ...   143.563 sec
SL-MP2 correlation energy (all non-screened pairs)    ...      -9.607487395704 Eh

Initial PNO correlation energy                        ...      -9.535952682685 Eh
sum of pair energies estimated for screened out pairs ...      -0.006975835060 Eh
sum of MP2 pair energies for pairs that were not kept ...      -0.041686047006 Eh
sum of PNO error estimates for the kept pairs         ...      -0.029944108496 Eh
                                                          --------------------
sum of all corrections                                         -0.078605990562
Initial total correlation energy                               -9.614558673247
Thresholds for map construction and integral transformation for fine MP2 and CCSD(T) calculation:
   TCutMKN   ...     1.0e-03
   TCutDO    ...     1.0e-02
   TCutPairs ...     1.0e-04
   TCutCMO   ...     1.0e-03
   TCutCPAO  ...     1.0e-03

Time for aux screen maps:            0.066
Time for maps after fine MP2:            0.306
-----------------------------
LOCAL RI TRANSFORMATION (IJV)
-----------------------------

Orbital window:      54 to 197
Basis functions:   1956 (684 shells)
Aux. functions:    5094 (1482 shells)
Use SHARK:           on

Processing maps (0.0 sec)
Average map sizes:
   Aux shells -> MOs(i)           46.0
   Aux shells -> MOs(j)          143.7
   MOs        -> AO shells       359.3

Calculating integrals (6.4 sec, 258.382 MB)
Sorting integrals (0.7 sec, 225.553 MB)
Total time for the integral transformation: 7.2 sec
--------------------------------
LOCAL RI TRANSFORMATION (VABPAO)
--------------------------------

Number of PAOs:    1956
Basis functions:   1956 (684 shells)
Aux. functions:    5094 (1482 shells)
Use SHARK:           on

Processing maps (0.0 sec)
Average map sizes:
   Aux shells -> PAOs           1071.9
   PAOs       -> AO shells       496.2

Calculating integrals (61.4 sec, 51669.816 MB)
Finished


-------------------------------------
Pair Pair Term precalculation with     
RI-(ij|mn) and (im|jn) transformation  
ON THE FLY                             
-------------------------------------

   IBatch   1 (of   2)              ... done (  132.739 sec)
   IBatch   2 (of   2)              ... done (  242.268 sec)
Total EXT                           ...         375.007 sec

---------------------
RI-PNO TRANSFORMATION
---------------------

Total Number of PNOs                   ... 48579
Average number of PNOs per pair        ...    29
Maximal number of PNOs per pair        ...    82
   #pairs with  1 -  5 PNOs   :    0
   #pairs with  6 - 10 PNOs   :   87
   #pairs with 11 - 15 PNOs   :  299
   #pairs with 16 - 20 PNOs   :  222
   #pairs with 21 - 25 PNOs   :  184
   #pairs with 26 - 30 PNOs   :  137
   #pairs with 31 - 35 PNOs   :  239
   #pairs with 36 - 40 PNOs   :  134
   #pairs with 41 - 45 PNOs   :   85
   #pairs with 46 - 50 PNOs   :   81
   #pairs with 51 - 55 PNOs   :   63
   #pairs with 56 - 60 PNOs   :   44
   #pairs with 61 - 65 PNOs   :   22
   #pairs with 66 - 70 PNOs   :    2
   #pairs with 71 - 75 PNOs   :   48
   #pairs with 76 - 80 PNOs   :    9
   #pairs with 81 - 85 PNOs   :    3

Generation of (ij|ab)[P] integrals            ... on
Generation of (ia|bc)[P],(ja|bc)[P] integrals ... on
Storage of 3 and 4 external integrals         ... on
Generation of ALL (ka|bc)[P] integrals        ... on
Keep RI integrals in memory                   ... off

Ibatch:  1 (of  1)
Starting 2-4 index PNO integral generation ... done

Timings:
Total PNO integral transformation time     ...        524.198 sec
Size of the 3-external file                ...       677 MB
Size of the 4-external file                ...      4614 MB
Size of the IKJL file                      ...         0 MB
Size of the all 3-external file            ...     21825 MB
Size of the 1-external file                ...        71 MB

Making pair/pair overlap matrices          ... done (   29.210 sec)
Size of the pair overlap file              ... 6867 MB
Redoing the guess amplitudes               ... done (    0.117 sec)

-------------------------
FINAL STARTUP INFORMATION
-------------------------

E(0)                                       ...  -3020.879586544
E(SL-MP2)                                  ...     -9.607487396
E(SL-MP2) including corrections            ...     -9.614558673
Initial E(tot)                             ...  -3030.494145217
<T|T>                                      ...      2.340026148
Number of pairs included                   ... 1659
Total number of pairs                      ... 10440

------------------------------------------------
                  RHF COUPLED CLUSTER ITERATIONS
------------------------------------------------

Number of PNO amplitudes to be optimized   ...      1861491
Number of non-PNO amplitudes               ...   5127245676
Untruncated number of regular amplitudes   ...  32265488160

Iter       E(tot)           E(Corr)          Delta-E          Residual     Time
  0  -3030.494514347     -9.536321812      0.071165583      0.020073607  481.17
                           *** Turning on DIIS ***
  1  -3030.702499852     -9.744307317     -0.207985505      0.012890317  488.07
  2  -3030.910601969     -9.952409434     -0.208102117      0.005642234  465.03
  3  -3030.952556608     -9.994364073     -0.041954639      0.003405795  475.01
  4  -3030.966039222    -10.007846687     -0.013482614      0.001606303  443.58
  5  -3030.970151612    -10.011959077     -0.004112390      0.000789749  371.81
  6  -3030.971146967    -10.012954433     -0.000995356      0.000401841  367.44
  7  -3030.971354371    -10.013161837     -0.000207404      0.000251387  243.24
  8  -3030.971459606    -10.013267071     -0.000105235      0.000147866  166.86
  9  -3030.971401141    -10.013208606      0.000058465      0.000070404  168.07
 10  -3030.971426279    -10.013233744     -0.000025138      0.000025142  160.57
 11  -3030.971416742    -10.013224208      0.000009537      0.000008294  158.73
               --- The Coupled-Cluster iterations have converged ---

----------------------
COUPLED CLUSTER ENERGY
----------------------

E(0)                                       ...  -3020.879586544
E(CORR)(strong-pairs)                      ...    -10.013224208
E(CORR)(weak-pairs)                        ...     -0.078605991
E(CORR)(corrected)                         ...    -10.091830198
E(TOT)                                     ...  -3030.971416742
Singles Norm <S|S>**1/2                    ...      0.200829095  
T1 diagnostic                              ...      0.011833968  

------------------
LARGEST AMPLITUDES
------------------
 193->198 193->198       0.053098
 195->198 195->198       0.053086
 188->198 188->198       0.053041
 197->198 197->198       0.053035
 191->198 191->198       0.053021
 189->198 189->198       0.052991
 186->198 186->198       0.052984
 192->198 192->198       0.052978
 190->198 190->198       0.052966
 187->198 187->198       0.052952
 194->198 194->198       0.052946
 196->198 196->198       0.052887
 111->198 111->198       0.051642
 101->198 101->198       0.050822
 100->198 100->198       0.049261
  99->198  99->198       0.048578


-------------------------------------------
DLPNO BASED TRIPLES CORRECTION
-------------------------------------------

Singles multiplier          ...  1.000000
TCutTNO                     ... 1.000e-09
TCutMP2Pairs                ... 1.000e-05
TCutDOStrong                ... 2.000e-02
TCutMKNStrong               ... 1.000e-02
TCutDOWeak                  ... 4.000e-02
TCutMKNWeak                 ... 1.000e-01

Fragment selection                          .... not used
Fock matrix occ-virt block is zero --> Setting DT_in_Triples to false.
Number of Triples that are to be computed   ...     18167

 . . . . . . . . .
10% done  
20% done  
30% done               (    287.343 sec)
 . . . . . . . . .
40% done  
50% done  
60% done  
70% done  
80% done  
90% done               (    374.715 sec)
Triples timings:
Total time for T0               ...   708.581 sec
Total time for Iterative (T)    ...     0.000 sec
Total time of overall (T)       ...   845.266 sec

Triples List generation         ...     0.000 sec
TNO generation                  ...    39.869 sec
Pair density generation         ...     6.068 sec
Look up tables                  ...     0.001 sec
Generating 3-index integrals    ...   545.528 sec
  Make 4-ind.int. from 3-ind.int...    15.105 sec
  Projecting amplitudes (D + S) ...    83.370 sec
  Downprojecting integrals      ...     0.002 sec
  Energy contr. (sum over a,b,c)...     3.160 sec
Fitting ET(->0)                 ...     0.000 sec

Everything after 3-index        ...   116.530 sec

Timing details:
 TNO integrals                  ...   558.894 sec
   Reading 3-index integrals    ...   259.490 sec
   Sorting integrals            ...    56.016 sec
       Sorting integrals 1      ...     0.003 sec
       Sorting integrals 2      ...    51.682 sec
       Sorting integrals 3      ...     0.753 sec
       Sorting integrals 4      ...     0.131 sec
       Sorting integrals 5      ...     0.681 sec
       Sorting integrals 6      ...     2.766 sec
   Calculating local VM**-1/2   ...     0.842 sec
   Orthogonal. integrals        ...     1.542 sec
   Multipl. 3-index integrals   ...   241.005 sec
   All concerning IRIab (w/TNO) ...     9.235 sec

 Calculate W0/W1                ...    14.887 sec
 W 3-ext contribution           ...     8.042 sec
 W 3-int contribution           ...     3.591 sec
 Sorting W                      ...     3.011 sec

 V exchange contribution        ...     1.293 sec

 Timings for Triples without generation
     of 3-index integrals       ...   116.527 sec
       0 weak pairs             ...    82.050 sec
       1 weak pair              ...    34.477 sec
       2 weak pairs             ...     0.000 sec
       3 weak pairs             ...     0.000 sec
  Extra time for extrapolation  ...     0.000 sec

Number of Triples   (0, 1, 2, 3 weak pairs; overall):  10624    7543       0       0  ( 18167)
Number of Atoms     (0, 1, 2, 3 weak pairs; overall):   15.2    13.9     0.0     0.0  (    78)
Number of PAOs      (0, 1, 2, 3 weak pairs; overall):  398.1   379.0     0.0     0.0  (  1956)
Number of AuxFcns   (0, 1, 2, 3 weak pairs; overall):  462.9   394.8     0.0     0.0  (  5094)
Number of TNOs      (0, 1, 2, 3 weak pairs         ):   80.1    57.6     0.0     0.0
Aver. Number of NTNO, Atoms, PAOs, AuxFcns / Triples:  18167    70.8    14.6   390.2   434.6

Triples Correction (T)                     ...     -0.425686437
Final correlation energy                   ...    -10.517516635
E(CCSD)                                    ...  -3030.971416742
E(CCSD(T))                                 ...  -3031.397103179



--------------------------------------------------------------------------------
                                    TIMINGS
--------------------------------------------------------------------------------


Total execution time                   ...     6806.978 sec

Localization of occupied MO's          ...       49.186 sec (  0.7%)
Fock Matrix Formation                  ...      119.355 sec (  1.8%)
Global overlap, Fock, MKN matrices     ...       12.866 sec (  0.2%)
Differential overlap integrals         ...       47.856 sec (  0.7%)
Organizing maps                        ...        0.902 sec (  0.0%)
RI 3-index integral generations        ...      155.120 sec (  2.3%)
RI-PNO integral transformation         ...     1256.789 sec ( 18.5%)
Initial Guess                          ...      323.628 sec (  4.8%)
DIIS Solver                            ...       27.010 sec (  0.4%)
State Vector Update                    ...        0.284 sec (  0.0%)
Sigma-vector construction              ...     3962.288 sec ( 58.2%)
  <D|H|D>(0-ext)                       ...      629.417 sec ( 15.9% of sigma)
  <D|H|D>(2-ext Fock)                  ...        0.924 sec (  0.0% of sigma)
  <D|H|D>(2-ext)                       ...       86.955 sec (  2.2% of sigma)
  <D|H|D>(4-ext)                       ...       15.588 sec (  0.4% of sigma)
  <D|H|D>(4-ext-corr)                  ...       73.210 sec (  1.8% of sigma)
  CCSD doubles correction              ...       23.267 sec (  0.6% of sigma)
  <S|H|S>                              ...       73.705 sec (  1.9% of sigma)
  <S|H|D>(1-ext)                       ...        1.769 sec (  0.0% of sigma)
  <D|H|S>(1-ext)                       ...        0.480 sec (  0.0% of sigma)
  <S|H|D>(3-ext)                       ...        6.332 sec (  0.2% of sigma)
  CCSD singles correction              ...        0.001 sec (  0.0% of sigma)
  Fock-dressing                        ...     1322.762 sec ( 33.4% of sigma)
  Singles amplitudes                   ...      275.634 sec (  7.0% of sigma)
  (ik|jl)-dressing                     ...     1117.266 sec ( 28.2% of sigma)
  (ij|ab),(ia|jb)-dressing             ...      157.897 sec (  4.0% of sigma)
  Pair energies                        ...        0.065 sec (  0.0% of sigma)
Total Time for computing (T)           ...      845.317 sec ( 12.4% of ALL)


Maximum memory used throughout the entire MDCI-calculation: 3638.7 MB

-------------------
EXTRAPOLATED ENERGY
-------------------

NOTE: In case the method needs a correlation auxilliary basis set, for the calculation
      with the cc-pVDZ basis set, we will use the corresponding triple zeta auxilliary basis set.

-----------------------------------------------------------------
                      EP1 - MDCI extrapolation:
-----------------------------------------------------------------
NOTE: We use as reference SCF energy, for the extrapolation, the one from the MDCI module and not the one 
from the SCF calculation. In case the first step is a DFT calculation these two might be different.

NOTE: For the SCF part we extrapolate based on the scheme proposed in J. Chem. Phys. 2008, 129, 184116
using the exponents from J. Chem. Theory Comput., 7, 33-43 (2011)

NOTE: For the correlation part we extrapolate based on the scheme proposed in J. Chem. Phys. 1997, 106, 9639
using the exponents from J. Chem. Theory Comput., 7, 33-43 (2011)


Alpha(2/3)     :  4.420 (SCF Extrapolation)
Beta(2/3)      :  2.460 (correlation extrapolation)

SCF energy with basis cc-pVDZ:                        -3020.011260053
SCF energy with basis cc-pVTZ:                        -3020.879586544
Extrapolated CBS SCF energy (2/3) :                   -3021.161980416 (-0.282393872) 

MDCI energy with basis cc-pVDZ:                          -8.416593455
MDCI energy with basis cc-pVTZ:                         -10.517516635
Extrapolated CBS correlation energy (2/3) :             -11.745162353 (-1.227645718)

Estimated CBS total energy (2/3) :                    -3032.907142769



-------------------------   --------------------
FINAL SINGLE POINT ENERGY     -3032.907142768820
-------------------------   --------------------


                            ***************************************
                            *     ORCA property calculations      *
                            ***************************************


  WARNING: The energy has been calculated at the MDCI level but the densities
           used in the property calculations are still SCF densities
           MDCI response densities have not been calculated 
           use %mdci Density linearized end
           or  %mdci Density unrelaxed end
           or  %mdci Density orbopt end

                                    ---------------------
                                    Active property flags
                                    ---------------------



Timings for individual modules:

Sum of individual times         ...    12649.229 sec (= 210.820 min)
GTO integral calculation        ...       50.197 sec (=   0.837 min)   0.4 %
SCF iterations                  ...     1815.751 sec (=  30.263 min)  14.4 %
MDCI module                     ...    10783.281 sec (= 179.721 min)  85.2 %
                             ****ORCA TERMINATED NORMALLY****
TOTAL RUN TIME: 0 days 3 hours 31 minutes 10 seconds 579 msec
