
                                 *****************
                                 * O   R   C   A *
                                 *****************

                                            #,                                       
                                            ###                                      
                                            ####                                     
                                            #####                                    
                                            ######                                   
                                           ########,                                 
                                     ,,################,,,,,                         
                               ,,#################################,,                 
                          ,,##########################################,,             
                       ,#########################################, ''#####,          
                    ,#############################################,,   '####,        
                  ,##################################################,,,,####,       
                ,###########''''           ''''###############################       
              ,#####''   ,,,,##########,,,,          '''####'''          '####       
            ,##' ,,,,###########################,,,                        '##       
           ' ,,###''''                  '''############,,,                           
         ,,##''                                '''############,,,,        ,,,,,,###''
      ,#''                                            '''#######################'''  
     '                                                          ''''####''''         
             ,#######,   #######,   ,#######,      ##                                
            ,#'     '#,  ##    ##  ,#'     '#,    #''#        ######   ,####,        
            ##       ##  ##   ,#'  ##            #'  '#       #        #'  '#        
            ##       ##  #######   ##           ,######,      #####,   #    #        
            '#,     ,#'  ##    ##  '#,     ,#' ,#      #,         ##   #,  ,#        
             '#######'   ##     ##  '#######'  #'      '#     #####' # '####'        



                  #######################################################
                  #                        -***-                        #
                  #          Department of theory and spectroscopy      #
                  #    Directorship and core code : Frank Neese         #
                  #        Max Planck Institute fuer Kohlenforschung    #
                  #                Kaiser Wilhelm Platz 1               #
                  #                 D-45470 Muelheim/Ruhr               #
                  #                      Germany                        #
                  #                                                     #
                  #                  All rights reserved                #
                  #                        -***-                        #
                  #######################################################


                         Program Version 5.0.4 -  RELEASE  -


 With contributions from (in alphabetic order):
   Daniel Aravena         : Magnetic Suceptibility
   Michael Atanasov       : Ab Initio Ligand Field Theory (pilot matlab implementation)
   Alexander A. Auer      : GIAO ZORA, VPT2 properties, NMR spectrum
   Ute Becker             : Parallelization
   Giovanni Bistoni       : ED, misc. LED, open-shell LED, HFLD
   Martin Brehm           : Molecular dynamics
   Dmytro Bykov           : SCF Hessian
   Vijay G. Chilkuri      : MRCI spin determinant printing, contributions to CSF-ICE
   Dipayan Datta          : RHF DLPNO-CCSD density
   Achintya Kumar Dutta   : EOM-CC, STEOM-CC
   Dmitry Ganyushin       : Spin-Orbit,Spin-Spin,Magnetic field MRCI
   Miquel Garcia          : C-PCM and meta-GGA Hessian, CC/C-PCM, Gaussian charge scheme
   Yang Guo               : DLPNO-NEVPT2, F12-NEVPT2, CIM, IAO-localization
   Andreas Hansen         : Spin unrestricted coupled pair/coupled cluster methods
   Benjamin Helmich-Paris : MC-RPA, TRAH-SCF, COSX integrals
   Lee Huntington         : MR-EOM, pCC
   Robert Izsak           : Overlap fitted RIJCOSX, COSX-SCS-MP3, EOM
   Marcus Kettner         : VPT2
   Christian Kollmar      : KDIIS, OOCD, Brueckner-CCSD(T), CCSD density, CASPT2, CASPT2-K
   Simone Kossmann        : Meta GGA functionals, TD-DFT gradient, OOMP2, MP2 Hessian
   Martin Krupicka        : Initial AUTO-CI
   Lucas Lang             : DCDCAS
   Marvin Lechner         : AUTO-CI (C++ implementation), FIC-MRCC
   Dagmar Lenk            : GEPOL surface, SMD
   Dimitrios Liakos       : Extrapolation schemes; Compound Job, initial MDCI parallelization
   Dimitrios Manganas     : Further ROCIS development; embedding schemes
   Dimitrios Pantazis     : SARC Basis sets
   Anastasios Papadopoulos: AUTO-CI, single reference methods and gradients
   Taras Petrenko         : DFT Hessian,TD-DFT gradient, ASA, ECA, R-Raman, ABS, FL, XAS/XES, NRVS
   Peter Pinski           : DLPNO-MP2, DLPNO-MP2 Gradient
   Christoph Reimann      : Effective Core Potentials
   Marius Retegan         : Local ZFS, SOC
   Christoph Riplinger    : Optimizer, TS searches, QM/MM, DLPNO-CCSD(T), (RO)-DLPNO pert. Triples
   Tobias Risthaus        : Range-separated hybrids, TD-DFT gradient, RPA, STAB
   Michael Roemelt        : Original ROCIS implementation
   Masaaki Saitow         : Open-shell DLPNO-CCSD energy and density
   Barbara Sandhoefer     : DKH picture change effects
   Avijit Sen             : IP-ROCIS
   Kantharuban Sivalingam : CASSCF convergence, NEVPT2, FIC-MRCI
   Bernardo de Souza      : ESD, SOC TD-DFT
   Georgi Stoychev        : AutoAux, RI-MP2 NMR, DLPNO-MP2 response
   Willem Van den Heuvel  : Paramagnetic NMR
   Boris Wezisla          : Elementary symmetry handling
   Frank Wennmohs         : Technical directorship


 We gratefully acknowledge several colleagues who have allowed us to
 interface, adapt or use parts of their codes:
   Stefan Grimme, W. Hujo, H. Kruse, P. Pracht,  : VdW corrections, initial TS optimization,
                  C. Bannwarth, S. Ehlert          DFT functionals, gCP, sTDA/sTD-DF
   Ed Valeev, F. Pavosevic, A. Kumar             : LibInt (2-el integral package), F12 methods
   Garnet Chan, S. Sharma, J. Yang, R. Olivares  : DMRG
   Ulf Ekstrom                                   : XCFun DFT Library
   Mihaly Kallay                                 : mrcc  (arbitrary order and MRCC methods)
   Jiri Pittner, Ondrej Demel                    : Mk-CCSD
   Frank Weinhold                                : gennbo (NPA and NBO analysis)
   Christopher J. Cramer and Donald G. Truhlar   : smd solvation model
   Lars Goerigk                                  : TD-DFT with DH, B97 family of functionals
   V. Asgeirsson, H. Jonsson                     : NEB implementation
   FAccTs GmbH                                   : IRC, NEB, NEB-TS, DLPNO-Multilevel, CI-OPT
                                                   MM, QMMM, 2- and 3-layer-ONIOM, Crystal-QMMM,
                                                   LR-CPCM, SF, NACMEs, symmetry and pop. for TD-DFT,
                                                   nearIR, NL-DFT gradient (VV10), updates on ESD,
                                                   ML-optimized integration grids
   S Lehtola, MJT Oliveira, MAL Marques          : LibXC Library
   Liviu Ungur et al                             : ANISO software


 Your calculation uses the libint2 library for the computation of 2-el integrals
 For citations please refer to: http://libint.valeyev.net

 Your ORCA version has been built with support for libXC version: 5.1.0
 For citations please refer to: https://tddft.org/programs/libxc/

 This ORCA versions uses:
   CBLAS   interface :  Fast vector & matrix operations
   LAPACKE interface :  Fast linear algebra routines
   SCALAPACK package :  Parallel linear algebra routines
   Shared memory     :  Shared parallel matrices
   BLAS/LAPACK       :  OpenBLAS 0.3.15  USE64BITINT DYNAMIC_ARCH NO_AFFINITY Zen SINGLE_THREADED
        Core in use  :  Zen
   Copyright (c) 2011-2014, The OpenBLAS Project


================================================================================

----- Orbital basis set information -----
Your calculation utilizes the basis: def2-SVP
   F. Weigend and R. Ahlrichs, Phys. Chem. Chem. Phys. 7, 3297 (2005).

================================================================================
                                        WARNINGS
                       Please study these warnings very carefully!
================================================================================


WARNING: MOInp is set but Guess=PModel. MOInp will be ignored!
         To read the initial guess from a file you must also specify
         'MORead' in the simple input or 'Guess MORead' in the %scf block


INFO   : the flag for use of the SHARK integral package has been found!

================================================================================
                                       INPUT FILE
================================================================================
NAME = udc3_ts1_c15_sp_hirshfeld.inp
|  1> ! Hirshfeld
|  2> %moinp "udc3_ts1_c15_sp.gbw"
|  3> # Number of processors
|  4> %pal nprocs 64 end
|  5> # Memory per core
|  6> %maxcore 3600
|  7> * xyz 0 1
|  8> O         0.008639        1.249768        0.212313
|  9> O        -0.921320       -0.755174        0.675536
| 10> O         1.699758       -0.199956       -0.136433
| 11> C        -0.805328        0.417412        0.906358
| 12> C         0.978487        0.714769       -0.652299
| 13> O         0.812425       -2.006239       -1.531907
| 14> O        -0.024176        0.053956       -1.792922
| 15> O         2.839943       -1.043548       -2.203707
| 16> C        -0.106709       -1.204809       -1.876691
| 17> C         2.288902       -1.478958       -1.245852
| 18> C         2.831744       -2.420687       -0.220613
| 19> C         4.130812       -2.887058       -0.405634
| 20> C         2.078919       -2.827710        0.882276
| 21> C         4.681959       -3.774471        0.516234
| 22> H         4.695217       -2.548660       -1.275613
| 23> C         2.636355       -3.713095        1.796853
| 24> H         1.069053       -2.434396        1.011445
| 25> C         3.937471       -4.199866        1.618569
| 26> H         5.701530       -4.139981        0.378946
| 27> H         2.057933       -4.031287        2.666462
| 28> C         1.615887        1.846606       -1.413000
| 29> C         0.833036        2.850627       -1.989053
| 30> C         3.003162        1.893519       -1.513988
| 31> C         1.442456        3.891935       -2.677277
| 32> H        -0.253083        2.808264       -1.895934
| 33> C         3.608605        2.942404       -2.203412
| 34> H         3.596578        1.103648       -1.055089
| 35> C         2.836933        3.942839       -2.796344
| 36> H         0.833934        4.679310       -3.126350
| 37> H         4.696786        2.982582       -2.280799
| 38> C        -1.347948       -1.788732       -2.432022
| 39> C        -1.412098       -3.159169       -2.700103
| 40> C        -2.451601       -0.966463       -2.676620
| 41> C        -2.581376       -3.701909       -3.219488
| 42> H        -0.542414       -3.784283       -2.497611
| 43> C        -3.617228       -1.518394       -3.193738
| 44> H        -2.383902        0.098823       -2.456016
| 45> C        -3.688989       -2.886827       -3.477286
| 46> H        -2.639019       -4.771841       -3.427161
| 47> H        -4.485131       -0.883060       -3.378860
| 48> C        -1.565190        1.144344        1.961857
| 49> C        -2.527490        0.428927        2.680575
| 50> C        -1.339466        2.495265        2.241743
| 51> C        -3.261109        1.063443        3.675520
| 52> H        -2.685276       -0.623699        2.442663
| 53> C        -2.076068        3.122497        3.241366
| 54> H        -0.586554        3.044619        1.677061
| 55> C        -3.036949        2.413167        3.968982
| 56> H        -4.018481        0.508690        4.232525
| 57> H        -1.904706        4.178048        3.460379
| 58> C        -3.866084        3.111119        5.015282
| 59> H        -4.195009        2.413490        5.797276
| 60> H        -3.304960        3.924028        5.495729
| 61> C        -5.113760        3.728107        4.423608
| 62> C         4.548238       -5.126082        2.638257
| 63> H         3.780860       -5.729772        3.141605
| 64> H         5.272063       -5.811236        2.176106
| 65> C         5.289690       -4.372695        3.718968
| 66> C         3.496652        5.097816       -3.504090
| 67> H         4.473124        4.809463       -3.916183
| 68> H         2.875217        5.471158       -4.329619
| 69> C         3.740679        6.267183       -2.577878
| 70> C        -4.968819       -3.487354       -3.996976
| 71> H        -5.534895       -2.764576       -4.599873
| 72> H        -4.773491       -4.372506       -4.617179
| 73> C        -5.878401       -3.929937       -2.871948
| 74> F        -5.295863       -4.854506       -2.107185
| 75> F        -7.006278       -4.455760       -3.351392
| 76> F        -6.213513       -2.907754       -2.083427
| 77> F        -4.816827        4.638854        3.494956
| 78> F        -5.838213        4.335422        5.364857
| 79> F        -5.890700        2.807847        3.849723
| 80> F         6.294089       -3.652453        3.216206
| 81> F         5.811437       -5.215105        4.614845
| 82> F         4.485722       -3.536830        4.377518
| 83> F         2.600838        6.732952       -2.061688
| 84> F         4.534724        5.932574       -1.560124
| 85> F         4.325720        7.276552       -3.227598
| 86> *
| 87> 
| 88>                          ****END OF INPUT****
================================================================================

                       ****************************
                       * Single Point Calculation *
                       ****************************

---------------------------------
CARTESIAN COORDINATES (ANGSTROEM)
---------------------------------
  O      0.008639    1.249768    0.212313
  O     -0.921320   -0.755174    0.675536
  O      1.699758   -0.199956   -0.136433
  C     -0.805328    0.417412    0.906358
  C      0.978487    0.714769   -0.652299
  O      0.812425   -2.006239   -1.531907
  O     -0.024176    0.053956   -1.792922
  O      2.839943   -1.043548   -2.203707
  C     -0.106709   -1.204809   -1.876691
  C      2.288902   -1.478958   -1.245852
  C      2.831744   -2.420687   -0.220613
  C      4.130812   -2.887058   -0.405634
  C      2.078919   -2.827710    0.882276
  C      4.681959   -3.774471    0.516234
  H      4.695217   -2.548660   -1.275613
  C      2.636355   -3.713095    1.796853
  H      1.069053   -2.434396    1.011445
  C      3.937471   -4.199866    1.618569
  H      5.701530   -4.139981    0.378946
  H      2.057933   -4.031287    2.666462
  C      1.615887    1.846606   -1.413000
  C      0.833036    2.850627   -1.989053
  C      3.003162    1.893519   -1.513988
  C      1.442456    3.891935   -2.677277
  H     -0.253083    2.808264   -1.895934
  C      3.608605    2.942404   -2.203412
  H      3.596578    1.103648   -1.055089
  C      2.836933    3.942839   -2.796344
  H      0.833934    4.679310   -3.126350
  H      4.696786    2.982582   -2.280799
  C     -1.347948   -1.788732   -2.432022
  C     -1.412098   -3.159169   -2.700103
  C     -2.451601   -0.966463   -2.676620
  C     -2.581376   -3.701909   -3.219488
  H     -0.542414   -3.784283   -2.497611
  C     -3.617228   -1.518394   -3.193738
  H     -2.383902    0.098823   -2.456016
  C     -3.688989   -2.886827   -3.477286
  H     -2.639019   -4.771841   -3.427161
  H     -4.485131   -0.883060   -3.378860
  C     -1.565190    1.144344    1.961857
  C     -2.527490    0.428927    2.680575
  C     -1.339466    2.495265    2.241743
  C     -3.261109    1.063443    3.675520
  H     -2.685276   -0.623699    2.442663
  C     -2.076068    3.122497    3.241366
  H     -0.586554    3.044619    1.677061
  C     -3.036949    2.413167    3.968982
  H     -4.018481    0.508690    4.232525
  H     -1.904706    4.178048    3.460379
  C     -3.866084    3.111119    5.015282
  H     -4.195009    2.413490    5.797276
  H     -3.304960    3.924028    5.495729
  C     -5.113760    3.728107    4.423608
  C      4.548238   -5.126082    2.638257
  H      3.780860   -5.729772    3.141605
  H      5.272063   -5.811236    2.176106
  C      5.289690   -4.372695    3.718968
  C      3.496652    5.097816   -3.504090
  H      4.473124    4.809463   -3.916183
  H      2.875217    5.471158   -4.329619
  C      3.740679    6.267183   -2.577878
  C     -4.968819   -3.487354   -3.996976
  H     -5.534895   -2.764576   -4.599873
  H     -4.773491   -4.372506   -4.617179
  C     -5.878401   -3.929937   -2.871948
  F     -5.295863   -4.854506   -2.107185
  F     -7.006278   -4.455760   -3.351392
  F     -6.213513   -2.907754   -2.083427
  F     -4.816827    4.638854    3.494956
  F     -5.838213    4.335422    5.364857
  F     -5.890700    2.807847    3.849723
  F      6.294089   -3.652453    3.216206
  F      5.811437   -5.215105    4.614845
  F      4.485722   -3.536830    4.377518
  F      2.600838    6.732952   -2.061688
  F      4.534724    5.932574   -1.560124
  F      4.325720    7.276552   -3.227598

----------------------------
CARTESIAN COORDINATES (A.U.)
----------------------------
  NO LB      ZA    FRAG     MASS         X           Y           Z
   0 O     8.0000    0    15.999    0.016325    2.361719    0.401213
   1 O     8.0000    0    15.999   -1.741042   -1.427072    1.276578
   2 O     8.0000    0    15.999    3.212077   -0.377862   -0.257821
   3 C     6.0000    0    12.011   -1.521849    0.788794    1.712768
   4 C     6.0000    0    12.011    1.849072    1.350718   -1.232666
   5 O     8.0000    0    15.999    1.535261   -3.791242   -2.894885
   6 O     8.0000    0    15.999   -0.045686    0.101962   -3.388132
   7 O     8.0000    0    15.999    5.366715   -1.972020   -4.164403
   8 C     6.0000    0    12.011   -0.201651   -2.276759   -3.546432
   9 C     6.0000    0    12.011    4.325398   -2.794826   -2.354319
  10 C     6.0000    0    12.011    5.351221   -4.574435   -0.416898
  11 C     6.0000    0    12.011    7.806103   -5.455749   -0.766537
  12 C     6.0000    0    12.011    3.928588   -5.343597    1.667260
  13 C     6.0000    0    12.011    8.847620   -7.132716    0.975541
  14 H     1.0000    0     1.008    8.872674   -4.816269   -2.410559
  15 C     6.0000    0    12.011    4.981989   -7.016733    3.395560
  16 H     1.0000    0     1.008    2.020217   -4.600342    1.911354
  17 C     6.0000    0    12.011    7.440742   -7.936597    3.058652
  18 H     1.0000    0     1.008   10.774330   -7.823430    0.716104
  19 H     1.0000    0     1.008    3.888930   -7.618028    5.038883
  20 C     6.0000    0    12.011    3.053584    3.489580   -2.670183
  21 C     6.0000    0    12.011    1.574210    5.386904   -3.758765
  22 C     6.0000    0    12.011    5.675154    3.578232   -2.861023
  23 C     6.0000    0    12.011    2.725847    7.354691   -5.059320
  24 H     1.0000    0     1.008   -0.478258    5.306850   -3.582796
  25 C     6.0000    0    12.011    6.819275    5.560338   -4.163845
  26 H     1.0000    0     1.008    6.796547    2.085592   -1.993829
  27 C     6.0000    0    12.011    5.361026    7.450886   -5.284324
  28 H     1.0000    0     1.008    1.575907    8.842614   -5.907945
  29 H     1.0000    0     1.008    8.875639    5.636263   -4.310085
  30 C     6.0000    0    12.011   -2.547253   -3.380214   -4.595856
  31 C     6.0000    0    12.011   -2.668478   -5.969964   -5.102455
  32 C     6.0000    0    12.011   -4.632854   -1.826350   -5.058079
  33 C     6.0000    0    12.011   -4.878094   -6.995594   -6.083951
  34 H     1.0000    0     1.008   -1.025014   -7.151258   -4.719801
  35 C     6.0000    0    12.011   -6.835570   -2.869349   -6.035290
  36 H     1.0000    0     1.008   -4.504922    0.186748   -4.641198
  37 C     6.0000    0    12.011   -6.971179   -5.455312   -6.571118
  38 H     1.0000    0     1.008   -4.987023   -9.017473   -6.476396
  39 H     1.0000    0     1.008   -8.475669   -1.668742   -6.385120
  40 C     6.0000    0    12.011   -2.957780    2.162497    3.707372
  41 C     6.0000    0    12.011   -4.776264    0.810555    5.065553
  42 C     6.0000    0    12.011   -2.531224    4.715367    4.236280
  43 C     6.0000    0    12.011   -6.162603    2.009616    6.945726
  44 H     1.0000    0     1.008   -5.074436   -1.178620    4.615964
  45 C     6.0000    0    12.011   -3.923200    5.900664    6.125294
  46 H     1.0000    0     1.008   -1.108426    5.753496    3.169186
  47 C     6.0000    0    12.011   -5.739002    4.560225    7.500289
  48 H     1.0000    0     1.008   -7.593829    0.961285    7.998313
  49 H     1.0000    0     1.008   -3.599373    7.895366    6.539169
  50 C     6.0000    0    12.011   -7.305840    5.879163    9.477509
  51 H     1.0000    0     1.008   -7.927418    4.560835   10.955264
  52 H     1.0000    0     1.008   -6.245469    7.415338   10.385423
  53 C     6.0000    0    12.011   -9.663606    7.045101    8.359408
  54 C     6.0000    0    12.011    8.594924   -9.686891    4.985583
  55 H     1.0000    0     1.008    7.144790  -10.827700    5.936773
  56 H     1.0000    0     1.008    9.962755  -10.981645    4.112244
  57 C     6.0000    0    12.011    9.996065   -8.263196    7.027831
  58 C     6.0000    0    12.011    6.607715    9.633476   -6.621770
  59 H     1.0000    0     1.008    8.452979    9.088568   -7.400513
  60 H     1.0000    0     1.008    5.433373   10.338990   -8.181794
  61 C     6.0000    0    12.011    7.068859   11.843260   -4.871483
  62 C     6.0000    0    12.011   -9.389707   -6.590144   -7.553190
  63 H     1.0000    0     1.008  -10.459436   -5.224292   -8.692500
  64 H     1.0000    0     1.008   -9.020591   -8.262839   -8.725204
  65 C     6.0000    0    12.011  -11.108568   -7.426505   -5.427195
  66 F     9.0000    0    18.998  -10.007731   -9.173687   -3.982003
  67 F     9.0000    0    18.998  -13.239947   -8.420166   -6.333213
  68 F     9.0000    0    18.998  -11.741838   -5.494859   -3.937106
  69 F     9.0000    0    18.998   -9.102484    8.766164    6.604510
  70 F     9.0000    0    18.998  -11.032624    8.192760   10.138110
  71 F     9.0000    0    18.998  -11.131810    5.306062    7.274922
  72 F     9.0000    0    18.998   11.894104   -6.902136    6.077749
  73 F     9.0000    0    18.998   10.982024   -9.855120    8.720793
  74 F     9.0000    0    18.998    8.476786   -6.683640    8.272310
  75 F     9.0000    0    18.998    4.914872   12.723435   -3.896026
  76 F     9.0000    0    18.998    8.569386   11.210940   -2.948207
  77 F     9.0000    0    18.998    8.174426   13.750690   -6.099276

--------------------------------
INTERNAL COORDINATES (ANGSTROEM)
--------------------------------
 O      0   0   0     0.000000000000     0.00000000     0.00000000
 O      1   0   0     2.258138993236     0.00000000     0.00000000
 O      1   2   0     2.254596842199    76.68651117     0.00000000
 C      2   1   3     1.200704321281    29.83864938   142.76200348
 C      3   1   2     1.273998198987    34.54340237   122.65293261
 O      3   1   2     2.448951982717   106.89576141    48.22880563
 O      5   3   1     1.656208845728   109.58077547   249.73502557
 O      6   3   1     2.342844092509    63.04795519   131.12726555
 C      7   5   3     1.264246125830   118.84332834     9.99214423
 C      8   6   3     1.187734925312    38.42878126    47.24491808
 C     10   8   6     1.494204120435   128.01288881   134.15353027
 C     11  10   8     1.392591953411   117.31014545   358.21779407
 C     11  10   8     1.395986156620   122.00041374   178.32452560
 C     12  11  10     1.393235607355   119.63145048   180.43698083
 H     12  11  10     1.090838975683   118.99459515     0.28695430
 C     13  11  10     1.389637571905   119.30125135   179.55585511
 H     13  11  10     1.091425614100   119.17042056   358.92243090
 C     14  12  11     1.396554954305   120.35839002     0.21698779
 H     14  12  11     1.091774051297   119.96439166   180.27929125
 H     16  13  11     1.091804914730   119.82603392   179.54466909
 C      5   3   1     1.505323807681   120.31482336   132.08279978
 C     21   5   3     1.397408642971   120.75225449   179.63214685
 C     21   5   3     1.391736803903   118.95265121   358.43234438
 C     22  21   5     1.389016688683   119.80766060   179.46556231
 H     22  21   5     1.090926328443   119.64734381   359.32915691
 C     23  21   5     1.393566080690   119.62571762   180.64693161
 H     23  21   5     1.089324119763   119.20917150     0.96088255
 C     26  23  21     1.395677692533   120.62908099   359.80070201
 H     24  22  21     1.091753165527   119.99500662   180.15534301
 H     26  23  21     1.091668863811   119.72508835   179.79804350
 C      9   7   5     1.479875955819   118.19570309   154.31278470
 C     31   9   7     1.397884192639   119.82046753   171.81963318
 C     31   9   7     1.397857086534   119.72089126   351.40049258
 C     32  31   9     1.389798016659   119.54637847   179.89276170
 H     32  31   9     1.090009533406   119.34008081   359.89485215
 C     33  31   9     1.389505364442   119.58982089   180.22189563
 H     33  31   9     1.089992450072   119.37017210     0.09198041
 C     34  32  31     1.399151540505   120.48969607     0.14730034
 H     34  32  31     1.091423508544   119.89227045   180.24458261
 H     36  33  31     1.091409668204   119.93287221   179.47797051
 C      4   2   1     1.489932391308   124.29048452   178.13755440
 C     41   4   2     1.397997974753   117.74760289   356.37911490
 C     41   4   2     1.397953878142   122.07080793   176.32785165
 C     42  41   4     1.389504567982   119.85843876   179.95752253
 H     42  41   4     1.090651198787   118.77294372   359.90079953
 C     43  41   4     1.391132139790   119.60897337   180.18426472
 H     43  41   4     1.089739445090   119.66766672     0.00000000
 C     46  43  41     1.398522930994   120.59516335     0.12535618
 H     44  42  41     1.091612480424   119.97435215   179.51785864
 H     46  43  41     1.091567470573   119.80513064   180.19743533
 C     48  46  43     1.506434709016   120.29987184   182.24556444
 H     51  48  46     1.098359000192   111.41058662   207.32075332
 H     51  48  46     1.098412720914   111.43937961   328.22426802
 C     51  48  46     1.512431061370   111.79823400    87.78388711
 C     18  14  12     1.506876247171   120.35017970   181.89766859
 H     55  18  14     1.098485238903   111.39042240   206.80021616
 H     55  18  14     1.098609203103   111.45195128   327.59440063
 C     55  18  14     1.511714029039   112.10046943    87.19759568
 C     28  26  23     1.506686905102   120.46083707   178.09432345
 H     59  28  26     1.098392306984   111.36157365    28.57475872
 H     59  28  26     1.098664570299   111.45567645   149.34117825
 C     59  28  26     1.511567737934   112.07890247   268.96691219
 C     38  34  32     1.506212203751   120.26226669   182.04051967
 H     63  38  34     1.098332767275   111.40480294   208.21805488
 H     63  38  34     1.098316371496   111.41002841   329.12871058
 C     63  38  34     1.512913456678   111.77200663    88.68418997
 F     66  63  38     1.333806883838   111.50417487   299.73375442
 F     66  63  38     1.333590230766   110.88395287   179.86795278
 F     66  63  38     1.333762912018   111.49902902    60.00305811
 F     54  51  48     1.334175341401   111.54148554   299.55610581
 F     54  51  48     1.334021490994   110.95825342   179.69043245
 F     54  51  48     1.334113272712   111.54955377    59.81387938
 F     58  55  18     1.334292141328   111.64466839   299.22201459
 F     58  55  18     1.335840611465   110.89920485   179.48792121
 F     58  55  18     1.333687724225   111.69577324    59.68726663
 F     62  59  28     1.335151820110   111.65086274   299.69592207
 F     62  59  28     1.333526846157   111.69507932    60.10996370
 F     62  59  28     1.335378159265   110.93735601   179.98174973

---------------------------
INTERNAL COORDINATES (A.U.)
---------------------------
 O      0   0   0     0.000000000000     0.00000000     0.00000000
 O      1   0   0     4.267264269545     0.00000000     0.00000000
 O      1   2   0     4.260570574159    76.68651117     0.00000000
 C      2   1   3     2.269002335038    29.83864938   142.76200348
 C      3   1   2     2.407507691194    34.54340237   122.65293261
 O      3   1   2     4.627848562459   106.89576141    48.22880563
 O      5   3   1     3.129781139003   109.58077547   249.73502557
 O      6   3   1     4.427333709318    63.04795519   131.12726555
 C      7   5   3     2.389078943689   118.84332834     9.99214423
 C      8   6   3     2.244493728533    38.42878126    47.24491808
 C     10   8   6     2.823636575800   128.01288881   134.15353027
 C     11  10   8     2.631617408250   117.31014545   358.21779407
 C     11  10   8     2.638031522757   122.00041374   178.32452560
 C     12  11  10     2.632833737928   119.63145048   180.43698083
 H     12  11  10     2.061386920249   118.99459515     0.28695430
 C     13  11  10     2.626034436308   119.30125135   179.55585511
 H     13  11  10     2.062495506195   119.17042056   358.92243090
 C     14  12  11     2.639106394607   120.35839002     0.21698779
 H     14  12  11     2.063153957073   119.96439166   180.27929125
 H     16  13  11     2.063212280509   119.82603392   179.54466909
 C      5   3   1     2.844649739388   120.31482336   132.08279978
 C     21   5   3     2.640719632390   120.75225449   179.63214685
 C     21   5   3     2.630001409875   118.95265121   358.43234438
 C     22  21   5     2.624861137057   119.80766060   179.46556231
 H     22  21   5     2.061551993042   119.64734381   359.32915691
 C     23  21   5     2.633458242026   119.62571762   180.64693161
 H     23  21   5     2.058524257427   119.20917150     0.96088255
 C     26  23  21     2.637448610110   120.62908099   359.80070201
 H     24  22  21     2.063114488687   119.99500662   180.15534301
 H     26  23  21     2.062955181531   119.72508835   179.79804350
 C      9   7   5     2.796560268673   118.19570309   154.31278470
 C     31   9   7     2.641618291025   119.82046753   171.81963318
 C     31   9   7     2.641567067911   119.72089126   351.40049258
 C     32  31   9     2.626337632952   119.54637847   179.89276170
 H     32  31   9     2.059819501501   119.34008081   359.89485215
 C     33  31   9     2.625784600410   119.58982089   180.22189563
 H     33  31   9     2.059787218677   119.37017210     0.09198041
 C     34  32  31     2.644013231408   120.48969607     0.14730034
 H     34  32  31     2.062491527271   119.89227045   180.24458261
 H     36  33  31     2.062465372819   119.93287221   179.47797051
 C      4   2   1     2.815564177631   124.29048452   178.13755440
 C     41   4   2     2.641833308059   117.74760289   356.37911490
 C     41   4   2     2.641749977542   122.07080793   176.32785165
 C     42  41   4     2.625783095318   119.85843876   179.95752253
 H     42  41   4     2.061032073341   118.77294372   359.90079953
 C     43  41   4     2.628858760299   119.60897337   180.18426472
 H     43  41   4     2.059309108550   119.66766672     0.00000000
 C     46  43  41     2.642825331588   120.59516335     0.12535618
 H     44  42  41     2.062848632372   119.97435215   179.51785864
 H     46  43  41     2.062763576081   119.80513064   180.19743533
 C     48  46  43     2.846749038674   120.29987184   182.24556444
 H     51  48  46     2.075597707090   111.41058662   207.32075332
 H     51  48  46     2.075699224543   111.43937961   328.22426802
 C     51  48  46     2.858080502425   111.79823400    87.78388711
 C     18  14  12     2.847583424865   120.35017970   181.89766859
 H     55  18  14     2.075836263682   111.39042240   206.80021616
 H     55  18  14     2.076070522070   111.45195128   327.59440063
 C     55  18  14     2.856725507691   112.10046943    87.19759568
 C     28  26  23     2.847225620208   120.46083707   178.09432345
 H     59  28  26     2.075660647806   111.36157365    28.57475872
 H     59  28  26     2.076175150907   111.45567645   149.34117825
 C     59  28  26     2.856449057566   112.07890247   268.96691219
 C     38  34  32     2.846328564660   120.26226669   182.04051967
 H     63  38  34     2.075548134061   111.40480294   208.21805488
 H     63  38  34     2.075517150530   111.41002841   329.12871058
 C     63  38  34     2.858992097445   111.77200663    88.68418997
 F     66  63  38     2.520529725993   111.50417487   299.73375442
 F     66  63  38     2.520120311020   110.88395287   179.86795278
 F     66  63  38     2.520446631295   111.49902902    60.00305811
 F     54  51  48     2.521226009878   111.54148554   299.55610581
 F     54  51  48     2.520935274745   110.95825342   179.69043245
 F     54  51  48     2.521108717054   111.54955377    59.81387938
 F     58  55  18     2.521446729753   111.64466839   299.22201459
 F     58  55  18     2.524372914238   110.89920485   179.48792121
 F     58  55  18     2.520304546958   111.69577324    59.68726663
 F     62  59  28     2.523071287214   111.65086274   299.69592207
 F     62  59  28     2.520000531469   111.69507932    60.10996370
 F     62  59  28     2.523499006231   110.93735601   179.98174973

---------------------
BASIS SET INFORMATION
---------------------
There are 4 groups of distinct atoms

 Group   1 Type O   : 7s4p1d contracted to 3s2p1d pattern {511/31/1}
 Group   2 Type C   : 7s4p1d contracted to 3s2p1d pattern {511/31/1}
 Group   3 Type H   : 4s1p contracted to 2s1p pattern {31/1}
 Group   4 Type F   : 7s4p1d contracted to 3s2p1d pattern {511/31/1}

Atom   0O    basis set group =>   1
Atom   1O    basis set group =>   1
Atom   2O    basis set group =>   1
Atom   3C    basis set group =>   2
Atom   4C    basis set group =>   2
Atom   5O    basis set group =>   1
Atom   6O    basis set group =>   1
Atom   7O    basis set group =>   1
Atom   8C    basis set group =>   2
Atom   9C    basis set group =>   2
Atom  10C    basis set group =>   2
Atom  11C    basis set group =>   2
Atom  12C    basis set group =>   2
Atom  13C    basis set group =>   2
Atom  14H    basis set group =>   3
Atom  15C    basis set group =>   2
Atom  16H    basis set group =>   3
Atom  17C    basis set group =>   2
Atom  18H    basis set group =>   3
Atom  19H    basis set group =>   3
Atom  20C    basis set group =>   2
Atom  21C    basis set group =>   2
Atom  22C    basis set group =>   2
Atom  23C    basis set group =>   2
Atom  24H    basis set group =>   3
Atom  25C    basis set group =>   2
Atom  26H    basis set group =>   3
Atom  27C    basis set group =>   2
Atom  28H    basis set group =>   3
Atom  29H    basis set group =>   3
Atom  30C    basis set group =>   2
Atom  31C    basis set group =>   2
Atom  32C    basis set group =>   2
Atom  33C    basis set group =>   2
Atom  34H    basis set group =>   3
Atom  35C    basis set group =>   2
Atom  36H    basis set group =>   3
Atom  37C    basis set group =>   2
Atom  38H    basis set group =>   3
Atom  39H    basis set group =>   3
Atom  40C    basis set group =>   2
Atom  41C    basis set group =>   2
Atom  42C    basis set group =>   2
Atom  43C    basis set group =>   2
Atom  44H    basis set group =>   3
Atom  45C    basis set group =>   2
Atom  46H    basis set group =>   3
Atom  47C    basis set group =>   2
Atom  48H    basis set group =>   3
Atom  49H    basis set group =>   3
Atom  50C    basis set group =>   2
Atom  51H    basis set group =>   3
Atom  52H    basis set group =>   3
Atom  53C    basis set group =>   2
Atom  54C    basis set group =>   2
Atom  55H    basis set group =>   3
Atom  56H    basis set group =>   3
Atom  57C    basis set group =>   2
Atom  58C    basis set group =>   2
Atom  59H    basis set group =>   3
Atom  60H    basis set group =>   3
Atom  61C    basis set group =>   2
Atom  62C    basis set group =>   2
Atom  63H    basis set group =>   3
Atom  64H    basis set group =>   3
Atom  65C    basis set group =>   2
Atom  66F    basis set group =>   4
Atom  67F    basis set group =>   4
Atom  68F    basis set group =>   4
Atom  69F    basis set group =>   4
Atom  70F    basis set group =>   4
Atom  71F    basis set group =>   4
Atom  72F    basis set group =>   4
Atom  73F    basis set group =>   4
Atom  74F    basis set group =>   4
Atom  75F    basis set group =>   4
Atom  76F    basis set group =>   4
Atom  77F    basis set group =>   4


           ************************************************************
           *        Program running with 64 parallel MPI-processes    *
           *              working on a common directory               *
           ************************************************************
------------------------------------------------------------------------------
                           ORCA GTO INTEGRAL CALCULATION
------------------------------------------------------------------------------
------------------------------------------------------------------------------
                   ___                                                        
                  /   \      - P O W E R E D   B Y -                         
                 /     \                                                     
                 |  |  |   _    _      __       _____    __    __             
                 |  |  |  | |  | |    /  \     |  _  \  |  |  /  |          
                  \  \/   | |  | |   /    \    | | | |  |  | /  /          
                 / \  \   | |__| |  /  /\  \   | |_| |  |  |/  /          
                |  |  |   |  __  | /  /__\  \  |    /   |      \           
                |  |  |   | |  | | |   __   |  |    \   |  |\   \          
                \     /   | |  | | |  |  |  |  | |\  \  |  | \   \       
                 \___/    |_|  |_| |__|  |__|  |_| \__\ |__|  \__/        
                                                                              
                      - O R C A' S   B I G   F R I E N D -                    
                                      &                                       
                       - I N T E G R A L  F E E D E R -                       
                                                                              
 v1 FN, 2020, v2 2021                                                         
------------------------------------------------------------------------------


Reading SHARK input file udc3_ts1_c15_sp_hirshfeld.SHARKINP.tmp ... ok
----------------------
SHARK INTEGRAL PACKAGE
----------------------

Number of atoms                             ...     78
Number of basis functions                   ...    876
Number of shells                            ...    396
Maximum angular momentum                    ...      2
Integral batch strategy                     ... SHARK/LIBINT Hybrid
RI-J (if used) integral strategy            ... SPLIT-RIJ (Revised 2003 algorithm where possible)
Printlevel                                  ...      1
Contraction scheme used                     ... SEGMENTED contraction
Coulomb Range Separation                    ... NOT USED
Exchange Range Separation                   ... NOT USED
Finite Nucleus Model                        ... NOT USED
Auxiliary Coulomb fitting basis             ... NOT available
Auxiliary J/K fitting basis                 ... NOT available
Auxiliary Correlation fitting basis         ... NOT available
Auxiliary 'external' fitting basis          ... NOT available
Integral threshold                          ...     1.000000e-10
Primitive cut-off                           ...     1.000000e-11
Primitive pair pre-selection threshold      ...     1.000000e-11

Calculating pre-screening integrals         ... done (  0.1 sec) Dimension = 396
Organizing shell pair data                  ... done (  0.3 sec)
Shell pair information
Total number of shell pairs                 ...     78606
Shell pairs after pre-screening             ...     30802
Total number of primitive shell pairs       ...    296070
Primitive shell pairs kept                  ...     67752
          la=0 lb=0:   9031 shell pairs
          la=1 lb=0:  11499 shell pairs
          la=1 lb=1:   3778 shell pairs
          la=2 lb=0:   3717 shell pairs
          la=2 lb=1:   2404 shell pairs
          la=2 lb=2:    373 shell pairs

Calculating one electron integrals          ... done (  0.6 sec)
Calculating Nuclear repulsion               ... done (  0.0 sec) ENN=   7316.390771467190 Eh

SHARK setup successfully completed in   1.3 seconds

Maximum memory used throughout the entire GTOINT-calculation: 50.2 MB


           ************************************************************
           *        Program running with 64 parallel MPI-processes    *
           *              working on a common directory               *
           ************************************************************
-------------------------------------------------------------------------------
                                 ORCA SCF
-------------------------------------------------------------------------------

------------
SCF SETTINGS
------------
Hamiltonian:
 Ab initio Hamiltonian  Method          .... Hartree-Fock(GTOs)


General Settings:
 Integral files         IntName         .... udc3_ts1_c15_sp_hirshfeld
 Hartree-Fock type      HFTyp           .... RHF
 Total Charge           Charge          ....    0
 Multiplicity           Mult            ....    1
 Number of Electrons    NEL             ....  396
 Basis Dimension        Dim             ....  876
 Nuclear Repulsion      ENuc            ....   7316.3907714672 Eh

Convergence Acceleration:
 DIIS                   CNVDIIS         .... on
   Start iteration      DIISMaxIt       ....    12
   Startup error        DIISStart       ....  0.200000
   # of expansion vecs  DIISMaxEq       ....     5
   Bias factor          DIISBfac        ....   1.050
   Max. coefficient     DIISMaxC        ....  10.000
 Trust-Rad. Augm. Hess. CNVTRAH         .... auto
   Auto Start mean grad. ratio tolernc. ....  1.125000
   Auto Start start iteration           ....    20
   Auto Start num. interpolation iter.  ....    10
   Max. Number of Micro iterations      ....    16
   Max. Number of Macro iterations      .... Maxiter - #DIIS iter
   Number of Davidson start vectors     ....     2
   Converg. threshold I  (grad. norm)   ....   5.000e-05
   Converg. threshold II (energy diff.) ....   1.000e-06
   Grad. Scal. Fac. for Micro threshold ....   0.100
   Minimum threshold for Micro iter.    ....   0.010
   NR start threshold (gradient norm)   ....   0.001
   Initial trust radius                 ....   0.400
   Minimum AH scaling param. (alpha)    ....   1.000
   Maximum AH scaling param. (alpha)    .... 1000.000
   Orbital update algorithm             .... Taylor
   White noise on init. David. guess    .... on
   Maximum white noise                  ....   0.010
   Quad. conv. algorithm                .... NR
 SOSCF                  CNVSOSCF        .... on
   Start iteration      SOSCFMaxIt      ....   150
   Startup grad/error   SOSCFStart      ....  0.003300
 Level Shifting         CNVShift        .... on
   Level shift para.    LevelShift      ....    0.2500
   Turn off err/grad.   ShiftErr        ....    0.0010
 Zerner damping         CNVZerner       .... off
 Static damping         CNVDamp         .... on
   Fraction old density DampFac         ....    0.7000
   Max. Damping (<1)    DampMax         ....    0.9800
   Min. Damping (>=0)   DampMin         ....    0.0000
   Turn off err/grad.   DampErr         ....    0.1000
 Fernandez-Rico         CNVRico         .... off

SCF Procedure:
 Maximum # iterations   MaxIter         ....   125
 SCF integral mode      SCFMode         .... Direct
   Integral package                     .... SHARK and LIBINT hybrid scheme
 Reset frequency        DirectResetFreq ....    20
 Integral Threshold     Thresh          ....  1.000e-10 Eh
 Primitive CutOff       TCut            ....  1.000e-11 Eh

Convergence Tolerance:
 Convergence Check Mode ConvCheckMode   .... Total+1el-Energy
 Convergence forced     ConvForced      .... 0
 Energy Change          TolE            ....  1.000e-06 Eh
 1-El. energy change                    ....  1.000e-03 Eh
 Orbital Gradient       TolG            ....  5.000e-05
 Orbital Rotation angle TolX            ....  5.000e-05
 DIIS Error             TolErr          ....  1.000e-06


Diagonalization of the overlap matrix:
Smallest eigenvalue                        ... 2.622e-04
Time for diagonalization                   ...    0.162 sec
Threshold for overlap eigenvalues          ... 1.000e-08
Number of eigenvalues below threshold      ... 0
Time for construction of square roots      ...    0.262 sec
Total time needed                          ...    0.429 sec

Time for model grid setup =    5.463 sec

------------------------------
INITIAL GUESS: MODEL POTENTIAL
------------------------------
Loading Hartree-Fock densities                     ... done
Calculating cut-offs                               ... done
Initializing the effective Hamiltonian             ... done
Setting up the integral package (SHARK)            ... done
Starting the Coulomb interaction                   ... done (   0.4 sec)
Reading the grid                                   ... done
Mapping shells                                     ... done
Starting the XC term evaluation                    ... done (   0.1 sec)
Transforming the Hamiltonian                       ... done (   0.3 sec)
Diagonalizing the Hamiltonian                      ... done (   0.2 sec)
Back transforming the eigenvectors                 ... done (   0.1 sec)
Now organizing SCF variables                       ... done
                      ------------------
                      INITIAL GUESS DONE (   6.7 sec)
                      ------------------
Hirshfeld charges requested but no grid available - making one
-------------------
DFT GRID GENERATION
-------------------

General Integration Accuracy     IntAcc      ... 4.388
Radial Grid Type                 RadialGrid  ... OptM3 with GC (2021)
Angular Grid (max. ang.)         AngularGrid ... 4 (Lebedev-302)
Angular grid pruning method      GridPruning ... 4 (adaptive)
Weight generation scheme         WeightScheme... Becke
Basis function cutoff            BFCut       ... 1.0000e-10
Integration weight cutoff        WCut        ... 1.0000e-14
Angular grids for H and He will be reduced by one unit
Partially contracted basis set               ... off
Rotationally invariant grid construction     ... off

Total number of grid points                  ...   399639
Total number of batches                      ...     6285
Average number of points per batch           ...       63
Average number of grid points per atom       ...     5124
Time for grid setup =   13.375 sec

--------------
SCF ITERATIONS
--------------
ITER       Energy         Delta-E        Max-DP      RMS-DP      [F,P]     Damp
               ***  Starting incremental Fock matrix formation  ***
  0  -3016.0165730852   0.000000000000 0.06903089  0.00120305  0.2428192 0.7000
  1  -3016.4953846275  -0.478811542298 0.05447425  0.00094651  0.1416711 0.7000
                               ***Turning on DIIS***
  2  -3016.7930575702  -0.297672942645 0.13648835  0.00223532  0.0749882 0.0000
  3  -3015.3680165099   1.425041060209 0.03379238  0.00042121  0.0463465 0.0000
  4  -3017.6713459736  -2.303329463648 0.01464388  0.00017474  0.0093606 0.0000
  5  -3017.4537312404   0.217614733148 0.00511604  0.00006777  0.0053276 0.0000
                      *** Initiating the SOSCF procedure ***
                           *** Shutting down DIIS ***
                      *** Re-Reading the Fockian *** 
                      *** Removing any level shift *** 
ITER      Energy       Delta-E        Grad      Rot      Max-DP    RMS-DP
  6  -3017.41233034   0.0414009052  0.000741  0.000741  0.001809  0.000027
               *** Restarting incremental Fock matrix formation ***
  7  -3017.44158885  -0.0292585186  0.000326  0.000690  0.001091  0.000013
  8  -3017.44161517  -0.0000263160  0.000196  0.000880  0.000902  0.000012
  9  -3017.44162306  -0.0000078857  0.000101  0.000196  0.000269  0.000003
 10  -3017.44162444  -0.0000013816  0.000055  0.000150  0.000066  0.000001
                 **** Energy Check signals convergence ****
              ***Rediagonalizing the Fockian in SOSCF/NRSCF***

               *****************************************************
               *                     SUCCESS                       *
               *           SCF CONVERGED AFTER  11 CYCLES          *
               *****************************************************


----------------
TOTAL SCF ENERGY
----------------

Total Energy       :        -3017.44162461 Eh          -82108.76093 eV

Components:
Nuclear Repulsion  :         7316.39077147 Eh          199089.11439 eV
Electronic Energy  :       -10333.83239607 Eh         -281197.87532 eV
One Electron Energy:       -18738.42753493 Eh         -509898.53597 eV
Two Electron Energy:         8404.59513885 Eh          228700.66065 eV

Virial components:
Potential Energy   :        -6025.33024548 Eh         -163957.57142 eV
Kinetic Energy     :         3007.88862088 Eh           81848.81049 eV
Virial Ratio       :            2.00317598


---------------
SCF CONVERGENCE
---------------

  Last Energy change         ...   -1.6812e-07  Tolerance :   1.0000e-06
  Last MAX-Density change    ...    8.0117e-05  Tolerance :   1.0000e-05
  Last RMS-Density change    ...    8.9973e-07  Tolerance :   1.0000e-06
  Last Orbital Gradient      ...    2.6108e-05  Tolerance :   5.0000e-05
  Last Orbital Rotation      ...    1.5855e-04  Tolerance :   5.0000e-05

             **** THE GBW FILE WAS UPDATED (udc3_ts1_c15_sp_hirshfeld.gbw) ****
             **** DENSITY udc3_ts1_c15_sp_hirshfeld.scfp WAS UPDATED ****
             **** ENERGY FILE WAS UPDATED (udc3_ts1_c15_sp_hirshfeld.en.tmp) ****
             **** THE GBW FILE WAS UPDATED (udc3_ts1_c15_sp_hirshfeld.gbw) ****
             **** DENSITY udc3_ts1_c15_sp_hirshfeld.scfp WAS UPDATED ****
----------------
ORBITAL ENERGIES
----------------

  NO   OCC          E(Eh)            E(eV) 
   0   2.0000     -26.339752      -716.7411 
   1   2.0000     -26.339434      -716.7324 
   2   2.0000     -26.339397      -716.7314 
   3   2.0000     -26.335668      -716.6299 
   4   2.0000     -26.335400      -716.6227 
   5   2.0000     -26.335281      -716.6194 
   6   2.0000     -26.327004      -716.3942 
   7   2.0000     -26.326735      -716.3869 
   8   2.0000     -26.326588      -716.3829 
   9   2.0000     -26.326061      -716.3685 
  10   2.0000     -26.325797      -716.3614 
  11   2.0000     -26.325673      -716.3580 
  12   2.0000     -20.624401      -561.2185 
  13   2.0000     -20.620814      -561.1209 
  14   2.0000     -20.615479      -560.9757 
  15   2.0000     -20.564298      -559.5830 
  16   2.0000     -20.542188      -558.9813 
  17   2.0000     -20.531732      -558.6968 
  18   2.0000     -11.516923      -313.3914 
  19   2.0000     -11.512404      -313.2684 
  20   2.0000     -11.502604      -313.0018 
  21   2.0000     -11.502265      -312.9925 
  22   2.0000     -11.447625      -311.5057 
  23   2.0000     -11.445542      -311.4490 
  24   2.0000     -11.433319      -311.1164 
  25   2.0000     -11.413976      -310.5901 
  26   2.0000     -11.289260      -307.1964 
  27   2.0000     -11.286457      -307.1201 
  28   2.0000     -11.281281      -306.9793 
  29   2.0000     -11.280618      -306.9612 
  30   2.0000     -11.279799      -306.9389 
  31   2.0000     -11.278998      -306.9171 
  32   2.0000     -11.276682      -306.8541 
  33   2.0000     -11.270613      -306.6890 
  34   2.0000     -11.270041      -306.6734 
  35   2.0000     -11.269718      -306.6646 
  36   2.0000     -11.269710      -306.6644 
  37   2.0000     -11.269418      -306.6564 
  38   2.0000     -11.269401      -306.6560 
  39   2.0000     -11.268051      -306.6193 
  40   2.0000     -11.262975      -306.4811 
  41   2.0000     -11.262953      -306.4805 
  42   2.0000     -11.262833      -306.4773 
  43   2.0000     -11.262232      -306.4609 
  44   2.0000     -11.254112      -306.2400 
  45   2.0000     -11.253944      -306.2354 
  46   2.0000     -11.252393      -306.1932 
  47   2.0000     -11.251893      -306.1796 
  48   2.0000     -11.249170      -306.1055 
  49   2.0000     -11.248770      -306.0946 
  50   2.0000     -11.248475      -306.0866 
  51   2.0000     -11.248352      -306.0832 
  52   2.0000     -11.247215      -306.0523 
  53   2.0000     -11.246518      -306.0333 
  54   2.0000      -1.723909       -46.9100 
  55   2.0000      -1.719685       -46.7950 
  56   2.0000      -1.710589       -46.5475 
  57   2.0000      -1.710033       -46.5324 
  58   2.0000      -1.621626       -44.1267 
  59   2.0000      -1.621354       -44.1193 
  60   2.0000      -1.617408       -44.0119 
  61   2.0000      -1.617141       -44.0047 
  62   2.0000      -1.608346       -43.7653 
  63   2.0000      -1.608103       -43.7587 
  64   2.0000      -1.607770       -43.7496 
  65   2.0000      -1.607562       -43.7440 
  66   2.0000      -1.520819       -41.3836 
  67   2.0000      -1.481125       -40.3035 
  68   2.0000      -1.414112       -38.4799 
  69   2.0000      -1.400399       -38.1068 
  70   2.0000      -1.371395       -37.3176 
  71   2.0000      -1.346490       -36.6399 
  72   2.0000      -1.190014       -32.3819 
  73   2.0000      -1.181944       -32.1623 
  74   2.0000      -1.167129       -31.7592 
  75   2.0000      -1.165857       -31.7246 
  76   2.0000      -1.113737       -30.3063 
  77   2.0000      -1.106956       -30.1218 
  78   2.0000      -1.095270       -29.8038 
  79   2.0000      -1.092417       -29.7262 
  80   2.0000      -1.042294       -28.3623 
  81   2.0000      -1.041143       -28.3309 
  82   2.0000      -1.036046       -28.1922 
  83   2.0000      -1.032142       -28.0860 
  84   2.0000      -1.019797       -27.7501 
  85   2.0000      -1.016879       -27.6707 
  86   2.0000      -1.016164       -27.6512 
  87   2.0000      -1.013525       -27.5794 
  88   2.0000      -0.960171       -26.1276 
  89   2.0000      -0.949230       -25.8299 
  90   2.0000      -0.931840       -25.3567 
  91   2.0000      -0.928673       -25.2705 
  92   2.0000      -0.912010       -24.8170 
  93   2.0000      -0.907147       -24.6847 
  94   2.0000      -0.878777       -23.9127 
  95   2.0000      -0.861678       -23.4475 
  96   2.0000      -0.861011       -23.4293 
  97   2.0000      -0.853787       -23.2327 
  98   2.0000      -0.842586       -22.9279 
  99   2.0000      -0.840935       -22.8830 
 100   2.0000      -0.839527       -22.8447 
 101   2.0000      -0.838895       -22.8275 
 102   2.0000      -0.835423       -22.7330 
 103   2.0000      -0.834783       -22.7156 
 104   2.0000      -0.828379       -22.5413 
 105   2.0000      -0.827602       -22.5202 
 106   2.0000      -0.825439       -22.4613 
 107   2.0000      -0.824856       -22.4455 
 108   2.0000      -0.820933       -22.3387 
 109   2.0000      -0.817111       -22.2347 
 110   2.0000      -0.807258       -21.9666 
 111   2.0000      -0.788441       -21.4546 
 112   2.0000      -0.783819       -21.3288 
 113   2.0000      -0.773925       -21.0596 
 114   2.0000      -0.773530       -21.0488 
 115   2.0000      -0.767784       -20.8925 
 116   2.0000      -0.764655       -20.8073 
 117   2.0000      -0.761566       -20.7233 
 118   2.0000      -0.733798       -19.9677 
 119   2.0000      -0.727667       -19.8008 
 120   2.0000      -0.724779       -19.7222 
 121   2.0000      -0.724588       -19.7170 
 122   2.0000      -0.721210       -19.6251 
 123   2.0000      -0.719074       -19.5670 
 124   2.0000      -0.713980       -19.4284 
 125   2.0000      -0.711757       -19.3679 
 126   2.0000      -0.711317       -19.3559 
 127   2.0000      -0.710716       -19.3396 
 128   2.0000      -0.707045       -19.2397 
 129   2.0000      -0.703279       -19.1372 
 130   2.0000      -0.694121       -18.8880 
 131   2.0000      -0.682387       -18.5687 
 132   2.0000      -0.681046       -18.5322 
 133   2.0000      -0.677767       -18.4430 
 134   2.0000      -0.675323       -18.3765 
 135   2.0000      -0.671718       -18.2784 
 136   2.0000      -0.669048       -18.2057 
 137   2.0000      -0.668037       -18.1782 
 138   2.0000      -0.665868       -18.1192 
 139   2.0000      -0.664643       -18.0859 
 140   2.0000      -0.663800       -18.0629 
 141   2.0000      -0.661891       -18.0110 
 142   2.0000      -0.658613       -17.9218 
 143   2.0000      -0.657387       -17.8884 
 144   2.0000      -0.656442       -17.8627 
 145   2.0000      -0.653400       -17.7799 
 146   2.0000      -0.651955       -17.7406 
 147   2.0000      -0.650877       -17.7113 
 148   2.0000      -0.644880       -17.5481 
 149   2.0000      -0.644244       -17.5308 
 150   2.0000      -0.643654       -17.5147 
 151   2.0000      -0.641516       -17.4565 
 152   2.0000      -0.639662       -17.4061 
 153   2.0000      -0.634917       -17.2770 
 154   2.0000      -0.624724       -16.9996 
 155   2.0000      -0.616610       -16.7788 
 156   2.0000      -0.615867       -16.7586 
 157   2.0000      -0.612497       -16.6669 
 158   2.0000      -0.607170       -16.5219 
 159   2.0000      -0.599329       -16.3086 
 160   2.0000      -0.597336       -16.2543 
 161   2.0000      -0.594289       -16.1714 
 162   2.0000      -0.589941       -16.0531 
 163   2.0000      -0.589515       -16.0415 
 164   2.0000      -0.585517       -15.9327 
 165   2.0000      -0.583036       -15.8652 
 166   2.0000      -0.579222       -15.7614 
 167   2.0000      -0.579029       -15.7562 
 168   2.0000      -0.571743       -15.5579 
 169   2.0000      -0.570848       -15.5336 
 170   2.0000      -0.569643       -15.5008 
 171   2.0000      -0.555478       -15.1153 
 172   2.0000      -0.545809       -14.8522 
 173   2.0000      -0.540380       -14.7045 
 174   2.0000      -0.532872       -14.5002 
 175   2.0000      -0.529962       -14.4210 
 176   2.0000      -0.526394       -14.3239 
 177   2.0000      -0.525336       -14.2951 
 178   2.0000      -0.523320       -14.2403 
 179   2.0000      -0.521967       -14.2034 
 180   2.0000      -0.517831       -14.0909 
 181   2.0000      -0.507195       -13.8015 
 182   2.0000      -0.506440       -13.7809 
 183   2.0000      -0.505832       -13.7644 
 184   2.0000      -0.503160       -13.6917 
 185   2.0000      -0.499193       -13.5837 
 186   2.0000      -0.483416       -13.1544 
 187   2.0000      -0.454981       -12.3807 
 188   2.0000      -0.448720       -12.2103 
 189   2.0000      -0.430737       -11.7209 
 190   2.0000      -0.374706       -10.1963 
 191   2.0000      -0.370093       -10.0707 
 192   2.0000      -0.365337        -9.9413 
 193   2.0000      -0.362793        -9.8721 
 194   2.0000      -0.350153        -9.5281 
 195   2.0000      -0.347746        -9.4626 
 196   2.0000      -0.345958        -9.4140 
 197   2.0000      -0.344782        -9.3820 
 198   0.0000       0.047974         1.3054 
 199   0.0000       0.061793         1.6815 
 200   0.0000       0.096107         2.6152 
 201   0.0000       0.102145         2.7795 
 202   0.0000       0.102878         2.7994 
 203   0.0000       0.108829         2.9614 
 204   0.0000       0.124711         3.3936 
 205   0.0000       0.125421         3.4129 
 206   0.0000       0.161068         4.3829 
 207   0.0000       0.168923         4.5966 
 208   0.0000       0.175236         4.7684 
 209   0.0000       0.180111         4.9011 
 210   0.0000       0.182764         4.9733 
 211   0.0000       0.189441         5.1550 
 212   0.0000       0.195530         5.3206 
 213   0.0000       0.197664         5.3787 
 214   0.0000       0.198853         5.4111 
 215   0.0000       0.206097         5.6082 
 216   0.0000       0.209020         5.6877 
 217   0.0000       0.210656         5.7322 
 218   0.0000       0.216442         5.8897 
 219   0.0000       0.219864         5.9828 
 220   0.0000       0.232289         6.3209 
 221   0.0000       0.234073         6.3695 
 222   0.0000       0.240003         6.5308 
 223   0.0000       0.245003         6.6669 
 224   0.0000       0.253544         6.8993 
 225   0.0000       0.258365         7.0305 
 226   0.0000       0.263351         7.1661 
 227   0.0000       0.265973         7.2375 
 228   0.0000       0.272936         7.4270 
 229   0.0000       0.274582         7.4718 
 230   0.0000       0.284784         7.7494 
 231   0.0000       0.300512         8.1774 
 232   0.0000       0.303850         8.2682 
 233   0.0000       0.308879         8.4050 
 234   0.0000       0.314089         8.5468 
 235   0.0000       0.327127         8.9016 
 236   0.0000       0.334390         9.0992 
 237   0.0000       0.336057         9.1446 
 238   0.0000       0.338344         9.2068 
 239   0.0000       0.341785         9.3005 
 240   0.0000       0.348397         9.4804 
 241   0.0000       0.348728         9.4894 
 242   0.0000       0.350410         9.5351 
 243   0.0000       0.357359         9.7242 
 244   0.0000       0.361419         9.8347 
 245   0.0000       0.362012         9.8508 
 246   0.0000       0.368455        10.0262 
 247   0.0000       0.373251        10.1567 
 248   0.0000       0.374853        10.2003 
 249   0.0000       0.382683        10.4133 
 250   0.0000       0.382921        10.4198 
 251   0.0000       0.385408        10.4875 
 252   0.0000       0.392018        10.6673 
 253   0.0000       0.400195        10.8899 
 254   0.0000       0.404582        11.0092 
 255   0.0000       0.407424        11.0866 
 256   0.0000       0.417904        11.3718 
 257   0.0000       0.418507        11.3882 
 258   0.0000       0.426359        11.6018 
 259   0.0000       0.433543        11.7973 
 260   0.0000       0.435835        11.8597 
 261   0.0000       0.440466        11.9857 
 262   0.0000       0.443166        12.0592 
 263   0.0000       0.444457        12.0943 
 264   0.0000       0.448384        12.2012 
 265   0.0000       0.450379        12.2554 
 266   0.0000       0.450890        12.2694 
 267   0.0000       0.454636        12.3713 
 268   0.0000       0.457938        12.4611 
 269   0.0000       0.460193        12.5225 
 270   0.0000       0.460404        12.5282 
 271   0.0000       0.465031        12.6541 
 272   0.0000       0.465953        12.6792 
 273   0.0000       0.469234        12.7685 
 274   0.0000       0.469631        12.7793 
 275   0.0000       0.473462        12.8836 
 276   0.0000       0.478050        13.0084 
 277   0.0000       0.479764        13.0550 
 278   0.0000       0.483291        13.1510 
 279   0.0000       0.484359        13.1801 
 280   0.0000       0.488561        13.2944 
 281   0.0000       0.504096        13.7171 
 282   0.0000       0.514943        14.0123 
 283   0.0000       0.522370        14.2144 
 284   0.0000       0.525428        14.2976 
 285   0.0000       0.530842        14.4450 
 286   0.0000       0.531513        14.4632 
 287   0.0000       0.535130        14.5616 
 288   0.0000       0.545323        14.8390 
 289   0.0000       0.549834        14.9618 
 290   0.0000       0.562113        15.2959 
 291   0.0000       0.567683        15.4474 
 292   0.0000       0.571068        15.5396 
 293   0.0000       0.576600        15.6901 
 294   0.0000       0.578220        15.7342 
 295   0.0000       0.579597        15.7716 
 296   0.0000       0.582736        15.8571 
 297   0.0000       0.585856        15.9419 
 298   0.0000       0.593328        16.1453 
 299   0.0000       0.600285        16.3346 
 300   0.0000       0.603452        16.4208 
 301   0.0000       0.605331        16.4719 
 302   0.0000       0.609359        16.5815 
 303   0.0000       0.613872        16.7043 
 304   0.0000       0.624723        16.9996 
 305   0.0000       0.629375        17.1262 
 306   0.0000       0.632823        17.2200 
 307   0.0000       0.637244        17.3403 
 308   0.0000       0.644816        17.5463 
 309   0.0000       0.650403        17.6984 
 310   0.0000       0.655823        17.8459 
 311   0.0000       0.660135        17.9632 
 312   0.0000       0.661948        18.0125 
 313   0.0000       0.663435        18.0530 
 314   0.0000       0.668318        18.1858 
 315   0.0000       0.671667        18.2770 
 316   0.0000       0.674102        18.3433 
 317   0.0000       0.675047        18.3690 
 318   0.0000       0.677724        18.4418 
 319   0.0000       0.681296        18.5390 
 320   0.0000       0.683130        18.5889 
 321   0.0000       0.687807        18.7162 
 322   0.0000       0.689563        18.7640 
 323   0.0000       0.693896        18.8819 
 324   0.0000       0.694955        18.9107 
 325   0.0000       0.696565        18.9545 
 326   0.0000       0.701167        19.0797 
 327   0.0000       0.704526        19.1711 
 328   0.0000       0.706215        19.2171 
 329   0.0000       0.714833        19.4516 
 330   0.0000       0.717577        19.5263 
 331   0.0000       0.722191        19.6518 
 332   0.0000       0.726058        19.7570 
 333   0.0000       0.729526        19.8514 
 334   0.0000       0.734990        20.0001 
 335   0.0000       0.736273        20.0350 
 336   0.0000       0.738581        20.0978 
 337   0.0000       0.740195        20.1417 
 338   0.0000       0.740892        20.1607 
 339   0.0000       0.745695        20.2914 
 340   0.0000       0.756356        20.5815 
 341   0.0000       0.759168        20.6580 
 342   0.0000       0.766069        20.8458 
 343   0.0000       0.771736        21.0000 
 344   0.0000       0.780368        21.2349 
 345   0.0000       0.787761        21.4361 
 346   0.0000       0.795316        21.6417 
 347   0.0000       0.801655        21.8141 
 348   0.0000       0.806012        21.9327 
 349   0.0000       0.807495        21.9731 
 350   0.0000       0.812094        22.0982 
 351   0.0000       0.814661        22.1681 
 352   0.0000       0.822208        22.3734 
 353   0.0000       0.824912        22.4470 
 354   0.0000       0.829235        22.5646 
 355   0.0000       0.831803        22.6345 
 356   0.0000       0.838701        22.8222 
 357   0.0000       0.843143        22.9431 
 358   0.0000       0.846100        23.0236 
 359   0.0000       0.849631        23.1196 
 360   0.0000       0.854317        23.2471 
 361   0.0000       0.856806        23.3149 
 362   0.0000       0.860230        23.4081 
 363   0.0000       0.860920        23.4268 
 364   0.0000       0.864671        23.5289 
 365   0.0000       0.868942        23.6451 
 366   0.0000       0.869762        23.6674 
 367   0.0000       0.871290        23.7090 
 368   0.0000       0.875961        23.8361 
 369   0.0000       0.877315        23.8730 
 370   0.0000       0.880480        23.9591 
 371   0.0000       0.882784        24.0218 
 372   0.0000       0.887195        24.1418 
 373   0.0000       0.888911        24.1885 
 374   0.0000       0.891868        24.2690 
 375   0.0000       0.894334        24.3361 
 376   0.0000       0.897429        24.4203 
 377   0.0000       0.901819        24.5398 
 378   0.0000       0.902908        24.5694 
 379   0.0000       0.906702        24.6726 
 380   0.0000       0.907533        24.6952 
 381   0.0000       0.909704        24.7543 
 382   0.0000       0.914013        24.8716 
 383   0.0000       0.917809        24.9749 
 384   0.0000       0.919846        25.0303 
 385   0.0000       0.921922        25.0868 
 386   0.0000       0.927503        25.2387 
 387   0.0000       0.930074        25.3086 
 388   0.0000       0.933938        25.4137 
 389   0.0000       0.943192        25.6655 
 390   0.0000       0.946075        25.7440 
 391   0.0000       0.949495        25.8371 
 392   0.0000       0.950850        25.8739 
 393   0.0000       0.953547        25.9473 
 394   0.0000       0.955543        26.0017 
 395   0.0000       0.962881        26.2013 
 396   0.0000       0.967345        26.3228 
 397   0.0000       0.970903        26.4196 
 398   0.0000       0.975627        26.5482 
 399   0.0000       0.982425        26.7331 
 400   0.0000       0.985666        26.8213 
 401   0.0000       0.990958        26.9653 
 402   0.0000       0.992824        27.0161 
 403   0.0000       0.998046        27.1582 
 404   0.0000       0.998925        27.1821 
 405   0.0000       1.004462        27.3328 
 406   0.0000       1.006606        27.3911 
 407   0.0000       1.014177        27.5971 
 408   0.0000       1.019927        27.7536 
 409   0.0000       1.025696        27.9106 
 410   0.0000       1.028256        27.9803 
 411   0.0000       1.035792        28.1853 
 412   0.0000       1.039293        28.2806 
 413   0.0000       1.043695        28.4004 
 414   0.0000       1.050641        28.5894 
 415   0.0000       1.060603        28.8605 
 416   0.0000       1.068358        29.0715 
 417   0.0000       1.079182        29.3660 
 418   0.0000       1.083960        29.4960 
 419   0.0000       1.088594        29.6222 
 420   0.0000       1.089657        29.6511 
 421   0.0000       1.092734        29.7348 
 422   0.0000       1.095378        29.8067 
 423   0.0000       1.099368        29.9153 
 424   0.0000       1.102103        29.9898 
 425   0.0000       1.103716        30.0336 
 426   0.0000       1.114932        30.3388 
 427   0.0000       1.117199        30.4005 
 428   0.0000       1.128320        30.7031 
 429   0.0000       1.132843        30.8262 
 430   0.0000       1.146670        31.2025 
 431   0.0000       1.148570        31.2542 
 432   0.0000       1.150827        31.3156 
 433   0.0000       1.161177        31.5972 
 434   0.0000       1.175178        31.9782 
 435   0.0000       1.198501        32.6129 
 436   0.0000       1.205776        32.8108 
 437   0.0000       1.208994        32.8984 
 438   0.0000       1.243569        33.8392 
 439   0.0000       1.248718        33.9794 
 440   0.0000       1.255638        34.1676 
 441   0.0000       1.267749        34.4972 
 442   0.0000       1.271723        34.6053 
 443   0.0000       1.280304        34.8388 
 444   0.0000       1.301417        35.4134 
 445   0.0000       1.307748        35.5856 
 446   0.0000       1.316155        35.8144 
 447   0.0000       1.331066        36.2202 
 448   0.0000       1.333853        36.2960 
 449   0.0000       1.335390        36.3378 
 450   0.0000       1.339727        36.4558 
 451   0.0000       1.345914        36.6242 
 452   0.0000       1.361239        37.0412 
 453   0.0000       1.364182        37.1213 
 454   0.0000       1.372108        37.3370 
 455   0.0000       1.377552        37.4851 
 456   0.0000       1.378521        37.5115 
 457   0.0000       1.386353        37.7246 
 458   0.0000       1.388071        37.7713 
 459   0.0000       1.393505        37.9192 
 460   0.0000       1.398992        38.0685 
 461   0.0000       1.400906        38.1206 
 462   0.0000       1.401137        38.1269 
 463   0.0000       1.420381        38.6505 
 464   0.0000       1.426993        38.8305 
 465   0.0000       1.432225        38.9728 
 466   0.0000       1.436394        39.0863 
 467   0.0000       1.443141        39.2698 
 468   0.0000       1.449609        39.4459 
 469   0.0000       1.454454        39.5777 
 470   0.0000       1.459705        39.7206 
 471   0.0000       1.461515        39.7698 
 472   0.0000       1.464518        39.8515 
 473   0.0000       1.465411        39.8759 
 474   0.0000       1.469570        39.9890 
 475   0.0000       1.474167        40.1141 
 476   0.0000       1.474782        40.1309 
 477   0.0000       1.479464        40.2583 
 478   0.0000       1.481518        40.3141 
 479   0.0000       1.484444        40.3938 
 480   0.0000       1.486683        40.4547 
 481   0.0000       1.490741        40.5651 
 482   0.0000       1.492234        40.6057 
 483   0.0000       1.495053        40.6825 
 484   0.0000       1.498972        40.7891 
 485   0.0000       1.502709        40.8908 
 486   0.0000       1.505475        40.9661 
 487   0.0000       1.516425        41.2640 
 488   0.0000       1.518232        41.3132 
 489   0.0000       1.519814        41.3562 
 490   0.0000       1.522707        41.4350 
 491   0.0000       1.530020        41.6339 
 492   0.0000       1.533893        41.7394 
 493   0.0000       1.541752        41.9532 
 494   0.0000       1.545705        42.0608 
 495   0.0000       1.548477        42.1362 
 496   0.0000       1.558026        42.3961 
 497   0.0000       1.561867        42.5006 
 498   0.0000       1.569804        42.7165 
 499   0.0000       1.574621        42.8476 
 500   0.0000       1.579224        42.9729 
 501   0.0000       1.582343        43.0578 
 502   0.0000       1.586571        43.1728 
 503   0.0000       1.595349        43.4117 
 504   0.0000       1.599398        43.5218 
 505   0.0000       1.602642        43.6101 
 506   0.0000       1.605207        43.6799 
 507   0.0000       1.608466        43.7686 
 508   0.0000       1.612680        43.8833 
 509   0.0000       1.614376        43.9294 
 510   0.0000       1.614540        43.9339 
 511   0.0000       1.616959        43.9997 
 512   0.0000       1.627392        44.2836 
 513   0.0000       1.633346        44.4456 
 514   0.0000       1.636196        44.5232 
 515   0.0000       1.642308        44.6895 
 516   0.0000       1.657630        45.1064 
 517   0.0000       1.660389        45.1815 
 518   0.0000       1.662919        45.2503 
 519   0.0000       1.669735        45.4358 
 520   0.0000       1.673287        45.5324 
 521   0.0000       1.679459        45.7004 
 522   0.0000       1.705761        46.4161 
 523   0.0000       1.713083        46.6154 
 524   0.0000       1.723155        46.8894 
 525   0.0000       1.729917        47.0734 
 526   0.0000       1.737467        47.2789 
 527   0.0000       1.743639        47.4468 
 528   0.0000       1.746134        47.5147 
 529   0.0000       1.753370        47.7116 
 530   0.0000       1.758490        47.8509 
 531   0.0000       1.760159        47.8964 
 532   0.0000       1.766054        48.0568 
 533   0.0000       1.768252        48.1166 
 534   0.0000       1.770198        48.1695 
 535   0.0000       1.772327        48.2275 
 536   0.0000       1.774901        48.2975 
 537   0.0000       1.777860        48.3780 
 538   0.0000       1.781520        48.4776 
 539   0.0000       1.783321        48.5266 
 540   0.0000       1.790825        48.7308 
 541   0.0000       1.804625        49.1063 
 542   0.0000       1.810157        49.2569 
 543   0.0000       1.813452        49.3466 
 544   0.0000       1.822112        49.5822 
 545   0.0000       1.823008        49.6066 
 546   0.0000       1.826859        49.7114 
 547   0.0000       1.830776        49.8179 
 548   0.0000       1.833642        49.8959 
 549   0.0000       1.838939        50.0401 
 550   0.0000       1.843561        50.1659 
 551   0.0000       1.845358        50.2148 
 552   0.0000       1.868794        50.8525 
 553   0.0000       1.877992        51.1028 
 554   0.0000       1.892050        51.4853 
 555   0.0000       1.912970        52.0546 
 556   0.0000       1.914479        52.0956 
 557   0.0000       1.924673        52.3730 
 558   0.0000       1.927400        52.4472 
 559   0.0000       1.928864        52.4871 
 560   0.0000       1.931234        52.5515 
 561   0.0000       1.935553        52.6691 
 562   0.0000       1.940980        52.8167 
 563   0.0000       1.945842        52.9491 
 564   0.0000       1.948414        53.0190 
 565   0.0000       1.956320        53.2342 
 566   0.0000       1.962643        53.4062 
 567   0.0000       1.969118        53.5824 
 568   0.0000       1.973573        53.7037 
 569   0.0000       1.976434        53.7815 
 570   0.0000       1.983019        53.9607 
 571   0.0000       1.993556        54.2474 
 572   0.0000       1.994541        54.2742 
 573   0.0000       2.002360        54.4870 
 574   0.0000       2.009780        54.6889 
 575   0.0000       2.011186        54.7272 
 576   0.0000       2.013017        54.7770 
 577   0.0000       2.014738        54.8238 
 578   0.0000       2.016103        54.8610 
 579   0.0000       2.018623        54.9295 
 580   0.0000       2.020027        54.9677 
 581   0.0000       2.025906        55.1277 
 582   0.0000       2.026980        55.1569 
 583   0.0000       2.028783        55.2060 
 584   0.0000       2.030635        55.2564 
 585   0.0000       2.033538        55.3354 
 586   0.0000       2.035660        55.3931 
 587   0.0000       2.037200        55.4350 
 588   0.0000       2.038722        55.4764 
 589   0.0000       2.049527        55.7705 
 590   0.0000       2.055732        55.9393 
 591   0.0000       2.060613        56.0721 
 592   0.0000       2.062726        56.1296 
 593   0.0000       2.064972        56.1908 
 594   0.0000       2.066228        56.2249 
 595   0.0000       2.069937        56.3258 
 596   0.0000       2.071042        56.3559 
 597   0.0000       2.074686        56.4551 
 598   0.0000       2.075976        56.4902 
 599   0.0000       2.085719        56.7553 
 600   0.0000       2.090337        56.8809 
 601   0.0000       2.095928        57.0331 
 602   0.0000       2.101883        57.1951 
 603   0.0000       2.103354        57.2352 
 604   0.0000       2.108639        57.3790 
 605   0.0000       2.109536        57.4034 
 606   0.0000       2.117232        57.6128 
 607   0.0000       2.123008        57.7700 
 608   0.0000       2.125970        57.8506 
 609   0.0000       2.129365        57.9430 
 610   0.0000       2.133824        58.0643 
 611   0.0000       2.136040        58.1246 
 612   0.0000       2.138227        58.1841 
 613   0.0000       2.140549        58.2473 
 614   0.0000       2.141928        58.2848 
 615   0.0000       2.148965        58.4763 
 616   0.0000       2.150436        58.5163 
 617   0.0000       2.151887        58.5558 
 618   0.0000       2.167225        58.9732 
 619   0.0000       2.174950        59.1834 
 620   0.0000       2.180640        59.3382 
 621   0.0000       2.190597        59.6092 
 622   0.0000       2.200353        59.8746 
 623   0.0000       2.202251        59.9263 
 624   0.0000       2.205947        60.0269 
 625   0.0000       2.214475        60.2589 
 626   0.0000       2.221955        60.4625 
 627   0.0000       2.223029        60.4917 
 628   0.0000       2.226040        60.5736 
 629   0.0000       2.232911        60.7606 
 630   0.0000       2.236949        60.8705 
 631   0.0000       2.244583        61.0782 
 632   0.0000       2.246814        61.1389 
 633   0.0000       2.252952        61.3059 
 634   0.0000       2.254183        61.3394 
 635   0.0000       2.259733        61.4905 
 636   0.0000       2.266913        61.6858 
 637   0.0000       2.270121        61.7731 
 638   0.0000       2.277060        61.9620 
 639   0.0000       2.281877        62.0930 
 640   0.0000       2.284650        62.1685 
 641   0.0000       2.287132        62.2360 
 642   0.0000       2.288488        62.2729 
 643   0.0000       2.298361        62.5416 
 644   0.0000       2.300800        62.6079 
 645   0.0000       2.307918        62.8017 
 646   0.0000       2.310465        62.8709 
[...]
      pz      :     1.029488  p :     3.092051
      px      :     1.056080
      py      :     1.006483
      dz2     :     0.007907  d :     0.098212
      dxz     :     0.019762
      dyz     :     0.033625
      dx2y2   :     0.021210
      dxy     :     0.015708
 59 H s       :     0.888553  s :     0.888553
      pz      :     0.016908  p :     0.067390
      px      :     0.036789
      py      :     0.013693
 60 H s       :     0.889479  s :     0.889479
      pz      :     0.030912  p :     0.067370
      px      :     0.021648
      py      :     0.014810
 61 C s       :     2.823615  s :     2.823615
      pz      :     0.838884  p :     2.482358
      px      :     0.750363
      py      :     0.893112
      dz2     :     0.055924  d :     0.399756
      dxz     :     0.100344
      dyz     :     0.090432
      dx2y2   :     0.075567
      dxy     :     0.077489
 62 C s       :     2.838135  s :     2.838135
      pz      :     1.023920  p :     3.092304
      px      :     1.013896
      py      :     1.054488
      dz2     :     0.007706  d :     0.097278
      dxz     :     0.030510
      dyz     :     0.023247
      dx2y2   :     0.015851
      dxy     :     0.019964
 63 H s       :     0.886316  s :     0.886316
      pz      :     0.022557  p :     0.067643
      px      :     0.019640
      py      :     0.025445
 64 H s       :     0.886237  s :     0.886237
      pz      :     0.023141  p :     0.067646
      px      :     0.012179
      py      :     0.032327
 65 C s       :     2.821864  s :     2.821864
      pz      :     0.881887  p :     2.482398
      px      :     0.833584
      py      :     0.766928
      dz2     :     0.049951  d :     0.401262
      dxz     :     0.087830
      dyz     :     0.103074
      dx2y2   :     0.074838
      dxy     :     0.085568
 66 F s       :     3.727955  s :     3.727955
      pz      :     1.792632  p :     5.373005
      px      :     1.847072
      py      :     1.733301
      dz2     :     0.001343  d :     0.013067
      dxz     :     0.002213
      dyz     :     0.004757
      dx2y2   :     0.001682
      dxy     :     0.003071
 67 F s       :     3.726972  s :     3.726972
      pz      :     1.873254  p :     5.373999
      px      :     1.644512
      py      :     1.856233
      dz2     :     0.001588  d :     0.013020
      dxz     :     0.003510
      dyz     :     0.001012
      dx2y2   :     0.003108
      dxy     :     0.003801
 68 F s       :     3.727930  s :     3.727930
      pz      :     1.784711  p :     5.372913
      px      :     1.891749
      py      :     1.696453
      dz2     :     0.001394  d :     0.013070
      dxz     :     0.001393
      dyz     :     0.005740
      dx2y2   :     0.002600
      dxy     :     0.001943
 69 F s       :     3.728111  s :     3.728111
      pz      :     1.732518  p :     5.373917
      px      :     1.902372
      py      :     1.739027
      dz2     :     0.001758  d :     0.013027
      dxz     :     0.001682
      dyz     :     0.006228
      dx2y2   :     0.001800
      dxy     :     0.001559
 70 F s       :     3.727178  s :     3.727178
      pz      :     1.732848  p :     5.374932
      px      :     1.805131
      py      :     1.836953
      dz2     :     0.002137  d :     0.012983
      dxz     :     0.004293
      dyz     :     0.003307
      dx2y2   :     0.000951
      dxy     :     0.002296
 71 F s       :     3.728090  s :     3.728090
      pz      :     1.845548  p :     5.373852
      px      :     1.788571
      py      :     1.739733
      dz2     :     0.001223  d :     0.013036
      dxz     :     0.002387
      dyz     :     0.002954
      dx2y2   :     0.001854
      dxy     :     0.004619
 72 F s       :     3.728128  s :     3.728128
      pz      :     1.867158  p :     5.374500
      px      :     1.701346
      py      :     1.805996
      dz2     :     0.001562  d :     0.013001
      dxz     :     0.002964
      dyz     :     0.001722
      dx2y2   :     0.001812
      dxy     :     0.004941
 73 F s       :     3.728077  s :     3.728077
      pz      :     1.746991  p :     5.378439
      px      :     1.858917
      py      :     1.772532
      dz2     :     0.001724  d :     0.012842
      dxz     :     0.002591
      dyz     :     0.004961
      dx2y2   :     0.001379
      dxy     :     0.002187
 74 F s       :     3.727818  s :     3.727818
      pz      :     1.823911  p :     5.373943
      px      :     1.782750
      py      :     1.767282
      dz2     :     0.001197  d :     0.013042
      dxz     :     0.002829
      dyz     :     0.003298
      dx2y2   :     0.001506
      dxy     :     0.004213
 75 F s       :     3.728533  s :     3.728533
      pz      :     1.860955  p :     5.376066
      px      :     1.643735
      py      :     1.871377
      dz2     :     0.001369  d :     0.012928
      dxz     :     0.003734
      dyz     :     0.001074
      dx2y2   :     0.003420
      dxy     :     0.003331
 76 F s       :     3.727736  s :     3.727736
      pz      :     1.695939  p :     5.373928
      px      :     1.781094
      py      :     1.896894
      dz2     :     0.002660  d :     0.013052
      dxz     :     0.005774
      dyz     :     0.002117
      dx2y2   :     0.001194
      dxy     :     0.001307
 77 F s       :     3.727828  s :     3.727828
      pz      :     1.833199  p :     5.377970
      px      :     1.843699
      py      :     1.701071
      dz2     :     0.001373  d :     0.012869
      dxz     :     0.001724
      dyz     :     0.004095
      dx2y2   :     0.002157
      dxy     :     0.003518


                      *****************************
                      * MAYER POPULATION ANALYSIS *
                      *****************************

  NA   - Mulliken gross atomic population
  ZA   - Total nuclear charge
  QA   - Mulliken gross atomic charge
  VA   - Mayer's total valence
  BVA  - Mayer's bonded valence
  FA   - Mayer's free valence

  ATOM       NA         ZA         QA         VA         BVA        FA
  0 O      8.5444     8.0000    -0.5444     1.9052     1.9052    -0.0000
  1 O      8.4091     8.0000    -0.4091     2.0594     2.0594    -0.0000
  2 O      8.6070     8.0000    -0.6070     1.7735     1.7735    -0.0000
  3 C      5.3227     6.0000     0.6773     3.9521     3.9521     0.0000
  4 C      5.1324     6.0000     0.8676     3.7926     3.7926    -0.0000
  5 O      8.5281     8.0000    -0.5281     1.9317     1.9317     0.0000
  6 O      8.5671     8.0000    -0.5671     1.9052     1.9052     0.0000
  7 O      8.3800     8.0000    -0.3800     2.1188     2.1188     0.0000
  8 C      5.1823     6.0000     0.8177     3.7870     3.7870     0.0000
  9 C      5.3062     6.0000     0.6938     3.9760     3.9760     0.0000
 10 C      6.2032     6.0000    -0.2032     3.7922     3.7922     0.0000
 11 C      5.9889     6.0000     0.0111     3.9566     3.9566    -0.0000
 12 C      5.9538     6.0000     0.0462     3.9143     3.9143    -0.0000
 13 C      6.0026     6.0000    -0.0026     3.8900     3.8900     0.0000
 14 H      0.9361     1.0000     0.0639     1.0025     1.0025     0.0000
 15 C      6.0049     6.0000    -0.0049     3.8948     3.8948    -0.0000
 16 H      0.9159     1.0000     0.0841     1.0121     1.0121    -0.0000
 17 C      6.2085     6.0000    -0.2085     3.8309     3.8309    -0.0000
 18 H      0.9576     1.0000     0.0424     0.9961     0.9961     0.0000
 19 H      0.9597     1.0000     0.0403     0.9958     0.9958    -0.0000
 20 C      6.1974     6.0000    -0.1974     3.8656     3.8656    -0.0000
 21 C      5.9707     6.0000     0.0293     3.9155     3.9155    -0.0000
 22 C      5.9404     6.0000     0.0596     3.9648     3.9648     0.0000
 23 C      6.0034     6.0000    -0.0034     3.9025     3.9025     0.0000
 24 H      0.9524     1.0000     0.0476     0.9990     0.9990    -0.0000
 25 C      6.0063     6.0000    -0.0063     3.9074     3.9074    -0.0000
 26 H      0.9307     1.0000     0.0693     1.0074     1.0074     0.0000
 27 C      6.2089     6.0000    -0.2089     3.8315     3.8315     0.0000
 28 H      0.9600     1.0000     0.0400     0.9961     0.9961    -0.0000
 29 H      0.9577     1.0000     0.0423     0.9954     0.9954     0.0000
 30 C      6.2655     6.0000    -0.2655     3.8275     3.8275     0.0000
 31 C      5.9387     6.0000     0.0613     3.9196     3.9196     0.0000
 32 C      5.9426     6.0000     0.0574     3.9340     3.9340    -0.0000
 33 C      6.0028     6.0000    -0.0028     3.8981     3.8981    -0.0000
 34 H      0.9211     1.0000     0.0789     0.9991     0.9991    -0.0000
 35 C      6.0023     6.0000    -0.0023     3.9001     3.9001    -0.0000
 36 H      0.9302     1.0000     0.0698     1.0001     1.0001     0.0000
 37 C      6.1965     6.0000    -0.1965     3.8314     3.8314    -0.0000
 38 H      0.9487     1.0000     0.0513     0.9962     0.9962    -0.0000
 39 H      0.9493     1.0000     0.0507     0.9962     0.9962    -0.0000
 40 C      6.2946     6.0000    -0.2946     3.7756     3.7756    -0.0000
 41 C      5.9592     6.0000     0.0408     3.9398     3.9398    -0.0000
 42 C      5.9475     6.0000     0.0525     3.9018     3.9018     0.0000
 43 C      5.9991     6.0000     0.0009     3.8946     3.8946    -0.0000
 44 H      0.9261     1.0000     0.0739     1.0026     1.0026    -0.0000
 45 C      5.9997     6.0000     0.0003     3.8959     3.8959    -0.0000
 46 H      0.9234     1.0000     0.0766     1.0001     1.0001     0.0000
 47 C      6.2014     6.0000    -0.2014     3.8302     3.8302    -0.0000
 48 H      0.9515     1.0000     0.0485     0.9960     0.9960    -0.0000
 49 H      0.9503     1.0000     0.0497     0.9962     0.9962    -0.0000
 50 C      6.0297     6.0000    -0.0297     3.8917     3.8917     0.0000
 51 H      0.9201     1.0000     0.0799     0.9901     0.9901     0.0000
 52 H      0.9189     1.0000     0.0811     0.9896     0.9896    -0.0000
 53 C      5.1012     6.0000     0.8988     3.9948     3.9948    -0.0000
 54 C      6.0276     6.0000    -0.0276     3.8931     3.8931     0.0000
 55 H      0.9254     1.0000     0.0746     0.9907     0.9907     0.0000
 56 H      0.9245     1.0000     0.0755     0.9899     0.9899    -0.0000
 57 C      5.1016     6.0000     0.8984     3.9901     3.9901    -0.0000
 58 C      6.0271     6.0000    -0.0271     3.8928     3.8928    -0.0000
 59 H      0.9235     1.0000     0.0765     0.9908     0.9908    -0.0000
 60 H      0.9248     1.0000     0.0752     0.9896     0.9896    -0.0000
 61 C      5.1024     6.0000     0.8976     3.9890     3.9890     0.0000
 62 C      6.0314     6.0000    -0.0314     3.8918     3.8918     0.0000
 63 H      0.9183     1.0000     0.0817     0.9897     0.9897    -0.0000
 64 H      0.9182     1.0000     0.0818     0.9898     0.9898     0.0000
 65 C      5.1005     6.0000     0.8995     3.9981     3.9981     0.0000
 66 F      9.3002     9.0000    -0.3002     0.9947     0.9947     0.0000
 67 F      9.2984     9.0000    -0.2984     0.9985     0.9985     0.0000
 68 F      9.3001     9.0000    -0.3001     0.9948     0.9948     0.0000
 69 F      9.3013     9.0000    -0.3013     0.9935     0.9935    -0.0000
 70 F      9.2995     9.0000    -0.2995     0.9972     0.9972    -0.0000
 71 F      9.3012     9.0000    -0.3012     0.9934     0.9934     0.0000
 72 F      9.3018     9.0000    -0.3018     0.9931     0.9931    -0.0000
 73 F      9.3040     9.0000    -0.3040     0.9916     0.9916    -0.0000
 74 F      9.3010     9.0000    -0.3010     0.9938     0.9938     0.0000
 75 F      9.3040     9.0000    -0.3040     0.9905     0.9905     0.0000
 76 F      9.3009     9.0000    -0.3009     0.9939     0.9939    -0.0000
 77 F      9.3033     9.0000    -0.3033     0.9925     0.9925    -0.0000

  Mayer bond orders larger than 0.100000
B(  0-O ,  3-C ) :   1.0348 B(  0-O ,  4-C ) :   0.8825 B(  1-O ,  3-C ) :   1.9490 
B(  2-O ,  4-C ) :   1.3485 B(  2-O ,  9-C ) :   0.4023 B(  3-C , 40-C ) :   0.9896 
B(  4-C ,  6-O ) :   0.5230 B(  4-C , 20-C ) :   0.9928 B(  5-O ,  8-C ) :   1.3616 
B(  5-O ,  9-C ) :   0.5414 B(  6-O ,  8-C ) :   1.3566 B(  7-O ,  9-C ) :   2.0474 
B(  8-C , 30-C ) :   1.0372 B(  9-C , 10-C ) :   0.9694 B( 10-C , 11-C ) :   1.4585 
B( 10-C , 12-C ) :   1.3794 B( 11-C , 13-C ) :   1.4076 B( 11-C , 14-H ) :   0.9993 
B( 12-C , 15-C ) :   1.4513 B( 12-C , 16-H ) :   0.9920 B( 13-C , 17-C ) :   1.4249 
B( 13-C , 18-H ) :   1.0007 B( 15-C , 17-C ) :   1.3845 B( 15-C , 19-H ) :   1.0017 
B( 17-C , 54-C ) :   1.0073 B( 20-C , 21-C ) :   1.3659 B( 20-C , 22-C ) :   1.4737 
B( 21-C , 23-C ) :   1.4569 B( 21-C , 24-H ) :   1.0024 B( 22-C , 25-C ) :   1.4132 
B( 22-C , 26-H ) :   0.9894 B( 23-C , 27-C ) :   1.3856 B( 23-C , 28-H ) :   0.9999 
B( 25-C , 27-C ) :   1.4263 B( 25-C , 29-H ) :   1.0007 B( 27-C , 58-C ) :   1.0067 
B( 30-C , 31-C ) :   1.3915 B( 30-C , 32-C ) :   1.3908 B( 31-C , 33-C ) :   1.4404 
B( 31-C , 34-H ) :   0.9950 B( 32-C , 35-C ) :   1.4461 B( 32-C , 36-H ) :   0.9956 
B( 33-C , 37-C ) :   1.4007 B( 33-C , 38-H ) :   0.9997 B( 35-C , 37-C ) :   1.3964 
B( 35-C , 39-H ) :   0.9999 B( 37-C , 62-C ) :   1.0052 B( 40-C , 41-C ) :   1.4046 
B( 40-C , 42-C ) :   1.3898 B( 41-C , 43-C ) :   1.4423 B( 41-C , 44-H ) :   0.9961 
B( 42-C , 45-C ) :   1.4366 B( 42-C , 46-H ) :   0.9960 B( 43-C , 47-C ) :   1.3967 
B( 43-C , 48-H ) :   1.0006 B( 45-C , 47-C ) :   1.4039 B( 45-C , 49-H ) :   0.9998 
B( 47-C , 50-C ) :   1.0057 B( 50-C , 51-H ) :   0.9620 B( 50-C , 52-H ) :   0.9619 
B( 50-C , 53-C ) :   1.0319 B( 53-C , 69-F ) :   0.9887 B( 53-C , 70-F ) :   0.9915 
B( 53-C , 71-F ) :   0.9887 B( 54-C , 55-H ) :   0.9626 B( 54-C , 56-H ) :   0.9623 
B( 54-C , 57-C ) :   1.0315 B( 57-C , 72-F ) :   0.9887 B( 57-C , 73-F ) :   0.9862 
B( 57-C , 74-F ) :   0.9898 B( 58-C , 59-H ) :   0.9621 B( 58-C , 60-H ) :   0.9622 
B( 58-C , 61-C ) :   1.0317 B( 61-C , 75-F ) :   0.9857 B( 61-C , 76-F ) :   0.9904 
B( 61-C , 77-F ) :   0.9871 B( 62-C , 63-H ) :   0.9620 B( 62-C , 64-H ) :   0.9619 
B( 62-C , 65-C ) :   1.0319 B( 65-C , 66-F ) :   0.9897 B( 65-C , 67-F ) :   0.9927 
B( 65-C , 68-F ) :   0.9897 


------------------
HIRSHFELD ANALYSIS
------------------

Total integrated alpha density =    198.000148686
Total integrated beta density  =    198.000148686

  ATOM     CHARGE      SPIN    
   0 O   -0.177356    0.000000
   1 O   -0.318637    0.000000
   2 O   -0.327626    0.000000
   3 C    0.307497    0.000000
   4 C    0.323403    0.000000
   5 O   -0.188261    0.000000
   6 O   -0.219327    0.000000
   7 O   -0.356855    0.000000
   8 C    0.341168    0.000000
   9 C    0.337474    0.000000
  10 C   -0.006514    0.000000
  11 C   -0.009178    0.000000
  12 C   -0.005508    0.000000
  13 C   -0.032259    0.000000
  14 H    0.040593    0.000000
  15 C   -0.030158    0.000000
  16 H    0.034323    0.000000
  17 C    0.009491    0.000000
  18 H    0.031173    0.000000
  19 H    0.031144    0.000000
  20 C   -0.014393    0.000000
  21 C   -0.016340    0.000000
  22 C   -0.002196    0.000000
  23 C   -0.032917    0.000000
  24 H    0.032388    0.000000
  25 C   -0.026389    0.000000
  26 H    0.038283    0.000000
  27 C    0.009334    0.000000
  28 H    0.030111    0.000000
  29 H    0.032852    0.000000
  30 C   -0.014945    0.000000
  31 C    0.006681    0.000000
  32 C    0.005171    0.000000
  33 C   -0.026901    0.000000
  34 H    0.045827    0.000000
  35 C   -0.027402    0.000000
  36 H    0.042418    0.000000
  37 C    0.025729    0.000000
  38 H    0.036044    0.000000
  39 H    0.035829    0.000000
  40 C   -0.019938    0.000000
  41 C   -0.000832    0.000000
  42 C   -0.004276    0.000000
  43 C   -0.028170    0.000000
  44 H    0.043913    0.000000
  45 C   -0.028343    0.000000
  46 H    0.040816    0.000000
  47 C    0.020241    0.000000
  48 H    0.034702    0.000000
  49 H    0.035052    0.000000
  50 C   -0.025018    0.000000
  51 H    0.041582    0.000000
  52 H    0.041853    0.000000
  53 C    0.381108    0.000000
  54 C   -0.026646    0.000000
  55 H    0.039017    0.000000
  56 H    0.039020    0.000000
  57 C    0.380289    0.000000
  58 C   -0.026345    0.000000
  59 H    0.040108    0.000000
  60 H    0.038841    0.000000
  61 C    0.380091    0.000000
  62 C   -0.024559    0.000000
  63 H    0.042274    0.000000
  64 H    0.042368    0.000000
  65 C    0.381591    0.000000
  66 F   -0.148676    0.000000
  67 F   -0.148678    0.000000
  68 F   -0.148572    0.000000
  69 F   -0.149508    0.000000
  70 F   -0.149659    0.000000
  71 F   -0.149747    0.000000
  72 F   -0.150144    0.000000
  73 F   -0.153264    0.000000
  74 F   -0.149999    0.000000
  75 F   -0.151498    0.000000
  76 F   -0.150262    0.000000
  77 F   -0.152801    0.000000

  TOTAL  -0.000297    0.000000

-------
TIMINGS
-------

Total SCF time: 0 days 0 hours 1 min 19 sec 

Total time                  ....      79.898 sec
Sum of individual times     ....      77.410 sec  ( 96.9%)

Fock matrix formation       ....      46.470 sec  ( 58.2%)
Diagonalization             ....       2.641 sec  (  3.3%)
Density matrix formation    ....       1.687 sec  (  2.1%)
Population analysis         ....       1.938 sec  (  2.4%)
Initial guess               ....       1.235 sec  (  1.5%)
Orbital Transformation      ....       0.000 sec  (  0.0%)
Orbital Orthonormalization  ....       0.000 sec  (  0.0%)
DIIS solution               ....       2.356 sec  (  2.9%)
SOSCF solution              ....       2.245 sec  (  2.8%)

Maximum memory used throughout the entire SCF-calculation: 273.2 MB

-------------------------   --------------------
FINAL SINGLE POINT ENERGY     -3017.441624605293
-------------------------   --------------------


                            ***************************************
                            *     ORCA property calculations      *
                            ***************************************

                                    ---------------------
                                    Active property flags
                                    ---------------------
   (+) Dipole Moment


------------------------------------------------------------------------------
                       ORCA ELECTRIC PROPERTIES CALCULATION
------------------------------------------------------------------------------

Dipole Moment Calculation                       ... on
Quadrupole Moment Calculation                   ... off
Polarizability Calculation                      ... off
GBWName                                         ... udc3_ts1_c15_sp_hirshfeld.gbw
Electron density                                ... udc3_ts1_c15_sp_hirshfeld.scfp
The origin for moment calculation is the CENTER OF MASS  = (-0.021021,  0.031109  0.040536)

-------------
DIPOLE MOMENT
-------------
                                X             Y             Z
Electronic contribution:     -9.52242      11.27995      14.97503
Nuclear contribution   :      8.32449     -12.31917     -16.05228
                        -----------------------------------------
Total Dipole Moment    :     -1.19793      -1.03921      -1.07725
                        -----------------------------------------
Magnitude (a.u.)       :      1.91715
Magnitude (Debye)      :      4.87300



--------------------
Rotational spectrum 
--------------------
 
Rotational constants in cm-1:     0.001029     0.000946     0.000779 
Rotational constants in MHz :    30.855324    28.357580    23.346614 

 Dipole components along the rotational axes: 
x,y,z [a.u.] :     1.230072    -1.002711    -1.075613 
x,y,z [Debye]:     3.126594    -2.548690    -2.733992 

 

Timings for individual modules:

Sum of individual times         ...       93.128 sec (=   1.552 min)
GTO integral calculation        ...        7.289 sec (=   0.121 min)   7.8 %
SCF iterations                  ...       85.838 sec (=   1.431 min)  92.2 %
                             ****ORCA TERMINATED NORMALLY****
TOTAL RUN TIME: 0 days 0 hours 1 minutes 43 seconds 762 msec
