7
 energy: -10.356706243689 gnorm: 0.000671573611 xtb: 6.7.1 (edcfbbe)
O            4.23835873944502        0.51512099755158        0.18726789698574
C            1.87104877140329        0.67030375351744       -0.17225052698036
C            3.15344974058840        0.00891422853446        0.22001529648689
H            2.04651588284180        1.69335687250552       -0.49349719964261
H            1.18764510739431        0.65835821074621        0.67512866314225
H            1.40793956978272        0.10245880167493       -0.97742690602957
H            3.02224218854444       -1.03851286453031        0.56076277603780
