 Entering Gaussian System
 *********************************************
 Gaussian 98:
 frequency output generated by the xtb code
 *********************************************
                         Standard orientation:
 --------------------------------------------------------------------
  Center     Atomic     Atomic              Coordinates (Angstroms)
  Number     Number      Type              X           Y           Z
 --------------------------------------------------------------------
    1          8             0        4.238362    0.515099    0.187252
    2          6             0        1.871052    0.670294   -0.172258
    3          6             0        3.153451    0.008898    0.220004
    4          1             0        2.046523    1.693345   -0.493507
    5          1             0        1.187651    0.658353    0.675123
    6          1             0        1.407937    0.102450   -0.977432
    7          1             0        3.022239   -1.038528    0.560754
 --------------------------------------------------------------------
     1 basis functions        1 primitive gaussians
     1 alpha electrons        1 beta electrons

 Harmonic frequencies (cm**-1), IR intensities (km*mol⁻¹),
 Raman scattering activities (A**4/amu), Raman depolarization ratios,
 reduced masses (AMU), force constants (mDyne/A) and normal coordinates:
                      1                      2                      3
                        a                      a                      a 
 Frequencies --   151.3396               501.8141               769.0542
 Red. masses --     3.5771                 9.8091                 2.4123
 Frc consts  --     0.0000                 0.0000                 0.0000
 IR Inten    --     0.0446                11.4541                 2.9126
 Raman Activ --     0.0000                 0.0000                 0.0000
 Depolar     --     0.0000                 0.0000                 0.0000
 Atom AN      X      Y      Z        X      Y      Z        X      Y      Z
   1   8     0.04  -0.09  -0.28     0.44  -0.32   0.16     0.01  -0.04  -0.12
   2   6     0.00  -0.00  -0.01    -0.36  -0.03  -0.04    -0.02   0.06   0.18
   3   6    -0.04   0.11   0.32     0.03   0.46  -0.15    -0.03   0.08   0.24
   4   1    -0.05   0.12   0.36    -0.44   0.03  -0.07     0.02  -0.07  -0.20
   5   1    -0.27  -0.40  -0.23    -0.02  -0.19   0.05    -0.35   0.19  -0.24
   6   1     0.35   0.20  -0.35    -0.03  -0.18   0.07     0.38  -0.27   0.02
   7   1    -0.04   0.09   0.28    -0.12   0.13  -0.06     0.08  -0.20  -0.59
                      4                      5                      6
                        a                      a                      a 
 Frequencies --   947.2656              1045.6822              1107.2721
 Red. masses --     7.4606                 6.1400                 7.7131
 Frc consts  --     0.0000                 0.0000                 0.0000
 IR Inten    --    15.1649                16.5191                60.1232
 Raman Activ --     0.0000                 0.0000                 0.0000
 Depolar     --     0.0000                 0.0000                 0.0000
 Atom AN      X      Y      Z        X      Y      Z        X      Y      Z
   1   8     0.31   0.04   0.02    -0.02   0.04   0.13     0.04  -0.10   0.04
   2   6    -0.58  -0.01  -0.07    -0.05   0.12   0.34     0.09  -0.45   0.16
   3   6     0.25  -0.18   0.10     0.07  -0.18  -0.52    -0.26   0.50  -0.20
   4   1     0.22  -0.04   0.04     0.02  -0.06  -0.17     0.53  -0.17   0.13
   5   1    -0.27   0.29  -0.11    -0.32   0.11  -0.17    -0.05   0.15  -0.02
   6   1    -0.26   0.28  -0.15     0.34  -0.17   0.01    -0.04   0.13  -0.08
   7   1     0.23  -0.06   0.05    -0.06   0.15   0.44    -0.04   0.12  -0.05
                      7                      8                      9
                        a                      a                      a 
 Frequencies --  1355.3353              1389.3815              1446.6021
 Red. masses --     3.0566                 2.9306                 1.7558
 Frc consts  --     0.0000                 0.0000                 0.0000
 IR Inten    --    12.4013                46.0938                16.0281
 Raman Activ --     0.0000                 0.0000                 0.0000
 Depolar     --     0.0000                 0.0000                 0.0000
 Atom AN      X      Y      Z        X      Y      Z        X      Y      Z
   1   8    -0.05  -0.08   0.02    -0.12  -0.18   0.05     0.08   0.05  -0.01
   2   6    -0.34   0.19  -0.11     0.24   0.05   0.02    -0.01   0.22  -0.09
   3   6    -0.06   0.04  -0.02    -0.16   0.15  -0.07    -0.00  -0.04   0.01
   4   1     0.37  -0.02   0.06    -0.21   0.04  -0.05     0.42  -0.01   0.10
   5   1     0.36  -0.15   0.31    -0.18  -0.05  -0.18    -0.25  -0.49  -0.21
   6   1     0.41  -0.28  -0.06    -0.22   0.06   0.12    -0.33  -0.32   0.41
   7   1     0.42  -0.02   0.06     0.80  -0.03   0.11    -0.12   0.00  -0.01
                     10                     11                     12
                        a                      a                      a 
 Frequencies --  1447.8603              1798.5806              2748.9403
 Red. masses --     1.6047                13.3745                 1.6770
 Frc consts  --     0.0000                 0.0000                 0.0000
 IR Inten    --    10.9071               300.9390               142.6312
 Raman Activ --     0.0000                 0.0000                 0.0000
 Depolar     --     0.0000                 0.0000                 0.0000
 Atom AN      X      Y      Z        X      Y      Z        X      Y      Z
   1   8    -0.00  -0.00   0.00     0.56   0.26  -0.02     0.02   0.02  -0.00
   2   6     0.03  -0.08  -0.21     0.06  -0.00   0.01    -0.00   0.00  -0.00
   3   6     0.01  -0.01  -0.04    -0.72  -0.28   0.00     0.02   0.23  -0.08
   4   1    -0.11   0.23   0.69    -0.06   0.01  -0.01    -0.00   0.03  -0.01
   5   1    -0.05   0.46  -0.06     0.04   0.01   0.03     0.00   0.00  -0.00
   6   1     0.06  -0.37   0.20     0.04  -0.01  -0.02     0.00   0.00   0.00
   7   1     0.00   0.02   0.05     0.04  -0.07   0.03    -0.12  -0.91   0.30
                     13                     14                     15
                        a                      a                      a 
 Frequencies --  3018.3384              3026.5465              3059.7618
 Red. masses --     1.9421                 1.3886                 1.8344
 Frc consts  --     0.0000                 0.0000                 0.0000
 IR Inten    --     6.5363                 3.4114                14.2061
 Raman Activ --     0.0000                 0.0000                 0.0000
 Depolar     --     0.0000                 0.0000                 0.0000
 Atom AN      X      Y      Z        X      Y      Z        X      Y      Z
   1   8     0.00  -0.00  -0.00    -0.00  -0.00   0.00     0.00   0.00  -0.00
   2   6     0.04  -0.09  -0.27     0.18   0.06   0.00    -0.07  -0.25   0.08
   3   6     0.00  -0.00  -0.01     0.01   0.00   0.00    -0.00  -0.01   0.00
   4   1     0.00  -0.01  -0.04     0.05   0.16  -0.05     0.16   0.89  -0.28
   5   1    -0.43  -0.02   0.51    -0.41   0.00   0.55     0.06  -0.03  -0.08
   6   1     0.30   0.36   0.49    -0.27  -0.36  -0.52     0.04   0.03   0.09
   7   1    -0.00   0.00   0.00    -0.00  -0.00   0.00     0.00   0.02  -0.01
