71
Group 7 Molecule 1 Original_Index: 8 Energy(Hartree): -126.24961621
C    -1.0440753393   -2.6348339498   -1.2963141986
C     0.0910437552   -1.8239646677   -1.2099694949
C    -1.2448586664   -3.7462012643   -0.3412272475
C     1.0835874055   -2.0476028391   -0.1343233169
C    -1.9404382550   -2.4368845871   -2.3403094192
C     0.3346245827   -0.8831172748   -2.2021768583
C    -1.5591234254   -3.5118838801    0.9975362936
C    -1.1072555047   -5.0581450607   -0.7766911526
C    -1.7169714585   -1.4582827478   -3.2933278949
C    -0.5676515790   -0.6892812747   -3.2326287509
C     1.9784351983   -3.1032950322   -0.2618806613
C     1.1014212518   -1.2927170289    1.0470782619
C    -1.6968113840   -4.5727089503    1.8795750183
C    -1.2490361065   -6.1167502934    0.1014014425
C    -1.5366907563   -5.8717483111    1.4329906091
C     2.8786557444   -3.4029121331    0.7444476941
C     1.9826320186   -1.6328370988    2.0790884649
C     2.8802316518   -2.6665358398    1.9207672929
H    -2.8113963470   -3.0726598722   -2.4053135182
H     1.2631852859   -0.3347515461   -2.1800830569
H    -0.8756646784   -5.2382186441   -1.8159483662
H    -2.4239820823   -1.3112371232   -4.0942802951
H    -0.3630312219    0.0478557722   -3.9935478669
H     1.9539489269   -3.6975863656   -1.1626229240
H    -1.9359975154   -4.3753326411    2.9156467319
H    -1.1342774759   -7.1290486240   -0.2518711495
H    -1.6452699305   -6.6907948997    2.1263587613
H     3.5677971847   -4.2235755336    0.6197440540
H     1.9531114526   -1.0594845249    2.9931148539
H     3.5682608842   -2.9102862829    2.7147237480
C     0.1371797989   -0.2252197138    1.3232025315
O    -0.4126334987   -0.0575496220    2.3852193092
O    -1.7511703281   -2.2143320072    1.3986934068
H    -1.9058436802   -2.1934233400    2.3528148051
C    -0.1614751913    0.7501101838    0.2076597662
N     0.6746589109    1.5973891894   -0.4133128105
N    -1.3853778904    1.0334523958   -0.2554475209
N     0.0085090046    2.3675769748   -1.2804275181
C     2.0708612987    1.7448508906   -0.2691464521
C    -1.2368712827    2.0203566387   -1.1841046051
C    -2.6858373163    0.5311048648    0.1025778211
C     2.6617521119    1.8740636095    0.9946256288
C     2.8942208405    1.8393169994   -1.4025060138
C    -2.4335990688    2.3756501601   -1.9859523119
H    -2.5638558282   -0.4602916551    0.5488354558
C    -3.6207237073    0.4894967857   -1.1521818489
C    -3.3750741810    1.4968443613    1.0431110995
C     4.0353615157    1.9656834652    1.1331794978
Cl    1.6834063086    2.0161015786    2.4019498786
C     4.2698327412    1.9325016292   -1.2646796843
Cl    2.2341098162    1.8675078299   -2.9852721212
H    -2.1468434870    2.8233716782   -2.9379254195
H    -3.0833149928    3.0710955640   -1.4350278257
O    -3.0806534431    1.1572922556   -2.2729533116
C    -4.9606986270    1.1067871457   -0.6929881771
H    -3.7462729154   -0.5383927166   -1.4999116616
C    -4.6412899134    1.8313393365    0.5770001489
C    -2.8745264956    2.0350904312    2.2130805863
C     4.8419313338    1.9690463481    0.0007685990
H     4.4725004563    2.0587756009    2.1139381413
H     4.8912797486    1.9877410699   -2.1437871904
H    -5.3629830869    1.7619984504   -1.4666599510
H    -5.6965445157    0.3229972647   -0.5083144542
C    -5.4297998305    2.7188052032    1.2849534156
C    -3.6692681201    2.9265080564    2.9187566625
H    -1.8992491512    1.7569477679    2.5808694375
Cl    6.5380734056    2.0651846134    0.1666457789
C    -4.9309405928    3.2670962251    2.4572162079
H    -6.4143578420    2.9795825860    0.9294475548
H    -3.2993551538    3.3568395884    3.8360601120
H    -5.5339853040    3.9641536992    3.0177573677
