71
Group 4 Molecule 1 Original_Index: 5 Energy(Hartree): -126.25153216
C    -0.2448433773   -2.2933384013   -1.5656631233
C     1.0679036371   -1.8304685554   -1.3800559404
C    -1.0836508882   -2.8214777199   -0.4727927741
C     1.7044535819   -1.7882848798   -0.0563930914
C    -0.7679632484   -2.3329443707   -2.8567084232
C     1.8267204649   -1.4950280952   -2.5008095753
C    -0.6080451472   -3.7906110948    0.4247940580
C    -2.4254604117   -2.4580265127   -0.3995405839
C    -0.0148679177   -1.9587722772   -3.9527372416
C     1.2971726804   -1.5538812858   -3.7747822364
C     2.9958879295   -2.3001947241    0.0714244062
C     1.0450298988   -1.3714747487    1.1121500501
C    -1.4497762356   -4.2890419128    1.4110259765
C    -3.2609681227   -2.9649993206    0.5778147531
C    -2.7633560412   -3.8713191184    1.4985669139
C     3.6028450151   -2.4379209270    1.3036736128
C     1.6357240417   -1.5981239491    2.3621645450
C     2.9094503374   -2.1113600182    2.4611141477
H    -1.7698808493   -2.7079408941   -3.0021830464
H     2.8471944893   -1.1698561544   -2.3629911999
H    -2.8064833527   -1.7622742874   -1.1342919881
H    -0.4409731159   -2.0103902654   -4.9425306117
H     1.9075496053   -1.2924150332   -4.6250312766
H     3.5075616981   -2.6462112521   -0.8124201375
H    -1.0670704192   -5.0247304408    2.1050334863
H    -4.2978249720   -2.6664872596    0.6179636156
H    -3.4016849816   -4.2674434372    2.2720523110
H     4.6030206306   -2.8378121612    1.3669651008
H     1.0764119830   -1.3307430847    3.2461585273
H     3.3582522099   -2.2624297629    3.4301352235
C    -0.2555410592   -0.6964454585    1.1693457035
O    -1.0695001041   -0.8701863833    2.0521061766
O     0.6652871892   -4.2396461544    0.2903612475
H     0.8306022491   -4.9499924304    0.9230670934
C    -0.5521875233    0.3859558580    0.1674625569
N     0.2701688236    1.1705123265   -0.5484487163
N    -1.7980498598    0.7983275718   -0.1297649804
N    -0.4231881541    2.0077918192   -1.3240629386
C     1.6684225202    1.2942485473   -0.4630875175
C    -1.6738139688    1.7767341805   -1.0691963311
C    -3.0755125897    0.5469800545    0.4926790167
C     2.2955473454    1.3970625923    0.7859863194
C     2.4445809756    1.4346599268   -1.6213133331
C    -2.9186357422    2.2843591519   -1.6975887092
H    -3.0496919249   -0.4340688749    0.9742081871
C    -4.2321172257    0.6749788895   -0.5527918084
C    -3.3627294317    1.6436650127    1.4962360676
C     3.6715024866    1.4633869561    0.8835618872
Cl    1.3486113359    1.5364075388    2.2153775987
C     3.8266947512    1.5027515571   -1.5255254876
Cl    1.7030234546    1.5489684487   -3.1583242215
H    -2.7250536126    2.6380161262   -2.7112105898
H    -3.3482483719    3.1043937276   -1.1037710076
O    -3.7911201573    1.1837185319   -1.7943537771
C    -5.3010604484    1.5717741662    0.1108781316
H    -4.6409667473   -0.3058384387   -0.8049886189
C    -4.6021588130    2.2266363938    1.2610183762
C    -2.5486853723    2.0738979657    2.5256791731
C     4.4382552657    1.4775032292   -0.2788796531
H     4.1450159298    1.5285318717    1.8495238966
H     4.4201780647    1.5882809234   -2.4213941723
H    -5.7012341067    2.2871931742   -0.6088165414
H    -6.1343970397    0.9661996753    0.4694640204
C    -5.0454514938    3.2605544715    2.0644115710
C    -2.9972293875    3.1121547609    3.3281151582
H    -1.5965260698    1.6027529136    2.7142689643
Cl    6.1408286553    1.5185868808   -0.1642389987
C    -4.2304796857    3.7009801551    3.0964026471
H    -6.0082376313    3.7147162139    1.8897817414
H    -2.3800145758    3.4613654479    4.1408211838
H    -4.5629466477    4.5086343593    3.7294879182
