71
Group 11 Molecule 1 Original_Index: 13 Energy(Hartree): -126.24909661
C    -0.7167844106   -3.5237243295    1.3242728858
C     0.5037210745   -2.9393024986    1.6965754475
C    -1.0850343187   -3.6049996441   -0.1070373310
C     1.3760740639   -2.3945051260    0.6442997636
C    -1.5455169200   -4.0419987854    2.3101630415
C     0.8796360305   -2.9158795954    3.0324023469
C    -2.2216547548   -2.9604458503   -0.6041396175
C    -0.2829955408   -4.3213393655   -0.9895329302
C    -1.1708505264   -3.9958737678    3.6436550155
C     0.0421954534   -3.4363355379    4.0043924307
C     2.6065315518   -2.9933438996    0.3956234352
C     0.9782381914   -1.3054213000   -0.1610484674
C    -2.5231306680   -3.0324922120   -1.9605542306
C    -0.5916225815   -4.3997404871   -2.3341215043
C    -1.7156139849   -3.7518269771   -2.8193649087
C     3.3805946604   -2.6077933666   -0.6819137101
C     1.7355918777   -0.9800758821   -1.2951737392
C     2.9182009964   -1.6330860595   -1.5589251094
H    -2.4786910801   -4.5077408193    2.0263116580
H     1.8226318510   -2.4664359562    3.3088488008
H     0.5837109859   -4.8372673403   -0.6034305372
H    -1.8250179472   -4.4045517073    4.3980982120
H     0.3392098598   -3.4061430886    5.0412221961
H     2.9314730410   -3.7967756473    1.0397554542
H    -3.4083220157   -2.5278491034   -2.3164338040
H     0.0389148046   -4.9683217625   -2.9991899943
H    -1.9666478657   -3.8087109265   -3.8670406544
H     4.3261214341   -3.0936291264   -0.8666775647
H     1.3726078449   -0.2445263541   -1.9965798360
H     3.4852216865   -1.3848776864   -2.4417962235
C    -0.1558595689   -0.4925185416    0.2503779595
O    -0.9949634819   -0.7675653197    1.0825974340
O    -3.0430104749   -2.2088872392    0.1824274415
H    -2.7160646598   -2.2103658839    1.0941155300
C    -0.2767359548    0.8632330420   -0.3933972947
N     0.6562361641    1.7949014097   -0.6273179496
N    -1.4420013311    1.4010972671   -0.7780354512
N     0.1145988436    2.8854908309   -1.1771433362
C     2.0358220585    1.7466221267   -0.3418205127
C    -1.1573826088    2.6424631515   -1.2682713865
C    -2.8025109394    0.9404207630   -0.6736570351
C     2.4962198284    1.4139635885    0.9361556836
C     2.9641981333    2.0652047770   -1.3412424846
C    -2.2619743552    3.3627483683   -1.9497661039
H    -2.8187479252   -0.1480556454   -0.5619261226
C    -3.6304082999    1.4158436122   -1.9135589587
C    -3.4839619519    1.6108321462    0.5002091182
C     3.8516578153    1.3761986421    1.2078592309
Cl    1.3706401350    1.0549601874    2.1883123802
C     4.3216392307    2.0305699553   -1.0706762242
Cl    2.4216416703    2.4492154883   -2.9218544775
H    -1.8725112639    4.0931729644   -2.6596993349
H    -2.9126628411    3.8683109792   -1.2222498009
O    -2.9510952511    2.3811593284   -2.6904103631
C    -4.9598154041    1.9521768849   -1.3385090436
H    -3.7962062049    0.5915078988   -2.6106731402
C    -4.6855372727    2.1923419708    0.1132573937
C    -3.0323778114    1.6863770190    1.8031543286
C     4.7619847518    1.6834600094    0.2012813252
H     4.1990188819    1.1209560223    2.1956700060
H     5.0312532231    2.2704924528   -1.8458217510
H    -5.2698188139    2.8526770633   -1.8700054510
H    -5.7493079945    1.2087183252   -1.4554651921
C    -5.4585845495    2.8664334956    1.0397731686
C    -3.8110979408    2.3657394001    2.7283507778
H    -2.1083030501    1.2142160465    2.0997145003
Cl    6.4356969501    1.6296456781    0.5333296963
C    -5.0083217041    2.9519934167    2.3488929090
H    -6.3941032016    3.3172262773    0.7478084678
H    -3.4805909814    2.4356410695    3.7527630375
H    -5.6000744732    3.4777750878    3.0817895800
