71
Group 12 Molecule 1 Original_Index: 14 Energy(Hartree): -126.24887903
C    -1.3237232827   -2.5988906433   -1.3007432256
C    -0.2409742443   -1.7585017506   -1.5819215858
C    -1.2447772198   -3.5322221305   -0.1538464920
C     0.9719407500   -1.8975422443   -0.7394009700
C    -2.4332320305   -2.5941435198   -2.1360064806
C    -0.2772397202   -0.9572642471   -2.7168254548
C    -1.4721801726   -3.0743119582    1.1438259226
C    -0.9308312837   -4.8692856678   -0.3511060315
C    -2.4673661282   -1.7795553210   -3.2546109371
C    -1.3858153703   -0.9645888980   -3.5462369962
C     1.9355308788   -2.8080210360   -1.1589515921
C     1.1362914421   -1.2802304551    0.5092767758
C    -1.3660045651   -3.9405199366    2.2204548979
C    -0.8269957163   -5.7349969955    0.7227132104
C    -1.0407461174   -5.2681235640    2.0081224505
C     3.0284381348   -3.1121655374   -0.3679859489
C     2.2209872633   -1.6289880553    1.3228999813
C     3.1647797799   -2.5318869706    0.8850581885
H    -3.2592006888   -3.2529602524   -1.9141454727
H     0.5746918521   -0.3449764308   -2.9696661977
H    -0.7648262793   -5.2234569711   -1.3574083605
H    -3.3235281158   -1.8016985678   -3.9118002912
H    -1.3897996830   -0.3537408942   -4.4368763538
H     1.8108006055   -3.2888393699   -2.1174742260
H    -1.5430516263   -3.5712386368    3.2210815886
H    -0.5813351703   -6.7716222061    0.5561663975
H    -0.9606245863   -5.9377140693    2.8498286587
H     3.7645822669   -3.8176679048   -0.7207185705
H     2.3106074163   -1.1538857569    2.2879501716
H     4.0020009757   -2.7856122389    1.5155431515
C     0.2646512479   -0.2199497297    1.0282251006
O     0.0841852279    0.0308681432    2.1933769622
O    -1.8067478436   -1.7530161495    1.3024765992
H    -1.9429277818   -1.5683527141    2.2417855385
C    -0.1549885868    0.7534208456   -0.0524639230
N     0.7955501853    1.4757360829   -0.6527137253
N    -1.3111418976    1.0901955369   -0.6334690470
N     0.2796071976    2.2453898579   -1.6122426613
C     2.1245369310    1.6095693541   -0.1804751676
C    -0.9947322590    2.0003048426   -1.6065302230
C    -2.6585915971    0.6573506549   -0.3551351032
C     2.3353776097    2.2882404971    1.0270957132
C     3.2210623617    1.1010692352   -0.8768368167
C    -2.0473159985    2.5370398615   -2.5067681140
H    -2.6489784136   -0.4325172374   -0.2389350877
C    -3.6160046719    1.0906023257   -1.4944169803
C    -3.2911478340    1.3015472074    0.8625091519
C     3.6119788672    2.4213805755    1.5445120445
Cl    0.9980602369    2.9744219071    1.8568343609
C     4.5005930211    1.2315450846   -0.3627263738
Cl    2.9957712379    0.3007888753   -2.3722771329
H    -1.9820464769    2.0061008211   -3.4723159687
H    -1.8898613690    3.6028385626   -2.6886543778
O    -3.3138541956    2.4010942396   -1.9340195512
C    -4.9857239805    1.1760078576   -0.8104924264
H    -3.5835017916    0.3892519235   -2.3391792045
C    -4.6308588733    1.5709799321    0.5930054521
C    -2.7333898325    1.5974218037    2.0881679886
C     4.6908841965    1.8846514818    0.8497274253
H     3.7677806601    2.9439437678    2.4744262913
H     5.3431896599    0.8325021391   -0.9037961175
H    -5.6107977811    1.9150244329   -1.3081690855
H    -5.4910301519    0.2092713813   -0.8313806940
C    -5.4336951581    2.1398197712    1.5604851348
C    -3.5443262915    2.1766478771    3.0558065325
H    -1.6984197465    1.3860795674    2.3064349619
Cl    6.2674699610    2.0368322068    1.4884744342
C    -4.8778736453    2.4427250997    2.7958135186
H    -6.4713861692    2.3517341574    1.3562955574
H    -3.1254561955    2.4212933983    4.0194997681
H    -5.4910632942    2.8944450522    3.5599450430
