71
Group 2 Molecule 1 Original_Index: 3 Energy(Hartree): -126.25238449
C    -1.1666672461   -2.3345080899   -1.1020121947
C    -0.0040001664   -1.6692407826   -1.5341599725
C    -1.1884454378   -3.2060933785    0.0883310416
C     1.2007327152   -1.6956513492   -0.6877359731
C    -2.3189440473   -2.2386107236   -1.8809044902
C    -0.0091574636   -1.0085431091   -2.7602419721
C    -0.2419007859   -4.2289122441    0.2440022730
C    -2.1960574005   -3.0911617300    1.0418505020
C    -2.3234899235   -1.5354725798   -3.0706548700
C    -1.1598601228   -0.9294390655   -3.5195116932
C     2.4212733753   -2.1885829898   -1.1261481394
C     1.0664348858   -1.3124108254    0.6555631232
C    -0.2912621237   -5.0541001797    1.3598846719
C    -2.2396253846   -3.9123339724    2.1513733585
C    -1.2750351957   -4.8905371414    2.3163441462
C     3.4635825858   -2.3520283678   -0.2303346910
C     2.0873904101   -1.5574247521    1.5690228155
C     3.2867677667   -2.0738337359    1.1182704355
H    -3.2065815912   -2.7641036538   -1.5593064735
H     0.9003015531   -0.5448760786   -3.1076728681
H    -2.9602704610   -2.3372213671    0.9170272454
H    -3.2213944865   -1.4829844690   -3.6665918893
H    -1.1505822931   -0.4040520258   -4.4613658154
H     2.5317439786   -2.4811593537   -2.1583156807
H     0.4470796929   -5.8375137232    1.4664257802
H    -3.0237106938   -3.7898888475    2.8810219357
H    -1.2955891549   -5.5371645367    3.1793466112
H     4.4102178748   -2.7369117630   -0.5769803016
H     1.9392680069   -1.3115766594    2.6088215269
H     4.0883760225   -2.2549228527    1.8167871285
C    -0.1418925021   -0.5655495816    1.0388343023
O    -0.8716754972   -0.7509002119    1.9780673255
O     0.6898063755   -4.4159729617   -0.7296295774
H     1.2063029960   -5.2077251289   -0.5342941412
C    -0.3820720807    0.5754886664    0.0791020929
N     0.5646060965    1.3478448587   -0.4777719985
N    -1.5501970729    1.0129999896   -0.4128437836
N     0.0259274729    2.2183975916   -1.3370817430
C     1.9335448819    1.4053866223   -0.1473004789
C    -1.2536035126    2.0096209911   -1.2955674958
C    -2.9078286847    0.6818723519   -0.0626182406
C     2.3274196433    1.5256284243    1.1920875669
C     2.9202058342    1.4214388184   -1.1397288119
C    -2.3698141098    2.5553138667   -2.1058488594
H    -2.9248724492   -0.3518087890    0.2923429554
C    -3.8657635964    0.9062126507   -1.2804876094
C    -3.4094787299    1.6433525124    0.9928689803
C     3.6643461713    1.5672264423    1.5394160570
Cl    1.1371559400    1.6620321167    2.4272524523
C     4.2623496673    1.4541428543   -0.7953046391
Cl    2.4920433780    1.4162806163   -2.7934869305
H    -2.0045231472    2.9491274087   -3.0550205645
H    -2.8907660453    3.3546002854   -1.5581532812
O    -3.2187004600    1.4711955622   -2.3994895042
C    -5.0252454924    1.7849035030   -0.7558899778
H    -4.2308321977   -0.0525969159   -1.6540190409
C    -4.5755857563    2.2780633032    0.5836244737
C    -2.8299110070    1.9170916013    2.2169226453
C     4.6327456258    1.5074146938    0.5420016809
H     3.9527919481    1.6575980564    2.5740136582
H     5.0136332860    1.4477834424   -1.5683717594
H    -5.2385283242    2.5940270601   -1.4559790738
H    -5.9361614897    1.1934238426   -0.6559681206
C    -5.1793116488    3.2128547836    1.4041076160
C    -3.4394110254    2.8558935745    3.0354317142
H    -1.9403778142    1.3978899858    2.5382215439
Cl    6.2855423989    1.5252387224    0.9671261338
C    -4.5978160892    3.5003795072    2.6297315728
H    -6.0871859359    3.7067157338    1.0950383780
H    -3.0080733598    3.0826204900    3.9976510995
H    -5.0572739877    4.2295177211    3.2785562125
71
Group 2 Molecule 2 Original_Index: 10 Energy(Hartree): -126.24952672
C    -1.2614113289   -2.2859476870   -1.0718227359
C    -0.0964396685   -1.6591702747   -1.5495424778
C    -1.2824962785   -3.0819316332    0.1708454074
C     1.1275474400   -1.6841172604   -0.7285834444
C    -2.4204940388   -2.2241672162   -1.8442574507
C    -0.1104351977   -1.0523948878   -2.8023682216
C    -0.3708361700   -4.1299439270    0.3590169338
C    -2.2531402352   -2.8662262938    1.1448749146
C    -2.4300076230   -1.5869179145   -3.0712012883
C    -1.2675379070   -1.0069106252   -3.5567549280
C     2.3123497490   -2.2453656500   -1.1837633287
C     1.0568722707   -1.2360352718    0.5986104191
C    -0.4180200135   -4.8873214363    1.5219889541
C    -2.2927318533   -3.6196123256    2.3018444272
C    -1.3645353298   -4.6275258791    2.4946934729
C     3.3829222553   -2.4030543287   -0.3209161959
C     2.1046372464   -1.4717705161    1.4837758429
C     3.2685974628   -2.0510056230    1.0166195737
H    -3.3099195639   -2.7229596433   -1.4879355320
H     0.7965789550   -0.6096692342   -3.1824701901
H    -2.9857408015   -2.0844456948    1.0031122099
H    -3.3313306998   -1.5766277330   -3.6659689508
H    -1.2574407011   -0.5367621301   -4.5285130878
H     2.3726864970   -2.5912712548   -2.2035145254
H     0.2917672263   -5.6929504811    1.6532753913
H    -3.0455868727   -3.4200986279    3.0470309016
H    -1.3842061230   -5.2220531312    3.3943876209
H     4.3011717112   -2.8386276671   -0.6833482976
H     2.0043181851   -1.1707938648    2.5147087342
H     4.0897775998   -2.2241417735    1.6940053340
C    -0.1083729648   -0.4306923323    1.0107827493
O    -0.8090754157   -0.5831778964    1.9735756337
O     0.5243380041   -4.4048987218   -0.6281288913
H     1.0192861042   -5.2023561750   -0.4025243430
C    -0.3082030401    0.7018241418    0.0281393924
N     0.6913260378    1.3725722996   -0.5627663236
N    -1.4399381288    1.1358684271   -0.5515901471
N     0.2249606957    2.1816563273   -1.5161915178
C     2.0485642731    1.3947952902   -0.1840925996
C    -1.0641001201    2.0257873677   -1.5154633933
C    -2.8114721191    0.8008092633   -0.2681013375
C     2.4002989395    1.6194363409    1.1537772299
C     3.0676728087    1.2606072032   -1.1328914219
C    -2.0730575308    2.6163123881   -2.4311368349
H    -2.8721879311   -0.2857526917   -0.1325239757
C    -3.7323124373    1.2638012773   -1.4257734506
C    -3.4111653046    1.5171994953    0.9257695751
C     3.7258798233    1.6412089900    1.5446789877
Cl    1.1745761668    1.8961019848    2.3288118800
C     4.3974392977    1.2726213897   -0.7438689167
Cl    2.6921891208    1.0784539531   -2.7886581843
H    -2.0162051327    2.0757400713   -3.3926683260
H    -1.8588392438    3.6714954762   -2.6164692030
O    -3.3549979699    2.5487979545   -1.8814659009
C    -5.1010305326    1.4368704170   -0.7560281829
H    -3.7260888532    0.5469678573   -2.2586266004
C    -4.7329713840    1.8509008383    0.6393916846
C    -2.8396688114    1.8237995485    2.1419755740
C     4.7242430997    1.4491834797    0.5944989520
H     3.9832350954    1.8151034366    2.5768938043
H     5.1733388282    1.1524243107   -1.4825304809
H    -5.6832412669    2.1944535994   -1.2770689052
H    -5.6569406224    0.4980136956   -0.7563277309
C    -5.5066032218    2.4918056152    1.5851815711
C    -3.6210957885    2.4752429600    3.0871120363
H    -1.8196874880    1.5581730091    2.3690764747
Cl    6.3611417025    1.4466935683    1.0772299797
C    -4.9381641225    2.8021241473    2.8129986558
H    -6.5308051202    2.7527093408    1.3700529840
H    -3.1930757523    2.7269191097    4.0447749946
H    -5.5287814109    3.3083364161    3.5605545090
71
Group 2 Molecule 3 Original_Index: 16 Energy(Hartree): -126.24837913
C    -1.1751385563   -2.3605889115   -1.1337957356
C    -0.0148817936   -1.6724204807   -1.5429001475
C    -1.1843205205   -3.2335011242    0.0581754735
C     1.1865204320   -1.7042037357   -0.6826187445
C    -2.3233085997   -2.2607823972   -1.9181347901
C    -0.0182893215   -0.9849393177   -2.7541203772
C    -0.2356735866   -4.2529084905    0.2146700856
C    -2.1666718294   -3.0877825487    1.0364106187
C    -2.3255726227   -1.5326137234   -3.0929749800
C    -1.1650244123   -0.9055189701   -3.5205137811
C     2.4028903256   -2.2180320119   -1.1088495036
C     1.0480431987   -1.3161885623    0.6588156691
C    -0.2298666938   -5.0235835591    1.3720987560
C    -2.1653001401   -3.8641396622    2.1766565294
C    -1.1779225975   -4.8203544399    2.3536068207
C     3.4364037048   -2.3980775631   -0.2055406848
C     2.0584215313   -1.5767571951    1.5788024312
C     3.2522939352   -2.1163339917    1.1398819251
H    -3.2084146901   -2.7970359147   -1.6082282944
H     0.8874338978   -0.5009355400   -3.0828282656
H    -2.9389047580   -2.3426334763    0.9046106402
H    -3.2202669933   -1.4737590397   -3.6926434380
H    -1.1549135958   -0.3594735314   -4.4502410422
H     2.5265121805   -2.5090199463   -2.1410698412
H     0.5235676084   -5.7888617076    1.4652869068
H    -2.9282641408   -3.7209653933    2.9248074687
H    -1.1612340397   -5.4237422224    3.2474032212
H     4.3764525608   -2.8025084717   -0.5460458789
H     1.9045215820   -1.3285652170    2.6170289562
H     4.0421690419   -2.3147081856    1.8465415786
C    -0.1527562788   -0.5568176539    1.0434282869
O    -0.8881451819   -0.7454221046    1.9765627350
O     0.6818250820   -4.5577956843   -0.7411099406
H     0.4735931576   -4.1058138521   -1.5682359688
C    -0.3837551884    0.5915363855    0.0906167912
N     0.5636824493    1.3595792683   -0.4697260401
N    -1.5514270434    1.0257449472   -0.4045905707
N     0.0255560632    2.2281278886   -1.3308260116
C     1.9335243037    1.4098165864   -0.1424185726
C    -1.2544873505    2.0202142978   -1.2895274720
C    -2.9089098880    0.6939020532   -0.0538594782
C     2.3319238745    1.5134923633    1.1972552081
C     2.9177013026    1.4302301849   -1.1375097901
C    -2.3705477852    2.5606191191   -2.1036444822
H    -2.9253997351   -0.3377616477    0.3073583001
C    -3.8653682813    0.9119682442   -1.2739116250
C    -3.4121660834    1.6601004049    0.9964800160
C     3.6700893431    1.5439231991    1.5405783092
Cl    1.1463659806    1.6451994978    2.4378118491
C     4.2608155476    1.4520291139   -0.7969215291
Cl    2.4858375165    1.4439385153   -2.7908817063
H    -2.0050677446    2.9517892590   -3.0538514636
H    -2.8945745153    3.3604204127   -1.5599268629
O    -3.2157197877    1.4723714043   -2.3941044740
C    -5.0262039654    1.7918519389   -0.7548706022
H    -4.2295302828   -0.0485649598   -1.6441417484
C    -4.5783051154    2.2918337302    0.5828221635
C    -2.8338555612    1.9396303671    2.2197967896
C     4.6358325395    1.4893133783    0.5399402769
H     3.9622827111    1.6218050767    2.5751524236
H     5.0099713509    1.4495215907   -1.5721121524
H    -5.2399269565    2.5972149989   -1.4591539498
H    -5.9364325864    1.1996545543   -0.6528018516
C    -5.1837969117    3.2295469843    1.3986764358
C    -3.4452548984    2.8812522560    3.0336107036
H    -1.9439937056    1.4228940115    2.5443002318
Cl    6.2894536597    1.4937349189    0.9601021310
C    -4.6038880792    3.5227543304    2.6237391994
H    -6.0918607940    3.7210890053    1.0865815135
H    -3.0153191962    3.1124034632    3.9953791931
H    -5.0648390635    4.2540778602    3.2689901330
71
Group 2 Molecule 4 Original_Index: 18 Energy(Hartree): -126.24818833
C     0.2264896660   -2.2726277143   -1.5005807047
C    -1.1201033733   -1.8955122371   -1.3945085856
C     0.9768480935   -2.8512670618   -0.3694870257
C    -1.8258763303   -2.0106412689   -0.1062680111
C     0.8617890058   -2.1432555829   -2.7332062296
C    -1.7985851393   -1.4449652357   -2.5242164995
C     0.4954580021   -3.9625367099    0.3354063501
C     2.2208677741   -2.3349087185   -0.0222807215
C     0.1898630484   -1.6553784729   -3.8375759399
C    -1.1484756939   -1.3091786134   -3.7357140585
C    -2.9667193725   -2.7987082534    0.0061646581
C    -1.3141774390   -1.3966239933    1.0467894815
C     1.2339592377   -4.4830126857    1.3905518197
C     2.9482376828   -2.8511344152    1.0317811065
C     2.4461453107   -3.9241196042    1.7474253947
C    -3.5614407324   -3.0062761440    1.2381549525
C    -1.8827872905   -1.6603232771    2.2933275850
C    -3.0075412614   -2.4554483696    2.3852692127
H     1.8889420557   -2.4626415472   -2.8227646001
H    -2.8491801264   -1.1996196224   -2.4455556214
H     2.6144774694   -1.5031645558   -0.5857109595
H     0.7001171594   -1.5677225836   -4.7842753217
H    -1.6857700349   -0.9538644919   -4.6019587068
H    -3.3572015271   -3.2797676010   -0.8772618514
H     0.8506101699   -5.3402890161    1.9275198344
H     3.9019618146   -2.4188353570    1.2894812560
H     3.0020044917   -4.3366944551    2.5745065021
H    -4.4438861839   -3.6232549060    1.3087192078
H    -1.4460969280   -1.2127421123    3.1725494581
H    -3.4525784651   -2.6464262102    3.3488105304
C    -0.1865105937   -0.4538291540    0.9887889655
O     0.7688503822   -0.4765790832    1.7264536163
O    -0.6791027353   -4.5285401175   -0.0526063825
H    -0.8344011095   -5.3335975978    0.4570625557
C    -0.2990824532    0.6271820181   -0.0537026754
N     0.7404894119    1.2515803582   -0.6236564731
N    -1.4005328482    1.1173160931   -0.6640490756
N     0.3377253026    2.0635287872   -1.5990515584
C     2.0966797201    1.2303778522   -0.2473210677
C    -0.9575730878    1.9861507862   -1.6160079666
C    -2.7967025857    0.9928729668   -0.3155960225
C     2.4790152573    1.6497592409    1.0328099240
C     3.0833087680    0.8900070398   -1.1793624563
C    -1.9165764026    2.7033420477   -2.4951424300
H    -3.0596448982   -0.0671817865   -0.2414221278
C    -3.7101642220    1.6900284738   -1.3598720453
C    -3.1584471615    1.7036314935    0.9716532507
C     3.8095958751    1.6183400087    1.4096384082
Cl    1.3108023677    2.2858125753    2.1092366311
C     4.4161194014    0.8616582054   -0.8065088124
Cl    2.6310042273    0.5028118970   -2.7888184432
H    -2.0449496531    2.1228196918   -3.4255189220
H    -1.5334013669    3.6929548225   -2.7515549748
O    -3.1352385324    2.8879140886   -1.8341783130
C    -4.9525547499    2.0893263022   -0.5508200660
H    -3.9344004138    1.0241590275   -2.2057714851
C    -4.4076004213    2.3020038695    0.8310226638
C    -2.4455006780    1.7957561500    2.1477016801
C     4.7712350269    1.2016499063    0.4950718763
H     4.0986677849    1.9280440642    2.4009935079
H     5.1713381974    0.5797256616   -1.5220545134
H    -5.3941913179    2.9926265804   -0.9679055458
H    -5.6984020441    1.2931485756   -0.5613787000
C    -4.9682281649    2.9891323043    1.8887908748
C    -3.0104573514    2.4933743318    3.2066378723
H    -1.4664651823    1.3511630586    2.2521651249
Cl    6.4120660120    1.1438487037    0.9633575644
C    -4.2595413323    3.0776346778    3.0787905808
H    -5.9348439371    3.4565775747    1.7874808818
H    -2.4664057629    2.5823290741    4.1336857855
H    -4.6820282248    3.6172731919    3.9117852027
