71
Group 3 Molecule 1 Original_Index: 4 Energy(Hartree): -126.25208143
C    -0.6022770474   -3.5441769096   -1.3983455706
C     0.7232247418   -3.0944618362   -1.4806782229
C    -1.3926640421   -3.3555714164   -0.1628754837
C     1.3403520779   -2.3881324201   -0.3470042197
C    -1.1555082365   -4.2089685734   -2.4871297485
C     1.4662252449   -3.3421687537   -2.6287041123
C    -2.6208264815   -2.6835648303   -0.1832888497
C    -0.9349265339   -3.8731903422    1.0444487266
C    -0.4136920436   -4.4323273488   -3.6349744795
C     0.8991769029   -3.9998561139   -3.7058274785
C     2.4239906433   -2.9712840524    0.3039484724
C     0.8773127490   -1.1339875310    0.1040615961
C    -3.3665380244   -2.5649602015    0.9847466448
C    -1.6774093125   -3.7490472942    2.2036553835
C    -2.9014657643   -3.1019545854    2.1689369213
C     2.9843907824   -2.3863277719    1.4223985292
C     1.4226452157   -0.5793142226    1.2719497315
C     2.4565248643   -1.2041087565    1.9303297793
H    -2.1689747399   -4.5788967740   -2.4203249777
H     2.4877000404   -2.9931073488   -2.6805183872
H     0.0058288340   -4.4036858115    1.0610204947
H    -0.8598371564   -4.9510975519   -4.4692302711
H     1.4829912861   -4.1768749135   -4.5956728139
H     2.8030363533   -3.9129356295   -0.0644100493
H    -4.3143543706   -2.0519645661    0.9379525585
H    -1.3080628340   -4.1684821449    3.1263429745
H    -3.4970859886   -3.0124927331    3.0640088255
H     3.8152062167   -2.8621767894    1.9199911691
H     1.0095393454    0.3288833772    1.6852191669
H     2.8581900272   -0.7743394411    2.8340653953
C    -0.0975539769   -0.3971774790   -0.6805810976
O    -0.7782300005   -0.8049571938   -1.5978834753
O    -3.1125541712   -2.0882244954   -1.3041462836
H    -2.4951152304   -2.2173053358   -2.0391099749
C    -0.2721173046    1.0636057129   -0.3507481905
N     0.6365884053    2.0376656058   -0.2292903954
N    -1.4678511605    1.6656365037   -0.3134767777
N     0.0444880086    3.2295940619   -0.1053414840
C     2.0427712251    1.9300235440   -0.2159926522
C    -1.2323376581    2.9970178980   -0.1411296467
C    -2.7943324607    1.1052666206   -0.2575207795
C     2.7653527676    2.4852980434    0.8470957151
C     2.7320504998    1.2996936578   -1.2564814307
C    -2.4093961433    3.9012831765   -0.1490207613
H    -2.8141108174    0.1661159755   -0.8197654938
C    -3.8516772063    2.1221120155   -0.8013763757
C    -3.1771672396    0.8998226010    1.1899471855
C     4.1467113626    2.4046152911    0.8728579253
Cl    1.9297282088    3.2261523958    2.1504377094
C     4.1130175935    1.2154592338   -1.2313094503
Cl    1.8610387761    0.6300469213   -2.5828332048
H    -2.1291505670    4.9045819936   -0.4728452926
H    -2.8558974987    3.9553372668    0.8555510825
O    -3.3070791969    3.3889927746   -1.1032715021
C    -4.9625460012    2.1847961425    0.2738253420
H    -4.2483353748    1.7798809025   -1.7596361173
C    -4.3834120403    1.5225559778    1.4843951542
C    -2.4586424528    0.2212740790    2.1547494957
C     4.8168698922    1.7697577422   -0.1670696104
H     4.6972005521    2.8311720529    1.6956464211
H     4.6390783787    0.7328426200   -2.0386418453
H    -5.2589422024    3.2184642963    0.4579769945
H    -5.8478088111    1.6465692766   -0.0665559290
C    -4.8973262398    1.4592704041    2.7665836537
C    -2.9763631449    0.1639071778    3.4397292231
H    -1.5251059869   -0.2687451685    1.9162160911
Cl    6.5206469458    1.6648160250   -0.1363124808
C    -4.1828620872    0.7769321553    3.7400058754
H    -5.8364501792    1.9338763944    3.0039645591
H    -2.4342662056   -0.3647782029    4.2076533529
H    -4.5719680249    0.7222426447    4.7446801914
