71
Group 10 Molecule 1 Original_Index: 12 Energy(Hartree): -126.24937614
C     0.2875903905   -2.2416157608   -1.5569414347
C    -1.0745058040   -1.9340043775   -1.4196294314
C     1.0801277999   -2.8416973677   -0.4659462668
C    -1.7590200247   -2.1617233276   -0.1367017388
C     0.9017489033   -2.0169339106   -2.7863402950
C    -1.7843021401   -1.4467999070   -2.5141475614
C     0.6649482668   -4.0107852290    0.1854815116
C     2.3020378666   -2.2825551189   -0.1065287094
C     0.1961169542   -1.4967132875   -3.8547629331
C    -1.1535861543   -1.2108033891   -3.7200000486
C    -2.8659685161   -3.0003544107   -0.0604745167
C    -1.2515434347   -1.6066373085    1.0488057636
C     1.4440579768   -4.5483188177    1.2021262286
C     3.0700989760   -2.8162608979    0.9093502599
C     2.6327774427   -3.9493258951    1.5728566866
C    -3.4244405387   -3.3195631505    1.1646460974
C    -1.7807167770   -1.9823844477    2.2850021731
C    -2.8683093750   -2.8305712125    2.3394373339
H     1.9410988568   -2.2847348888   -2.9027263682
H    -2.8393323782   -1.2387089403   -2.4119399102
H     2.6454283007   -1.4033443927   -0.6295264603
H     0.6922365070   -1.3333291221   -4.7991695217
H    -1.7159002021   -0.8176285078   -4.5524752590
H    -3.2562819405   -3.4324984008   -0.9686795780
H     1.1116412428   -5.4506264736    1.6977112153
H     4.0051221462   -2.3507154513    1.1776625408
H     3.2210638148   -4.3767488554    2.3694351981
H    -4.2799394922   -3.9758423267    1.2076351146
H    -1.3440719703   -1.5769976150    3.1848022785
H    -3.2846740614   -3.1096450044    3.2943563395
C    -0.1795214067   -0.6028635924    1.0318618448
O     0.7738302331   -0.5932732275    1.7730489624
O    -0.4876015603   -4.6122307989   -0.2152538319
H    -0.5956855060   -5.4494697312    0.2530368878
C    -0.3693042349    0.5171566362    0.0441031391
N     0.6142863406    1.2488859821   -0.4977245529
N    -1.5135735707    0.9886739014   -0.4944627973
N     0.1375352640    2.1085592078   -1.3968338776
C     1.9800730348    1.2771493239   -0.1560727847
C    -1.1509596468    1.9576614685   -1.3805339550
C    -2.8929429768    0.8395403136   -0.0783755975
C     2.3723943659    1.6428171114    1.1370786444
C     2.9585761451    1.0385285523   -1.1272039921
C    -2.2055309044    2.6123984155   -2.1921660038
H    -3.0641258894   -0.1913063318    0.2360040241
C    -3.8841661190    1.2585591054   -1.2162151069
C    -3.1647990557    1.8173931733    1.0420679538
C     3.7109537775    1.6513416715    1.4850896001
Cl    1.1999910994    2.1664879000    2.2683080373
C     4.2998020522    1.0511233485   -0.7833281920
Cl    2.4860889009    0.7285419486   -2.7469970523
H    -1.8185065784    2.8848703808   -3.1754790833
H    -2.5597635883    3.5231494678   -1.6853920174
O    -3.2364826577    1.6794706358   -2.3935091303
C    -4.8100337923    2.3382373750   -0.6048938582
H    -4.4665928008    0.3925296959   -1.5392693597
C    -4.2170847589    2.6680735499    0.7288905523
C    -2.4779332564    1.9273628392    2.2358084756
C     4.6686854882    1.3304533779    0.5285407121
H     4.0086607468    1.9178792897    2.4863451607
H     5.0503450534    0.8469077829   -1.5295123686
H    -4.8761258256    3.2066380931   -1.2620781889
H    -5.8213621356    1.9479550857   -0.4859016035
C    -4.6013696325    3.6495717348    1.6241703516
C    -2.8664062418    2.9129095926    3.1299112925
H    -1.6592415109    1.2627699186    2.4714168106
Cl    6.3207974867    1.3195685459    0.9600702960
C    -3.9158436597    3.7659385692    2.8237497889
H    -5.4197296977    4.3124226730    1.3909695258
H    -2.3458119096    3.0154831085    4.0686696437
H    -4.2034420198    4.5295857645    3.5291252804
