71
Group 9 Molecule 1 Original_Index: 11 Energy(Hartree): -126.24948476
C    -0.4797819803   -3.5170448822   -1.4025704394
C     0.8136784258   -2.9792306900   -1.3702129660
C    -1.4330380101   -3.3311567945   -0.2938405797
C     1.3023376526   -2.2090593288   -0.2210442626
C    -0.8740844557   -4.2502179594   -2.5172166526
C     1.6832213533   -3.2150422791   -2.4336693621
C    -1.1149331394   -3.6721310034    1.0267834581
C    -2.7014806250   -2.8247536018   -0.5634142915
C    -0.0109998583   -4.4592820456   -3.5758747690
C     1.2736448964   -3.9394617035   -3.5351453252
C     2.4300480279   -2.6767383655    0.4543864149
C     0.7149270088   -1.0046069546    0.2167835953
C    -2.0503666360   -3.4757144731    2.0354882741
C    -3.6236234624   -2.6185021909    0.4464486588
C    -3.2958161450   -2.9459121728    1.7504286587
C     2.9053092127   -2.0439870278    1.5833551113
C     1.1851534332   -0.3951431682    1.3915940382
C     2.2552975834   -0.9174288866    2.0782434491
H    -1.8672798833   -4.6733856198   -2.5381455409
H     2.6801939839   -2.7981809067   -2.3977772420
H    -2.9501611100   -2.5822398063   -1.5850200123
H    -0.3354629557   -5.0328442023   -4.4305368712
H     1.9529331576   -4.1014394817   -4.3579931947
H     2.8991558794   -3.5816902673    0.1010001253
H    -1.7982345147   -3.7565163067    3.0498341149
H    -4.5994969868   -2.2183742257    0.2176750687
H    -4.0116020398   -2.8009359030    2.5448167829
H     3.7648930946   -2.4396837146    2.1019314786
H     0.6755217784    0.4715498348    1.7887617096
H     2.5909736463   -0.4516425617    2.9912374934
C    -0.2977196075   -0.3381866017   -0.5867376679
O    -1.0404890287   -0.8169680448   -1.4166914179
O     0.1036106665   -4.2211614545    1.2922616124
H     0.1294166133   -4.5271127023    2.2072941753
C    -0.4006204507    1.1522677132   -0.3880002431
N     0.5683034938    2.0696681813   -0.3007331580
N    -1.5542018928    1.8344001338   -0.4144949526
N     0.0564407501    3.3034594271   -0.2556192944
C     1.9619778741    1.8587465506   -0.2763758714
C    -1.2323151841    3.1541731378   -0.3095920441
C    -2.9116260738    1.3446687401   -0.4085598397
C     2.7275478103    2.4015221818    0.7615362840
C     2.5953274034    1.1272636212   -1.2866766309
C    -2.3398826663    4.1385944346   -0.3875047037
H    -2.9410279427    0.4269698689   -1.0039962724
C    -3.9006209327    2.4315964568   -0.9501038696
C    -3.3518936988    1.1008883939    1.0153477873
C     4.0961978525    2.1993037643    0.8016481756
Cl    1.9569464404    3.2791637573    2.0172803349
C     3.9627873673    0.9207998537   -1.2461466572
Cl    1.6713457478    0.4815235910   -2.5895681141
H    -1.9847288041    5.0968640219   -0.7690324603
H    -2.7855717220    4.2884741285    0.6076979535
O    -3.2696078352    3.6379410012   -1.3172012765
C    -4.9766897389    2.6169401028    0.1477805126
H    -4.3518080114    2.0894238832   -1.8842552665
C    -4.4917805118    1.8313083086    1.3254012437
C    -2.7347841314    0.2916336322    1.9494245405
C     4.7085255995    1.4551429541   -0.2003765537
H     4.6803881820    2.6145478134    1.6067821841
H     4.4472011052    0.3580718897   -2.0271998897
H    -5.1116049220    3.6752144306    0.3776088535
H    -5.9396232426    2.2374866040   -0.1951930755
C    -5.0384605537    1.7520662093    2.5932333580
C    -3.2852508659    0.2179615880    3.2197356049
H    -1.8565097169   -0.2840896365    1.6949349612
Cl    6.3942640831    1.1900470979   -0.1461118283
C    -4.4240590151    0.9423188409    3.5365538326
H    -5.9267371466    2.3110728652    2.8423268398
H    -2.8218654998   -0.4097747728    3.9643050290
H    -4.8393405184    0.8740199621    4.5298976466
