71
Group 18 Molecule 1 Original_Index: 18 Energy(Hartree): -126.24818833
C     0.2264896660   -2.2726277143   -1.5005807047
C    -1.1201033733   -1.8955122371   -1.3945085856
C     0.9768480935   -2.8512670618   -0.3694870257
C    -1.8258763303   -2.0106412689   -0.1062680111
C     0.8617890058   -2.1432555829   -2.7332062296
C    -1.7985851393   -1.4449652357   -2.5242164995
C     0.4954580021   -3.9625367099    0.3354063501
C     2.2208677741   -2.3349087185   -0.0222807215
C     0.1898630484   -1.6553784729   -3.8375759399
C    -1.1484756939   -1.3091786134   -3.7357140585
C    -2.9667193725   -2.7987082534    0.0061646581
C    -1.3141774390   -1.3966239933    1.0467894815
C     1.2339592377   -4.4830126857    1.3905518197
C     2.9482376828   -2.8511344152    1.0317811065
C     2.4461453107   -3.9241196042    1.7474253947
C    -3.5614407324   -3.0062761440    1.2381549525
C    -1.8827872905   -1.6603232771    2.2933275850
C    -3.0075412614   -2.4554483696    2.3852692127
H     1.8889420557   -2.4626415472   -2.8227646001
H    -2.8491801264   -1.1996196224   -2.4455556214
H     2.6144774694   -1.5031645558   -0.5857109595
H     0.7001171594   -1.5677225836   -4.7842753217
H    -1.6857700349   -0.9538644919   -4.6019587068
H    -3.3572015271   -3.2797676010   -0.8772618514
H     0.8506101699   -5.3402890161    1.9275198344
H     3.9019618146   -2.4188353570    1.2894812560
H     3.0020044917   -4.3366944551    2.5745065021
H    -4.4438861839   -3.6232549060    1.3087192078
H    -1.4460969280   -1.2127421123    3.1725494581
H    -3.4525784651   -2.6464262102    3.3488105304
C    -0.1865105937   -0.4538291540    0.9887889655
O     0.7688503822   -0.4765790832    1.7264536163
O    -0.6791027353   -4.5285401175   -0.0526063825
H    -0.8344011095   -5.3335975978    0.4570625557
C    -0.2990824532    0.6271820181   -0.0537026754
N     0.7404894119    1.2515803582   -0.6236564731
N    -1.4005328482    1.1173160931   -0.6640490756
N     0.3377253026    2.0635287872   -1.5990515584
C     2.0966797201    1.2303778522   -0.2473210677
C    -0.9575730878    1.9861507862   -1.6160079666
C    -2.7967025857    0.9928729668   -0.3155960225
C     2.4790152573    1.6497592409    1.0328099240
C     3.0833087680    0.8900070398   -1.1793624563
C    -1.9165764026    2.7033420477   -2.4951424300
H    -3.0596448982   -0.0671817865   -0.2414221278
C    -3.7101642220    1.6900284738   -1.3598720453
C    -3.1584471615    1.7036314935    0.9716532507
C     3.8095958751    1.6183400087    1.4096384082
Cl    1.3108023677    2.2858125753    2.1092366311
C     4.4161194014    0.8616582054   -0.8065088124
Cl    2.6310042273    0.5028118970   -2.7888184432
H    -2.0449496531    2.1228196918   -3.4255189220
H    -1.5334013669    3.6929548225   -2.7515549748
O    -3.1352385324    2.8879140886   -1.8341783130
C    -4.9525547499    2.0893263022   -0.5508200660
H    -3.9344004138    1.0241590275   -2.2057714851
C    -4.4076004213    2.3020038695    0.8310226638
C    -2.4455006780    1.7957561500    2.1477016801
C     4.7712350269    1.2016499063    0.4950718763
H     4.0986677849    1.9280440642    2.4009935079
H     5.1713381974    0.5797256616   -1.5220545134
H    -5.3941913179    2.9926265804   -0.9679055458
H    -5.6984020441    1.2931485756   -0.5613787000
C    -4.9682281649    2.9891323043    1.8887908748
C    -3.0104573514    2.4933743318    3.2066378723
H    -1.4664651823    1.3511630586    2.2521651249
Cl    6.4120660120    1.1438487037    0.9633575644
C    -4.2595413323    3.0776346778    3.0787905808
H    -5.9348439371    3.4565775747    1.7874808818
H    -2.4664057629    2.5823290741    4.1336857855
H    -4.6820282248    3.6172731919    3.9117852027
