71
Group 16 Molecule 1 Original_Index: 17 Energy(Hartree): -126.24834174
C     1.3583939931   -2.5799382111   -0.8696205253
C     1.3394345999   -1.9433768302    0.3787071115
C     0.2038388739   -3.3252974519   -1.4014688591
C     0.2779776567   -2.1654794895    1.3667536989
C     2.5144674155   -2.5069220078   -1.6428559470
C     2.4600727415   -1.2188224084    0.7910438592
C    -1.0838382878   -2.7812969285   -1.4447621414
C     0.3977923610   -4.6022616387   -1.9242323222
C     3.6320251166   -1.8236522403   -1.2022870483
C     3.6006104981   -1.1634185556    0.0149040531
C    -0.1898953083   -3.4557214061    1.6121009252
C    -0.1107491046   -1.1440466891    2.2467172083
C    -2.1290937791   -3.5079455566   -1.9973070704
C    -0.6471908522   -5.3290182127   -2.4610483888
C    -1.9163579897   -4.7778110368   -2.5003614812
C    -0.9981440629   -3.7280775057    2.6993060918
C    -0.8668674526   -1.4414627808    3.3876180538
C    -1.3195804521   -2.7255737356    3.6051246060
H     2.5290547857   -2.9992454771   -2.6035744981
H     2.4599405874   -0.7549266443    1.7673493166
H     1.3879438513   -5.0313450600   -1.8850729451
H     4.5288225466   -1.8119699057   -1.8017453321
H     4.4676674831   -0.6287544480    0.3693336662
H     0.1157851485   -4.2576365598    0.9589712367
H    -3.1155105376   -3.0637690241   -2.0359504652
H    -0.4715783687   -6.3187929378   -2.8513043785
H    -2.7398735089   -5.3306377119   -2.9240289428
H    -1.3481648952   -4.7351243481    2.8650261325
H    -1.1032453105   -0.6448009617    4.0784716058
H    -1.9130379256   -2.9468955401    4.4780305940
C     0.1796160024    0.2770992320    2.0229286057
O     0.4906350628    1.0733479364    2.8697734997
O    -1.3077223215   -1.5166031576   -0.9579512386
H    -2.2236540009   -1.2776048951   -1.1769740249
C    -0.2850197546    0.7719107963    0.6583718727
N     0.3012562017    1.2481034228   -0.4423194353
N    -1.6072670827    0.8516269316    0.4312866760
N    -0.6103906028    1.5908705767   -1.3592460184
C     1.6577039234    1.4021118200   -0.7985145182
C    -1.7642048633    1.3558304368   -0.8256956000
C    -2.7428042337    0.5928851394    1.2821468618
C     2.5316307528    2.1893572163   -0.0417249579
C     2.0997107098    0.8609017659   -2.0130592670
C    -3.1343703172    1.3544647173   -1.3956697946
H    -2.4605290132   -0.1504196998    2.0330175922
C    -3.9654271146    0.0962281077    0.4374164293
C    -3.2211631240    1.8804685355    1.9148208135
C     3.8450362658    2.3621151472   -0.4467375969
Cl    1.9690672162    2.9991205031    1.3622486794
C     3.4087214582    1.0438374301   -2.4237755186
Cl    1.0342992187   -0.0506789483   -2.9917538237
H    -3.1016917187    1.3266218271   -2.4852987429
H    -3.7052105334    2.2333709193   -1.0691405137
O    -3.7273190422    0.1475658194   -0.9556964648
C    -5.1646240398    0.9673060857    0.8732328376
H    -4.1538174451   -0.9624461278    0.6324825373
C    -4.5710263307    2.0934119043    1.6626424123
C    -2.4708590395    2.7857211048    2.6418483646
C     4.2813333166    1.7809639020   -1.6315878059
H     4.5157838047    2.9635642089    0.1452109227
H     3.7433571263    0.6210862003   -3.3567802947
H    -5.7255988957    1.3110111802    0.0028250508
H    -5.8493625576    0.3873348561    1.4932703291
C    -5.1955031735    3.2285266392    2.1447229663
C    -3.1025876291    3.9231402893    3.1221782166
H    -1.4234987154    2.6157847923    2.8422558970
Cl    5.9019761117    1.9899847792   -2.1293109610
C    -4.4488148911    4.1418340612    2.8739964890
H    -6.2438318265    3.3986449578    1.9561059145
H    -2.5382990094    4.6417387911    3.6949617031
H    -4.9229122963    5.0326503243    3.2549426567
