71
Group 8 Molecule 1 Original_Index: 9 Energy(Hartree): -126.24953680
C    -0.5297471504   -3.4014322100   -1.3490458905
C     0.7664941269   -2.8731131628   -1.3058945866
C    -1.4713983234   -3.2691640723   -0.2231459847
C     1.2645476847   -2.1234469025   -0.1468330821
C    -0.9344225507   -4.0937912706   -2.4864362422
C     1.6322418563   -3.0862442796   -2.3775297021
C    -1.1345186862   -3.6788329620    1.0729849236
C    -2.7504154786   -2.7699856454   -0.4526267279
C    -0.0773847823   -4.2751612057   -3.5547378651
C     1.2136512855   -3.7724866571   -3.4997332202
C     2.3931743957   -2.6047634325    0.5172137293
C     0.6973610049   -0.9114693566    0.2955628319
C    -2.0673823258   -3.5675058916    2.0965525113
C    -3.6690104328   -2.6461148516    0.5730434505
C    -3.3267239391   -3.0516957397    1.8508734499
C     2.8923266214   -1.9733906503    1.6366508449
C     1.2009843936   -0.2947098900    1.4525029902
C     2.2723812572   -0.8285384561    2.1280595642
H    -1.9309947223   -4.5083049246   -2.5165721697
H     2.6343439976   -2.6828005140   -2.3298032212
H    -3.0114959508   -2.4694341707   -1.4554116984
H    -0.4100853602   -4.8166444441   -4.4270201704
H     1.8902797878   -3.9173866291   -4.3280138221
H     2.8449631610   -3.5175361630    0.1614628392
H    -1.8024814323   -3.9058890577    3.0898802458
H    -4.6533959860   -2.2502316005    0.3764219398
H    -4.0428560967   -2.9799421989    2.6546545022
H     3.7511340324   -2.3805813499    2.1475982060
H     0.7175645567    0.5903334306    1.8424547967
H     2.6325177029   -0.3577890806    3.0290626864
C    -0.3271499242   -0.2378942008   -0.4859444363
O    -1.1062188118   -0.7076795504   -1.2866307610
O     0.0982834501   -4.2150572681    1.2978447358
H     0.1384838784   -4.5682642607    2.1952192952
C    -0.3673000917    1.2639360024   -0.3397092264
N     0.6503365770    2.1298337735   -0.3640932055
N    -1.4856231725    2.0023420407   -0.4191551804
N     0.2060022728    3.3876369983   -0.4357736819
C     2.0315359158    1.8436441277   -0.3476042193
C    -1.0903974925    3.3064138814   -0.4634498101
C    -2.8590674539    1.5626347344   -0.4220701255
C     2.8393664008    2.3743839214    0.6632678817
C     2.6070419950    1.0472442889   -1.3424628889
C    -2.1055803115    4.3865624418   -0.5631840825
H    -2.9595259080    0.7703685022   -1.1740843570
C    -3.8083022516    2.7536711603   -0.7184667339
C    -3.3483001884    1.0700710339    0.9224473694
C     4.1938918854    2.0906559568    0.6961427815
Cl    2.1335689228    3.3413613014    1.8908421836
C     3.9597178623    0.7594536255   -1.3098181683
Cl    1.6252305942    0.4237968094   -2.6135799004
H    -2.1663547529    4.7195567946   -1.6140213079
H    -1.8209779019    5.2428095855    0.0523239163
O    -3.3438160909    3.9355579602   -0.0944603913
C    -5.1143454411    2.3747788274   -0.0069699679
H    -3.9272271966    2.9197166061   -1.7983593754
C    -4.6447857576    1.5289338586    1.1398938465
C    -2.6986616296    0.2847763257    1.8500379659
C     4.7474350039    1.2784863787   -0.2870753511
H     4.8122171498    2.4952859519    1.4809305358
H     4.4012978032    0.1466164695   -2.0784425951
H    -5.6357235626    3.2722984259    0.3209787589
H    -5.7685148844    1.8076096737   -0.6705981100
C    -5.3112629549    1.1944532165    2.3012315815
C    -3.3668511609   -0.0348518606    3.0240167668
H    -1.6990769793   -0.0862999091    1.6766220148
Cl    6.4140739064    0.9107205458   -0.2394231561
C    -4.6585971506    0.4120602914    3.2438609798
H    -6.3165089931    1.5438199050    2.4765397227
H    -2.8699516525   -0.6372161949    3.7678918757
H    -5.1632047670    0.1530577990    4.1616576437
