71
Group 6 Molecule 1 Original_Index: 7 Energy(Hartree): -126.25017833
C     0.1598237100   -2.4211389772   -1.4083189314
C    -0.6393017004   -2.0665207895   -0.3099556515
C     1.4996334810   -3.0187932240   -1.2529971932
C    -0.2007662611   -2.2678427176    1.0763580189
C    -0.3340750679   -2.1837309022   -2.6893459999
C    -1.9198601700   -1.5556885615   -0.5300759947
C     1.8706527657   -4.1220864366   -2.0405970874
C     2.4231754277   -2.5290789114   -0.3344083615
C    -1.5867921772   -1.6353490833   -2.8927517309
C    -2.3953071000   -1.3354660024   -1.8101640628
C     0.3039030872   -3.5056327338    1.4723869140
C    -0.3791356863   -1.2736074212    2.0543798995
C     3.1363298411   -4.6798406260   -1.8996551007
C     3.6811371802   -3.0850333079   -0.2031610823
C     4.0411174263   -4.1630662596   -0.9927168966
C     0.6652127747   -3.7475703176    2.7824408432
C    -0.0317550310   -1.5439159090    3.3866716696
C     0.5102311496   -2.7567233500    3.7445625013
H     0.2771601558   -2.4368287042   -3.5400996275
H    -2.5698610993   -1.4016302797    0.3222649151
H     2.1487696183   -1.6959973573    0.2934986385
H    -1.9431573875   -1.4632996674   -3.8962416840
H    -3.3893829767   -0.9464832831   -1.9670409556
H     0.3861944188   -4.2908611556    0.7377146816
H     3.4059665618   -5.5316708222   -2.5092338032
H     4.3742982554   -2.6803398318    0.5170319261
H     5.0195582813   -4.6070203368   -0.8993788199
H     1.0507784256   -4.7158565983    3.0611583233
H    -0.1957485335   -0.7728282060    4.1241103354
H     0.7884930821   -2.9434030169    4.7695716354
C    -1.0371591576    0.0162437109    1.8367100143
O    -1.7190308086    0.5473421907    2.6898179420
O     0.9675636575   -4.6477440728   -2.9055516925
H     1.3358531549   -5.4307923024   -3.3341569983
C    -0.9700460718    0.7476294789    0.5160202803
N     0.0400725723    1.0607593402   -0.3113577064
N    -2.0471147218    1.3968123888    0.0331705541
N    -0.3941749829    1.8199105153   -1.3267410097
C     1.4186901508    0.8021304380   -0.2106665732
C    -1.6571626814    2.0137576507   -1.1157959490
C    -3.3792224083    1.5867522290    0.5453948993
C     2.1002793146    0.9697962961    1.0022126095
C     2.1616156573    0.4916742360   -1.3608982324
C    -2.7225630600    2.6114669048   -1.9586833984
H    -3.6044496582    0.8035944546    1.2736893674
C    -4.4182729279    1.6143339079   -0.6248415707
C    -3.4993906516    2.9607444039    1.1723569964
C     3.4651646959    0.7635050041    1.0868111188
Cl    1.2598487975    1.5074041394    2.4056012115
C     3.5305973780    0.2904123237   -1.2775564750
Cl    1.4040794536    0.3388279007   -2.8828966579
H    -2.4069641316    2.6661128256   -3.0009570030
H    -2.9920101009    3.6161438336   -1.6034190395
O    -3.8091226314    1.7160469919   -1.8950116166
C    -5.3501695273    2.8081478935   -0.3216971041
H    -4.9758469246    0.6759548293   -0.6738352674
C    -4.5987513946    3.6445516378    0.6665871832
C    -2.6632971426    3.5353178105    2.1096610470
C     4.1781717621    0.4134760756   -0.0557259865
H     3.9733254499    0.8936820287    2.0284905896
H     4.0868223176    0.0404126514   -2.1659597645
H    -5.5904846941    3.3459221424   -1.2396353944
H    -6.2877378790    2.4576100298    0.1120707537
C    -4.8797309783    4.9255944514    1.1027287164
C    -2.9486097811    4.8216729853    2.5426075106
H    -1.8230323111    2.9918024082    2.5121716316
Cl    5.8617072841    0.1534319856    0.0447119971
C    -4.0431117546    5.5091673475    2.0424782618
H    -5.7344101363    5.4594470040    0.7177302527
H    -2.3120184839    5.2884007660    3.2776854583
H    -4.2494128710    6.5091510694    2.3906105234
