71
Group 15 Molecule 1 Original_Index: 15 Energy(Hartree): -126.24880547
C     0.1462986943   -2.4891349902   -1.5851792543
C     1.4068528431   -1.9570195222   -1.2757055449
C    -0.8139923804   -2.8967694525   -0.5394957402
C     1.8878560189   -1.8228050898    0.1105314396
C    -0.1865535657   -2.7194883160   -2.9199797947
C     2.2907553956   -1.6869495394   -2.3207270759
C    -2.1409698561   -2.4514330593   -0.5793484930
C    -0.4396745884   -3.7995722615    0.4549650663
C     0.6963394324   -2.4267539602   -3.9431976147
C     1.9418645778   -1.9059088125   -3.6394419718
C     3.1730136326   -2.3010938706    0.3739986548
C     1.1197376936   -1.3822659512    1.2013317131
C    -3.0488070541   -2.8840912246    0.3818987147
C    -1.3385623674   -4.2085511754    1.4171863508
C    -2.6455439694   -3.7456199084    1.3818437859
C     3.6875798284   -2.3622439091    1.6542877958
C     1.6243738508   -1.5234149557    2.5009021044
C     2.8995583410   -1.9901915996    2.7319450592
H    -1.1281204261   -3.1977817915   -3.1548670821
H     3.2683141640   -1.2910561758   -2.0910360085
H     0.5714085401   -4.1786176745    0.4598926643
H     0.4201206358   -2.6257854169   -4.9666473284
H     2.6475911460   -1.6886382028   -4.4255528642
H     3.7641449472   -2.6783099502   -0.4458555369
H    -4.0716687825   -2.5461357048    0.3176205323
H    -1.0267132595   -4.8951689222    2.1875528890
H    -3.3556259635   -4.0671337637    2.1268992176
H     4.6873137433   -2.7353573028    1.8129439393
H     0.9902616120   -1.2354620193    3.3256390338
H     3.2705398876   -2.0747229086    3.7408083890
C    -0.2300174852   -0.7898411563    1.1784650314
O    -1.0577499410   -1.0415248803    2.0302429423
O    -2.5768554241   -1.5407788798   -1.5007101268
H    -1.9576475723   -1.4891299761   -2.2420153880
C    -0.5648011801    0.3133329502    0.2184465897
N     0.2251578158    1.1119712165   -0.5191229708
N    -1.8180581965    0.7707601880    0.0266753664
N    -0.4951050508    2.0133114768   -1.1902177004
C     1.6281739474    1.2188289220   -0.5522075837
C    -1.7310597546    1.8041512753   -0.8538552907
C    -3.0710066981    0.4867637808    0.6758683258
C     2.3557360572    1.4047788003    0.6289352286
C     2.2926027561    1.2924878556   -1.7814989293
C    -2.9962797753    2.4074534982   -1.3401471753
H    -3.0421941253   -0.5278951530    1.0812405725
C    -4.2703903858    0.6914440414   -0.3066863638
C    -3.3132996506    1.5042990450    1.7700402637
C     3.7325399205    1.5188999796    0.5956352759
Cl    1.5262226024    1.5763052736    2.1250142205
C     3.6723020131    1.4199937272   -1.8191458218
Cl    1.4007725424    1.2307141817   -3.2417145216
H    -2.8552142335    2.8707270857   -2.3176743580
H    -3.3584650713    3.1650414539   -0.6284558961
O    -3.9072161078    1.3496190404   -1.5014240913
C    -5.3282219488    1.4782699404    0.4992121202
H    -4.6516577715   -0.2703279011   -0.6540642196
C    -4.5795788829    2.0658305848    1.6543966982
C    -2.4437656899    1.8887183547    2.7715471449
C     4.3899187719    1.5011462107   -0.6317366444
H     4.2890649505    1.6480642042    1.5095189770
H     4.1821113944    1.4636383229   -2.7680015324
H    -5.8016632436    2.2335667670   -0.1291587792
H    -6.1107759533    0.8074722055    0.8562237904
C    -4.9954093058    3.0273464786    2.5562938253
C    -2.8650151155    2.8553215848    3.6726398366
H    -1.4665529436    1.4396777902    2.8636798955
Cl    6.0931011547    1.6217545886   -0.6763682738
C    -4.1263730186    3.4191710257    3.5636858346
H    -5.9781690070    3.4647704796    2.4751620432
H    -2.2037413239    3.1681469086    4.4653595094
H    -4.4371024312    4.1704784725    4.2726995555
