71
Group 5 Molecule 1 Original_Index: 6 Energy(Hartree): -126.25147368
C     0.3829691826   -2.3282651769   -1.5301857079
C     1.6312547840   -1.9179758476   -1.0436797614
C    -0.7265382765   -2.7374672543   -0.6476526447
C     1.9554902648   -1.8358866576    0.3899798627
C     0.2037843098   -2.4793959006   -2.9035213232
C     2.6579251222   -1.6786090648   -1.9615772983
C    -2.0335009880   -2.2911381995   -0.8995261258
C    -0.5296797789   -3.6961466715    0.3441414453
C     1.2324641343   -2.2463533720   -3.7944084649
C     2.4688406979   -1.8432705230   -3.3185294554
C     3.1967631012   -2.3474036112    0.7799958259
C     1.0924472515   -1.3866986247    1.4032923080
C    -3.0938434124   -2.7974034178   -0.1597858717
C    -1.5828252381   -4.1664667580    1.1017053283
C    -2.8691636080   -3.7205390595    0.8444944879
C     3.5903028662   -2.4092912441    2.1015859535
C     1.4807859134   -1.5132775166    2.7452648294
C     2.7214737940   -1.9938185906    3.0984227781
H    -0.7514894695   -2.8206051512   -3.2700421829
H     3.6194458701   -1.3475977061   -1.5991725343
H     0.4672513781   -4.0753362107    0.5102691444
H     1.0736687237   -2.3895628411   -4.8517022822
H     3.2851071199   -1.6641894568   -4.0008490090
H     3.8522680626   -2.7482544720    0.0229740628
H    -4.1016074181   -2.4771389874   -0.3891152239
H    -1.4066576899   -4.8940400796    1.8771727399
H    -3.7009455026   -4.0975247283    1.4183717023
H     4.5599102898   -2.8090584049    2.3546316357
H     0.7816296331   -1.2042589208    3.5075643791
H     3.0007810197   -2.0614323800    4.1376444759
C    -0.2726619076   -0.8452901351    1.2726346762
O    -1.1386675640   -1.1582636267    2.0687098859
O    -2.2149639930   -1.3246878188   -1.8479255360
H    -3.1567806013   -1.1715619791   -2.0076055042
C    -0.6246194746    0.2302143893    0.2925325456
N     0.1112216096    0.9699703655   -0.5536004275
N    -1.9024544011    0.6240697172    0.0950513810
N    -0.6648713556    1.7567603012   -1.3022722426
C     1.5027743668    1.1448353861   -0.6408407198
C    -1.8804927748    1.5398805525   -0.9085064470
C    -3.1072232407    0.4042118977    0.8636740713
C     2.2634840112    1.4093188232    0.5039722888
C     2.1188858636    1.2146039376   -1.8980537622
C    -3.1743543959    2.0275792746   -1.4470116548
H    -3.0569611879   -0.5871312047    1.3224027805
C    -4.3860600747    0.5827479961   -0.0188135430
C    -3.2179141819    1.4961227882    1.9068897754
C     3.6277867684    1.6113241442    0.4148071978
Cl    1.4900104392    1.5837016947    2.0297025159
C     3.4848597145    1.4331010090   -1.9906781893
Cl    1.1934324040    1.0346343254   -3.3226423656
H    -3.0787941448    2.2766566322   -2.5047555534
H    -3.5125911002    2.9171423968   -0.8964659590
O    -4.0910787175    0.9630126611   -1.3466794296
C    -5.2841130357    1.6017351555    0.7189699491
H    -4.9059733096   -0.3715219153   -0.1285005615
C    -4.4237422804    2.1775401971    1.7993990100
C    -2.2762980827    1.8499543483    2.8537459599
C     4.2388472402    1.6015919715   -0.8361055293
H     4.2072889528    1.8030774071    1.3031506949
H     3.9547629602    1.4748821582   -2.9596521641
H    -5.6597735692    2.3576184512    0.0274739810
H    -6.1505017521    1.0996196632    1.1513200943
C    -4.7056381855    3.2291772934    2.6514782202
C    -2.5624931353    2.9055242304    3.7058799856
H    -1.3464467735    1.3098533598    2.9414061423
Cl    5.9268783154    1.8373583548   -0.9503617567
C    -3.7636578665    3.5895411006    3.6027918029
H    -5.6428090775    3.7580252699    2.5755371100
H    -1.8428893634    3.1940393390    4.4557783957
H    -3.9698232141    4.4093200644    4.2728917824
71
Group 5 Molecule 2 Original_Index: 15 Energy(Hartree): -126.24880547
C     0.1462986943   -2.4891349902   -1.5851792543
C     1.4068528431   -1.9570195222   -1.2757055449
C    -0.8139923804   -2.8967694525   -0.5394957402
C     1.8878560189   -1.8228050898    0.1105314396
C    -0.1865535657   -2.7194883160   -2.9199797947
C     2.2907553956   -1.6869495394   -2.3207270759
C    -2.1409698561   -2.4514330593   -0.5793484930
C    -0.4396745884   -3.7995722615    0.4549650663
C     0.6963394324   -2.4267539602   -3.9431976147
C     1.9418645778   -1.9059088125   -3.6394419718
C     3.1730136326   -2.3010938706    0.3739986548
C     1.1197376936   -1.3822659512    1.2013317131
C    -3.0488070541   -2.8840912246    0.3818987147
C    -1.3385623674   -4.2085511754    1.4171863508
C    -2.6455439694   -3.7456199084    1.3818437859
C     3.6875798284   -2.3622439091    1.6542877958
C     1.6243738508   -1.5234149557    2.5009021044
C     2.8995583410   -1.9901915996    2.7319450592
H    -1.1281204261   -3.1977817915   -3.1548670821
H     3.2683141640   -1.2910561758   -2.0910360085
H     0.5714085401   -4.1786176745    0.4598926643
H     0.4201206358   -2.6257854169   -4.9666473284
H     2.6475911460   -1.6886382028   -4.4255528642
H     3.7641449472   -2.6783099502   -0.4458555369
H    -4.0716687825   -2.5461357048    0.3176205323
H    -1.0267132595   -4.8951689222    2.1875528890
H    -3.3556259635   -4.0671337637    2.1268992176
H     4.6873137433   -2.7353573028    1.8129439393
H     0.9902616120   -1.2354620193    3.3256390338
H     3.2705398876   -2.0747229086    3.7408083890
C    -0.2300174852   -0.7898411563    1.1784650314
O    -1.0577499410   -1.0415248803    2.0302429423
O    -2.5768554241   -1.5407788798   -1.5007101268
H    -1.9576475723   -1.4891299761   -2.2420153880
C    -0.5648011801    0.3133329502    0.2184465897
N     0.2251578158    1.1119712165   -0.5191229708
N    -1.8180581965    0.7707601880    0.0266753664
N    -0.4951050508    2.0133114768   -1.1902177004
C     1.6281739474    1.2188289220   -0.5522075837
C    -1.7310597546    1.8041512753   -0.8538552907
C    -3.0710066981    0.4867637808    0.6758683258
C     2.3557360572    1.4047788003    0.6289352286
C     2.2926027561    1.2924878556   -1.7814989293
C    -2.9962797753    2.4074534982   -1.3401471753
H    -3.0421941253   -0.5278951530    1.0812405725
C    -4.2703903858    0.6914440414   -0.3066863638
C    -3.3132996506    1.5042990450    1.7700402637
C     3.7325399205    1.5188999796    0.5956352759
Cl    1.5262226024    1.5763052736    2.1250142205
C     3.6723020131    1.4199937272   -1.8191458218
Cl    1.4007725424    1.2307141817   -3.2417145216
H    -2.8552142335    2.8707270857   -2.3176743580
H    -3.3584650713    3.1650414539   -0.6284558961
O    -3.9072161078    1.3496190404   -1.5014240913
C    -5.3282219488    1.4782699404    0.4992121202
H    -4.6516577715   -0.2703279011   -0.6540642196
C    -4.5795788829    2.0658305848    1.6543966982
C    -2.4437656899    1.8887183547    2.7715471449
C     4.3899187719    1.5011462107   -0.6317366444
H     4.2890649505    1.6480642042    1.5095189770
H     4.1821113944    1.4636383229   -2.7680015324
H    -5.8016632436    2.2335667670   -0.1291587792
H    -6.1107759533    0.8074722055    0.8562237904
C    -4.9954093058    3.0273464786    2.5562938253
C    -2.8650151155    2.8553215848    3.6726398366
H    -1.4665529436    1.4396777902    2.8636798955
Cl    6.0931011547    1.6217545886   -0.6763682738
C    -4.1263730186    3.4191710257    3.5636858346
H    -5.9781690070    3.4647704796    2.4751620432
H    -2.2037413239    3.1681469086    4.4653595094
H    -4.4371024312    4.1704784725    4.2726995555
