15
Group 1 Molecule 1 Original_Index: 2 Energy(Hartree): -3353.41413423
C    -0.5709023900   -0.0644567200    0.0000000000
C     0.8242576100   -0.0644567200    0.0000000000
C     1.5217956100    1.1432942800    0.0000000000
C     0.8241416100    2.3518032800   -0.0011990000
C    -0.5706833900    2.3517252800   -0.0016780000
C    -1.2682843900    1.1435192800   -0.0006820000
H    -1.1206613900   -1.0167737200    0.0004500000
H     1.3737656100   -1.0169697200    0.0013150000
H     1.3743416100    3.3039462800   -0.0012580000
H    -1.1208053900    3.3040062800   -0.0026310000
H    -2.3678883900    1.1437022800   -0.0008620000
C     3.0617953500    1.1434063100    0.0008878600
H     3.4190423000    1.1558203300   -1.0076360700
H     3.4181015700    2.0108236500    0.5161868300
H     3.4182415500    0.2636527500    0.4947297200
15
Group 1 Molecule 2 Original_Index: 1 Energy(Hartree): -3353.40000012
C    -0.5709023900   -0.0644567200    0.0000000000
C     0.8242576100   -0.0644567200    0.0000000000
C     1.5217956100    1.1432942800    0.0000000000
C     0.8241416100    2.3518032800   -0.0011990000
C    -0.5706833900    2.3517252800   -0.0016780000
C    -1.2682843900    1.1435192800   -0.0006820000
H    -1.1206613900   -1.0167737200    0.0004500000
H     1.3737656100   -1.0169697200    0.0013150000
H     1.3743416100    3.3039462800   -0.0012580000
H    -1.1208053900    3.3040062800   -0.0026310000
H    -2.3678883900    1.1437022800   -0.0008620000
C     3.0617953500    1.1434063100    0.0008878600
H     3.4183929500    2.1522050700   -0.0070633200
H     3.4179917900    0.6461096000    0.8787945000
H     3.4190006700    0.6319820900   -0.8684507500
