      -----------------------------------------------------------      
     |                   =====================                   |     
     |                           x T B                           |     
     |                   =====================                   |     
     |                         S. Grimme                         |     
     |          Mulliken Center for Theoretical Chemistry        |     
     |                    University of Bonn                     |     
      -----------------------------------------------------------      

   * xtb version 6.7.1 (edcfbbe) compiled by 'runner@Mac-1756978095027.local' on 2025-09-04

   xtb is free software: you can redistribute it and/or modify it under
   the terms of the GNU Lesser General Public License as published by
   the Free Software Foundation, either version 3 of the License, or
   (at your option) any later version.
   
   xtb is distributed in the hope that it will be useful,
   but WITHOUT ANY WARRANTY; without even the implied warranty of
   MERCHANTABILITY or FITNESS FOR A PARTICULAR PURPOSE.  See the
   GNU Lesser General Public License for more details.
   
   Cite this work as:
   * C. Bannwarth, E. Caldeweyher, S. Ehlert, A. Hansen, P. Pracht,
     J. Seibert, S. Spicher, S. Grimme, WIREs Comput. Mol. Sci., 2020, 11,
     e01493. DOI: 10.1002/wcms.1493
   
   for GFN2-xTB:
   * C. Bannwarth, S. Ehlert and S. Grimme., J. Chem. Theory Comput., 2019,
     15, 1652-1671. DOI: 10.1021/acs.jctc.8b01176
   for GFN1-xTB:
   * S. Grimme, C. Bannwarth, P. Shushkov, J. Chem. Theory Comput., 2017,
     13, 1989-2009. DOI: 10.1021/acs.jctc.7b00118
   for GFN0-xTB:
   * P. Pracht, E. Caldeweyher, S. Ehlert, S. Grimme, ChemRxiv, 2019, preprint.
     DOI: 10.26434/chemrxiv.8326202.v1
   for GFN-FF:
   * S. Spicher and S. Grimme, Angew. Chem. Int. Ed., 2020, 59, 15665-15673.
     DOI: 10.1002/anie.202004239
   
   for ALPB and GBSA implicit solvation:
   * S. Ehlert, M. Stahn, S. Spicher, S. Grimme, J. Chem. Theory Comput.,
     2021, 17, 4250-4261. DOI: 10.1021/acs.jctc.1c00471
   
   for ddCOSMO and CPCM-X implicit solvation:
   * M. Stahn, S. Ehlert, S. Grimme, J. Phys. Chem. A,
     2023, XX, XXXX-XXXX. DOI: 10.1021/acs.jpca.3c04382
   
   for DFT-D4:
   * E. Caldeweyher, C. Bannwarth and S. Grimme, J. Chem. Phys., 2017,
     147, 034112. DOI: 10.1063/1.4993215
   * E. Caldeweyher, S. Ehlert, A. Hansen, H. Neugebauer, S. Spicher,
     C. Bannwarth and S. Grimme, J. Chem. Phys., 2019, 150, 154122.
     DOI: 10.1063/1.5090222
   * E. Caldeweyher, J.-M. Mewes, S. Ehlert and S. Grimme, Phys. Chem. Chem. Phys.
     2020, 22, 8499-8512. DOI: 10.1039/D0CP00502A
   
   for sTDA-xTB:
   * S. Grimme and C. Bannwarth, J. Chem. Phys., 2016, 145, 054103.
     DOI: 10.1063/1.4959605
   
   in the mass-spec context:
   * V. Asgeirsson, C. Bauer and S. Grimme, Chem. Sci., 2017, 8, 4879.
     DOI: 10.1039/c7sc00601b
   * J. Koopman and S. Grimme, ACS Omega 2019, 4, 12, 15120-15133.
     DOI: 10.1021/acsomega.9b02011
   
   for metadynamics refer to:
   * S. Grimme, J. Chem. Theory Comput., 2019, 155, 2847-2862
     DOI: 10.1021/acs.jctc.9b00143
   
   for SPH calculations refer to:
   * S. Spicher and S. Grimme, J. Chem. Theory Comput., 2021, 17, 1701-1714
     DOI: 10.1021/acs.jctc.0c01306
   
   for ONIOM refer to:
   * C. Plett, A. Katbashev, S. Ehlert, S. Grimme, M. Bursch,
     Phys. Chem. Chem. Phys., 2023, 25, 17860-17868. DOI: 10.1039/D3CP02178E
   
   for DIPRO refer to:
   * J. Kohn, N. Gildemeister, S. Grimme, D. Fazzi, A. Hansen,
     J. Chem. Phys., 2023, just accepted.
   
   for PTB refer to:
   * S. Grimme, M. Mueller, A. Hansen, J. Chem. Phys., 2023, 158, 124111.
     DOI: 10.1063/5.0137838
   
   with help from (in alphabetical order)
   P. Atkinson, C. Bannwarth, F. Bohle, G. Brandenburg, E. Caldeweyher
   M. Checinski, S. Dohm, S. Ehlert, S. Ehrlich, I. Gerasimov, C. Hölzer
   A. Katbashev, J. Kohn, J. Koopman, C. Lavigne, S. Lehtola, F. März, M. Müller,
   F. Musil, H. Neugebauer, J. Pisarek, C. Plett, P. Pracht, F. Pultar,
   J. Seibert, P. Shushkov, S. Spicher, M. Stahn, M. Steiner, T. Strunk,
   J. Stückrath, T. Rose, and J. Unsleber
   
 * started run on 2026/01/02 at 16:08:12.587     
   ID    Z sym.   atoms
    1    6 c      1-5
    2    1 h      6-10

           -------------------------------------------------
          |                Calculation Setup                |
           -------------------------------------------------

          program call               : xtb cyclopentadienyl_anion.coord --opt
          coordinate file            : cyclopentadienyl_anion.coord
          omp threads                :                    10


           -------------------------------------------------
          |                 G F N 2 - x T B                 |
           -------------------------------------------------

        Reference                      10.1021/acs.jctc.8b01176
      * Hamiltonian:
        H0-scaling (s, p, d)           1.850000    2.230000    2.230000
        zeta-weighting                 0.500000
      * Dispersion:
        s8                             2.700000
        a1                             0.520000
        a2                             5.000000
        s9                             5.000000
      * Repulsion:
        kExp                           1.500000    1.000000
        rExp                           1.000000
      * Coulomb:
        alpha                          2.000000
        third order                    shell-resolved
        anisotropic                    true
        a3                             3.000000
        a5                             4.000000
        cn-shift                       1.200000
        cn-exp                         4.000000
        max-rad                        5.000000


          ...................................................
          :                      SETUP                      :
          :.................................................:
          :  # basis functions                  25          :
          :  # atomic orbitals                  25          :
          :  # shells                           15          :
          :  # electrons                        25          :
          :  max. iterations                   250          :
          :  Hamiltonian                  GFN2-xTB          :
          :  restarted?                      false          :
          :  GBSA solvation                  false          :
          :  PC potential                    false          :
          :  electronic temp.          300.0000000     K    :
          :  accuracy                    1.0000000          :
          :  -> integral cutoff          0.2500000E+02      :
          :  -> integral neglect         0.1000000E-07      :
          :  -> SCF convergence          0.1000000E-05 Eh   :
          :  -> wf. convergence          0.1000000E-03 e    :
          :  Broyden damping             0.4000000          :
          :  net charge                          0          :
          :  unpaired electrons                  0          :
          ...................................................

 iter      E             dE          RMSdq      gap      omega  full diag
   1    -13.0626180 -0.130626E+02  0.439E+00    0.99       0.0  T
   2    -13.0692551 -0.663705E-02  0.262E+00    1.11       1.0  T
   3    -13.0213836  0.478715E-01  0.226E+00    0.84       1.0  T
   4    -13.0702357 -0.488521E-01  0.535E-01    1.11       1.0  T
   5    -13.0677229  0.251279E-02  0.620E-01    0.99       1.0  T
   6    -13.0727867 -0.506379E-02  0.895E-02    1.03       1.0  T
   7    -13.0726194  0.167294E-03  0.130E-01    1.04       1.0  T
   8    -13.0727914 -0.172065E-03  0.278E-02    1.04       1.1  T
   9    -13.0727983 -0.687068E-05  0.500E-03    1.04       6.3  T
  10    -13.0727985 -0.224185E-06  0.266E-03    1.04      11.9  T
  11    -13.0727985 -0.265641E-07  0.523E-04    1.04      60.5  T
  12    -13.0727985 -0.143190E-08  0.168E-04    1.04     188.2  T

   *** convergence criteria satisfied after 12 iterations ***

         #    Occupation            Energy/Eh            Energy/eV
      -------------------------------------------------------------
         1        2.0000           -0.6314829             -17.1835
       ...           ...                  ...                  ...
         7        2.0000           -0.4921394             -13.3918
         8        2.0000           -0.4548168             -12.3762
         9        2.0000           -0.4503757             -12.2553
        10        2.0000           -0.4384141             -11.9299
        11        2.0000           -0.3967416             -10.7959
        12        2.0000           -0.3695238             -10.0553
        13        1.0000           -0.3440029              -9.3608 (HOMO)
        14                         -0.3059439              -8.3252 (LUMO)
        15                         -0.2741392              -7.4597
        16                          0.0448579               1.2206
        17                          0.0679048               1.8478
        18                          0.1144706               3.1149
       ...                                ...                  ...
        25                          0.2809369               7.6447
      -------------------------------------------------------------
                  HL-Gap            0.0380590 Eh            1.0356 eV
             Fermi-level           -0.3408684 Eh           -9.2755 eV

 SCC (total)                   0 d,  0 h,  0 min,  0.183 sec
 SCC setup                      ...        0 min,  0.004 sec (  2.031%)
 Dispersion                     ...        0 min,  0.002 sec (  1.028%)
 classical contributions        ...        0 min,  0.000 sec (  0.216%)
 integral evaluation            ...        0 min,  0.001 sec (  0.342%)
 iterations                     ...        0 min,  0.169 sec ( 92.320%)
 molecular gradient             ...        0 min,  0.007 sec (  3.924%)
 printout                       ...        0 min,  0.000 sec (  0.133%)

         :::::::::::::::::::::::::::::::::::::::::::::::::::::
         ::                     SUMMARY                     ::
         :::::::::::::::::::::::::::::::::::::::::::::::::::::
         :: total energy             -12.934909282393 Eh    ::
         :: gradient norm              0.238275056231 Eh/a0 ::
         :: HOMO-LUMO gap              1.035639207152 eV    ::
         ::.................................................::
         :: SCC energy               -13.072796187189 Eh    ::
         :: -> isotropic ES            0.000654260677 Eh    ::
         :: -> anisotropic ES          0.003329445260 Eh    ::
         :: -> anisotropic XC          0.012548539858 Eh    ::
         :: -> dispersion             -0.005665619356 Eh    ::
         :: repulsion energy           0.137886904796 Eh    ::
         :: add. restraining           0.000000000000 Eh    ::
         :: total charge              -0.000000000000 e     ::
         :::::::::::::::::::::::::::::::::::::::::::::::::::::

      ----------------------------------------------------------- 
     |                   =====================                   |
     |                        A N C O P T                        |
     |                   =====================                   |
     |               Approximate Normal Coordinate               |
     |                Rational Function Optimizer                |
      ----------------------------------------------------------- 
      ----------------------------------------------------------- 
     |                   =====================                   |
     |                        A N C O P T                        |
     |                   =====================                   |
     |               Approximate Normal Coordinate               |
     |                Rational Function Optimizer                |
      ----------------------------------------------------------- 

          ...................................................
          :                      SETUP                      :
          :.................................................:
          :   optimization level            normal          :
          :   max. optcycles                   200          :
          :   ANC micro-cycles                  20          :
          :   degrees of freedom                24          :
          :.................................................:
          :   RF solver                   davidson          :
          :   write xtbopt.log                true          :
          :   linear?                        false          :
          :   energy convergence         0.5000000E-05 Eh   :
          :   grad. convergence          0.1000000E-02 Eh/α :
          :   maxmium RF displ.          1.0000000          :
          :   Hlow (freq-cutoff)         0.1000000E-01      :
          :   Hmax (freq-cutoff)         5.0000000          :
          :   S6 in model hess.         20.0000000          :
          ...................................................

generating ANC from exact Hessian ...
Using Lindh-Hessian (1995)
 Shifting diagonal of input Hessian by    1.9814704731871916E-003
 Lowest  eigenvalues of input Hessian
    0.000000    0.000000    0.000000    0.000000    0.000000    0.000000
    0.010000    0.012816    0.027618    0.038206    0.040634    0.045657
    0.050543    0.063516    0.077592    0.085498    0.124076    0.139729
 Highest eigenvalues
    0.821712    1.006732    1.025690    1.051694    1.057716    1.113148


........................................................................
.............................. CYCLE    1 ..............................
........................................................................

 iter      E             dE          RMSdq      gap      omega  full diag
   1    -13.0727985 -0.130728E+02  0.305E-05    1.04       0.0  T
   2    -13.0727985  0.150013E-10  0.429E-05    1.04     736.7  T
   3    -13.0727985 -0.180265E-10  0.165E-05    1.04    1916.1  T
     SCC iter.                  ...        0 min,  0.048 sec
     gradient                   ...        0 min,  0.001 sec
 * total energy  :   -12.9349093 Eh     change       -0.1568186E-09 Eh
   gradient norm :     0.2381132 Eh/α   predicted     0.0000000E+00 (-100.00%)
   displ. norm   :     0.5820253 α      lambda       -0.1119660E+00
   maximum displ.:     0.3477062 α      in ANC's #15, #2, #4, ...

........................................................................
.............................. CYCLE    2 ..............................
........................................................................

 iter      E             dE          RMSdq      gap      omega  full diag
   1    -13.2037239 -0.132037E+02  0.101E+00    1.84       0.0  T
   2    -13.2031900  0.533958E-03  0.640E-01    1.85       1.0  T
   3    -13.1977101  0.547989E-02  0.857E-01    1.81       1.0  T
   4    -13.2039628 -0.625270E-02  0.135E-01    1.84       1.0  T
   5    -13.2041731 -0.210305E-03  0.341E-02    1.84       1.0  T
   6    -13.2041798 -0.676372E-05  0.183E-02    1.84       1.7  T
   7    -13.2041814 -0.155453E-05  0.519E-03    1.84       6.1  T
   8    -13.2041813  0.513506E-07  0.421E-03    1.84       7.5  T
   9    -13.2041815 -0.154036E-06  0.975E-04    1.84      32.4  T
  10    -13.2041815 -0.330029E-08  0.139E-04    1.84     227.0  T
     SCC iter.                  ...        0 min,  0.154 sec
     gradient                   ...        0 min,  0.009 sec
 * total energy  :   -13.0236069 Eh     change       -0.8869761E-01 Eh
   gradient norm :     0.1480674 Eh/α   predicted    -0.7494744E-01 ( -15.50%)
   displ. norm   :     0.6816885 α      lambda       -0.9143689E-01
   maximum displ.:     0.4849901 α      in ANC's #15, #4, #9, ...

........................................................................
.............................. CYCLE    3 ..............................
........................................................................

 iter      E             dE          RMSdq      gap      omega  full diag
   1    -13.3279126 -0.133279E+02  0.112E+00    2.84       0.0  T
   2    -13.3281298 -0.217168E-03  0.674E-01    2.88       1.0  T
   3    -13.3266679  0.146188E-02  0.557E-01    2.87       1.0  T
   4    -13.3283757 -0.170774E-02  0.151E-01    2.85       1.0  T
   5    -13.3285640 -0.188301E-03  0.333E-02    2.87       1.0  T
   6    -13.3285697 -0.575336E-05  0.196E-02    2.87       1.6  T
   7    -13.3285735 -0.380878E-05  0.635E-03    2.87       5.0  T
   8    -13.3285735 -0.207944E-08  0.310E-03    2.87      10.2  T
   9    -13.3285736 -0.700367E-07  0.473E-04    2.87      66.9  T
  10    -13.3285736 -0.675970E-09  0.132E-04    2.87     238.7  T
     SCC iter.                  ...        0 min,  0.157 sec
     gradient                   ...        0 min,  0.005 sec
 * total energy  :   -13.0715663 Eh     change       -0.4795936E-01 Eh
   gradient norm :     0.1472488 Eh/α   predicted    -0.6696375E-01 (  39.63%)
   displ. norm   :     0.6837167 α      lambda       -0.4639208E-01
   maximum displ.:     0.5460862 α      in ANC's #2, #4, #8, ...

........................................................................
.............................. CYCLE    4 ..............................
........................................................................

 iter      E             dE          RMSdq      gap      omega  full diag
   1    -13.3134571 -0.133135E+02  0.124E+00    3.45       0.0  T
   2    -13.3123669  0.109028E-02  0.820E-01    3.50       1.0  T
   3    -13.3055765  0.679038E-02  0.110E+00    3.46       1.0  T
   4    -13.3131053 -0.752880E-02  0.399E-01    3.44       1.0  T
   5    -13.3142240 -0.111875E-02  0.629E-02    3.47       1.0  T
   6    -13.3142464 -0.223782E-04  0.379E-02    3.48       1.0  T
   7    -13.3142509 -0.448807E-05  0.229E-02    3.48       1.4  T
   8    -13.3142519 -0.102115E-05  0.616E-03    3.48       5.1  T
   9    -13.3142521 -0.146571E-06  0.225E-03    3.48      14.0  T
  10    -13.3142521 -0.180357E-07  0.513E-04    3.48      61.6  T
  11    -13.3142521 -0.959773E-09  0.143E-04    3.48     221.1  T
     SCC iter.                  ...        0 min,  0.141 sec
     gradient                   ...        0 min,  0.006 sec
 * total energy  :   -13.1003071 Eh     change       -0.2874087E-01 Eh
   gradient norm :     0.1048442 Eh/α   predicted    -0.3403948E-01 (  18.44%)
   displ. norm   :     0.4625228 α      lambda       -0.2613872E-01
   maximum displ.:     0.3107893 α      in ANC's #2, #15, #1, ...

........................................................................
.............................. CYCLE    5 ..............................
........................................................................

 iter      E             dE          RMSdq      gap      omega  full diag
   1    -13.3462299 -0.133462E+02  0.759E-01    3.99       0.0  T
   2    -13.3454725  0.757357E-03  0.582E-01    4.03       1.0  T
   3    -13.3408710  0.460148E-02  0.911E-01    3.99       1.0  T
   4    -13.3461029 -0.523184E-02  0.259E-01    3.98       1.0  T
   5    -13.3465912 -0.488387E-03  0.792E-02    4.01       1.0  T
   6    -13.3466163 -0.250654E-04  0.478E-02    4.01       1.0  T
   7    -13.3466232 -0.690277E-05  0.334E-02    4.01       1.0  T
   8    -13.3466280 -0.481346E-05  0.612E-03    4.02       5.2  T
   9    -13.3466283 -0.269867E-06  0.220E-03    4.02      14.3  T
  10    -13.3466283 -0.155141E-07  0.699E-04    4.02      45.2  T
  11    -13.3466283 -0.213112E-08  0.168E-04    4.02     188.1  T
     SCC iter.                  ...        0 min,  0.146 sec
     gradient                   ...        0 min,  0.010 sec
 * total energy  :   -13.1176147 Eh     change       -0.1730761E-01 Eh
   gradient norm :     0.0874716 Eh/α   predicted    -0.1586525E-01 (  -8.33%)
   displ. norm   :     0.5924372 α      lambda       -0.2453369E-01
   maximum displ.:     0.2623710 α      in ANC's #15, #2, #1, ...

........................................................................
.............................. CYCLE    6 ..............................
........................................................................

 iter      E             dE          RMSdq      gap      omega  full diag
   1    -13.3691447 -0.133691E+02  0.120E+00    4.55       0.0  T
   2    -13.3601026  0.904215E-02  0.129E+00    4.55       1.0  T
   3    -13.3686039 -0.850135E-02  0.841E-01    4.55       1.0  T
   4    -13.3713797 -0.277580E-02  0.161E-01    4.56       1.0  T
   5    -13.3715450 -0.165242E-03  0.613E-02    4.58       1.0  T
   6    -13.3715551 -0.101377E-04  0.435E-02    4.58       1.0  T
   7    -13.3715552 -0.769221E-07  0.144E-02    4.58       2.2  T
   8    -13.3715566 -0.146148E-05  0.309E-03    4.58      10.2  T
   9    -13.3715567 -0.224766E-07  0.193E-03    4.58      16.3  T
  10    -13.3715567 -0.126717E-07  0.156E-04    4.58     202.8  T
  11    -13.3715567 -0.731184E-10  0.747E-05    4.58     423.2  T
     SCC iter.                  ...        0 min,  0.117 sec
     gradient                   ...        0 min,  0.007 sec
 * total energy  :   -13.1283937 Eh     change       -0.1077901E-01 Eh
   gradient norm :     0.0841650 Eh/α   predicted    -0.1657229E-01 (  53.75%)
   displ. norm   :     0.6037814 α      lambda       -0.2378224E-01
   maximum displ.:     0.4571144 α      in ANC's #2, #1, #15, ...

........................................................................
.............................. CYCLE    7 ..............................
........................................................................

 iter      E             dE          RMSdq      gap      omega  full diag
   1    -13.3819525 -0.133820E+02  0.972E-01    5.18       0.0  T
   2    -13.3815336  0.418941E-03  0.643E-01    5.24       1.0  T
   3    -13.3784360  0.309756E-02  0.838E-01    5.20       1.0  T
   4    -13.3822412 -0.380516E-02  0.156E-01    5.20       1.0  T
   5    -13.3823800 -0.138843E-03  0.469E-02    5.23       1.0  T
   6    -13.3823866 -0.661548E-05  0.167E-02    5.23       1.9  T
   7    -13.3823865  0.153306E-06  0.851E-03    5.23       3.7  T
   8    -13.3823869 -0.429401E-06  0.282E-03    5.23      11.2  T
   9    -13.3823870 -0.535457E-07  0.128E-03    5.23      24.6  T
  10    -13.3823870 -0.480242E-08  0.402E-04    5.23      78.8  T
  11    -13.3823870 -0.604981E-09  0.670E-05    5.23     472.3  T
     SCC iter.                  ...        0 min,  0.170 sec
     gradient                   ...        0 min,  0.003 sec
 * total energy  :   -13.1337253 Eh     change       -0.5331519E-02 Eh
   gradient norm :     0.1054915 Eh/α   predicted    -0.1622607E-01 ( 204.34%)
   displ. norm   :     0.2776733 α      lambda       -0.1861659E-01
   maximum displ.:     0.1358314 α      in ANC's #3, #5, #10, ...

........................................................................
.............................. CYCLE    8 ..............................
........................................................................

 iter      E             dE          RMSdq      gap      omega  full diag
   1    -13.4021383 -0.134021E+02  0.579E-01    5.24       0.0  T
   2    -13.3978408  0.429750E-02  0.877E-01    5.24       1.0  T
   3    -13.4020196 -0.417885E-02  0.456E-01    5.24       1.0  T
   4    -13.4027371 -0.717471E-03  0.114E-01    5.24       1.0  T
   5    -13.4027999 -0.628112E-04  0.420E-02    5.25       1.0  T
   6    -13.4028013 -0.139615E-05  0.313E-02    5.25       1.0  T
   7    -13.4028061 -0.479177E-05  0.111E-02    5.25       2.8  T
   8    -13.4028065 -0.472184E-06  0.144E-03    5.25      22.0  T
   9    -13.4028065 -0.338738E-08  0.849E-04    5.25      37.3  T
  10    -13.4028065 -0.110884E-08  0.500E-04    5.25      63.3  T
     SCC iter.                  ...        0 min,  0.125 sec
     gradient                   ...        0 min,  0.008 sec
 * total energy  :   -13.1419794 Eh     change       -0.8254095E-02 Eh
   gradient norm :     0.0626788 Eh/α   predicted    -0.1002598E-01 (  21.47%)
   displ. norm   :     0.4002309 α      lambda       -0.1254527E-01
   maximum displ.:     0.2648142 α      in ANC's #3, #2, #14, ...

........................................................................
.............................. CYCLE    9 ..............................
........................................................................

 iter      E             dE          RMSdq      gap      omega  full diag
   1    -13.3772386 -0.133772E+02  0.186E+00    5.16       0.0  T
   2    -13.3417627  0.354759E-01  0.273E+00    5.07       1.0  T
   3    -13.3876616 -0.458989E-01  0.773E-01    5.14       1.0  T
   4    -13.3895944 -0.193287E-02  0.550E-01    5.24       1.0  T
   5    -13.3906347 -0.104024E-02  0.206E-01    5.19       1.0  T
   6    -13.3908163 -0.181617E-03  0.856E-02    5.21       1.0  T
   7    -13.3908360 -0.196769E-04  0.369E-02    5.21       1.0  T
   8    -13.3908442 -0.829131E-05  0.892E-03    5.21       3.5  T
   9    -13.3908450 -0.719953E-06  0.342E-03    5.21       9.2  T
  10    -13.3908450 -0.148893E-07  0.227E-03    5.21      14.0  T
  11    -13.3908450 -0.211477E-07  0.351E-04    5.21      90.2  T
  12    -13.3908450  0.107256E-10  0.340E-04    5.21      92.9  T
     SCC iter.                  ...        0 min,  0.168 sec
     gradient                   ...        0 min,  0.005 sec
 * total energy  :   -13.1439044 Eh     change       -0.1925061E-02 Eh
   gradient norm :     0.0650566 Eh/α   predicted    -0.7277421E-02 ( 278.04%)
   displ. norm   :     0.4660925 α      lambda       -0.1304966E-01
   maximum displ.:     0.3166024 α      in ANC's #2, #1, #3, ...

........................................................................
.............................. CYCLE   10 ..............................
........................................................................

 iter      E             dE          RMSdq      gap      omega  full diag
   1    -13.3859632 -0.133860E+02  0.742E-01    5.52       0.0  T
   2    -13.3779065  0.805672E-02  0.131E+00    5.44       1.0  T
   3    -13.3856082 -0.770170E-02  0.585E-01    5.48       1.0  T
   4    -13.3827412  0.286705E-02  0.858E-01    5.54       1.0  T
   5    -13.3865237 -0.378248E-02  0.243E-01    5.50       1.0  T
   6    -13.3867299 -0.206223E-03  0.149E-01    5.50       1.0  T
   7    -13.3867892 -0.592966E-04  0.904E-02    5.50       1.0  T
   8    -13.3868210 -0.318651E-04  0.221E-02    5.50       1.4  T
   9    -13.3868228 -0.174224E-05  0.965E-03    5.50       3.3  T
  10    -13.3868231 -0.336055E-06  0.129E-03    5.50      24.4  T
  11    -13.3868231 -0.570249E-08  0.444E-04    5.50      71.2  T
  12    -13.3868231 -0.734053E-09  0.792E-05    5.50     399.3  T
     SCC iter.                  ...        0 min,  0.182 sec
     gradient                   ...        0 min,  0.008 sec
 * total energy  :   -13.1433495 Eh     change        0.5549372E-03 Eh
   gradient norm :     0.0947340 Eh/α   predicted    -0.7942300E-02 (*******%)
   displ. norm   :     0.2703873 α      lambda       -0.1671873E-01
   maximum displ.:     0.1295826 α      in ANC's #14, #1, #13, ...

........................................................................
.............................. CYCLE   11 ..............................
........................................................................

 iter      E             dE          RMSdq      gap      omega  full diag
   1    -13.4003797 -0.134004E+02  0.821E-01    5.36       0.0  T
   2    -13.3892794  0.111003E-01  0.140E+00    5.45       1.0  T
   3    -13.4005596 -0.112801E-01  0.665E-01    5.41       1.0  T
   4    -13.4017502 -0.119059E-02  0.313E-01    5.38       1.0  T
   5    -13.4021189 -0.368720E-03  0.142E-01    5.42       1.0  T
   6    -13.4021663 -0.473776E-04  0.894E-02    5.43       1.0  T
   7    -13.4021907 -0.244948E-04  0.203E-02    5.43       1.6  T
   8    -13.4021939 -0.320116E-05  0.129E-02    5.43       2.5  T
   9    -13.4021946 -0.683947E-06  0.407E-03    5.43       7.8  T
  10    -13.4021947 -0.502562E-07  0.594E-04    5.43      53.2  T
  11    -13.4021947 -0.934417E-09  0.271E-04    5.43     116.6  T
     SCC iter.                  ...        0 min,  0.166 sec
     gradient                   ...        0 min,  0.004 sec
 * total energy  :   -13.1475403 Eh     change       -0.4190784E-02 Eh
   gradient norm :     0.0733421 Eh/α   predicted    -0.8970518E-02 ( 114.05%)
   displ. norm   :     0.1996473 α      lambda       -0.8655458E-02
   maximum displ.:     0.1081056 α      in ANC's #1, #4, #7, ...

........................................................................
.............................. CYCLE   12 ..............................
........................................................................

 iter      E             dE          RMSdq      gap      omega  full diag
   1    -13.3961086 -0.133961E+02  0.109E+00    5.54       0.0  T
   2    -13.3770023  0.191064E-01  0.196E+00    5.50       1.0  T
   3    -13.3993403 -0.223380E-01  0.517E-01    5.54       1.0  T
   4    -13.4006593 -0.131904E-02  0.239E-01    5.59       1.0  T
   5    -13.4007897 -0.130377E-03  0.822E-02    5.57       1.0  T
   6    -13.4008176 -0.278835E-04  0.339E-02    5.59       1.0  T
   7    -13.4008207 -0.315896E-05  0.128E-02    5.58       2.5  T
   8    -13.4008213 -0.549478E-06  0.597E-03    5.58       5.3  T
   9    -13.4008214 -0.127291E-06  0.187E-03    5.58      16.9  T
  10    -13.4008214 -0.145522E-07  0.596E-04    5.58      53.0  T
  11    -13.4008214 -0.334589E-09  0.532E-04    5.58      59.4  T
     SCC iter.                  ...        0 min,  0.078 sec
     gradient                   ...        0 min,  0.002 sec
 * total energy  :   -13.1510679 Eh     change       -0.3527610E-02 Eh
   gradient norm :     0.0288031 Eh/α   predicted    -0.4500228E-02 (  27.57%)
   displ. norm   :     0.1695684 α      lambda       -0.1937346E-02
   maximum displ.:     0.1101311 α      in ANC's #2, #4, #9, ...

........................................................................
.............................. CYCLE   13 ..............................
........................................................................

 iter      E             dE          RMSdq      gap      omega  full diag
   1    -13.4023298 -0.134023E+02  0.550E-01    5.61       0.0  T
   2    -13.3907720  0.115578E-01  0.150E+00    5.59       1.0  T
   3    -13.4032140 -0.124419E-01  0.239E-01    5.61       1.0  T
   4    -13.4030289  0.185093E-03  0.271E-01    5.63       1.0  T
   5    -13.4033854 -0.356561E-03  0.488E-02    5.61       1.0  T
   6    -13.4033925 -0.702661E-05  0.248E-02    5.62       1.3  T
   7    -13.4033941 -0.158861E-05  0.132E-02    5.62       2.4  T
   8    -13.4033948 -0.730698E-06  0.255E-03    5.62      12.4  T
   9    -13.4033948 -0.339841E-07  0.300E-04    5.62     105.3  T
  10    -13.4033948 -0.164338E-09  0.125E-04    5.62     253.6  T
     SCC iter.                  ...        0 min,  0.108 sec
     gradient                   ...        0 min,  0.002 sec
 * total energy  :   -13.1519249 Eh     change       -0.8569800E-03 Eh
   gradient norm :     0.0213967 Eh/α   predicted    -0.9965275E-03 (  16.28%)
   displ. norm   :     0.1503034 α      lambda       -0.1415493E-02
   maximum displ.:     0.0952279 α      in ANC's #2, #5, #17, ...

........................................................................
.............................. CYCLE   14 ..............................
........................................................................

 iter      E             dE          RMSdq      gap      omega  full diag
   1    -13.3982012 -0.133982E+02  0.318E-01    5.57       0.0  T
   2    -13.3962517  0.194951E-02  0.606E-01    5.59       1.0  T
   3    -13.3980343 -0.178265E-02  0.295E-01    5.58       1.0  T
   4    -13.3982517 -0.217310E-03  0.167E-01    5.57       1.0  T
   5    -13.3983912 -0.139565E-03  0.336E-02    5.58       1.0  T
   6    -13.3983935 -0.230863E-05  0.222E-02    5.58       1.4  T
   7    -13.3983952 -0.168660E-05  0.319E-03    5.58       9.9  T
   8    -13.3983953 -0.485251E-07  0.120E-03    5.58      26.3  T
   9    -13.3983953 -0.798506E-08  0.666E-04    5.58      47.5  T
  10    -13.3983953 -0.148089E-08  0.213E-04    5.58     148.2  T
     SCC iter.                  ...        0 min,  0.159 sec
     gradient                   ...        0 min,  0.005 sec
 * total energy  :   -13.1522718 Eh     change       -0.3469831E-03 Eh
   gradient norm :     0.0247501 Eh/α   predicted    -0.7237369E-03 ( 108.58%)
   displ. norm   :     0.0898050 α      lambda       -0.1243799E-02
   maximum displ.:     0.0454118 α      in ANC's #3, #9, #11, ...

........................................................................
.............................. CYCLE   15 ..............................
........................................................................

 iter      E             dE          RMSdq      gap      omega  full diag
   1    -13.4049603 -0.134050E+02  0.224E-01    5.61       0.0  T
   2    -13.4048615  0.987936E-04  0.176E-01    5.60       1.0  T
   3    -13.4045185  0.343015E-03  0.305E-01    5.60       1.0  T
   4    -13.4049480 -0.429491E-03  0.647E-02    5.60       1.0  T
   5    -13.4049745 -0.265557E-04  0.129E-02    5.61       2.4  T
   6    -13.4049749 -0.325615E-06  0.894E-03    5.60       3.5  T
   7    -13.4049752 -0.318622E-06  0.213E-03    5.61      14.9  T
   8    -13.4049752 -0.156623E-07  0.589E-04    5.60      53.7  T
   9    -13.4049752 -0.985821E-09  0.285E-04    5.61     111.1  T
     SCC iter.                  ...        0 min,  0.655 sec
     gradient                   ...        0 min,  0.027 sec
 * total energy  :   -13.1528977 Eh     change       -0.6258643E-03 Eh
   gradient norm :     0.0121524 Eh/α   predicted    -0.6269168E-03 (   0.17%)
   displ. norm   :     0.0726847 α      lambda       -0.4131206E-03
   maximum displ.:     0.0404799 α      in ANC's #1, #4, #2, ...

........................................................................
.............................. CYCLE   16 ..............................
........................................................................

 iter      E             dE          RMSdq      gap      omega  full diag
   1    -13.4056842 -0.134057E+02  0.319E-01    5.65       0.0  T
   2    -13.4019393  0.374488E-02  0.845E-01    5.63       1.0  T
   3    -13.4060622 -0.412285E-02  0.120E-01    5.64       1.0  T
   4    -13.4060749 -0.127547E-04  0.785E-02    5.65       1.0  T
   5    -13.4061045 -0.296211E-04  0.145E-02    5.65       2.2  T
   6    -13.4061056 -0.102539E-05  0.616E-03    5.65       5.1  T
   7    -13.4061056 -0.701371E-07  0.357E-03    5.65       8.9  T
   8    -13.4061057 -0.549726E-07  0.151E-03    5.65      21.0  T
   9    -13.4061057 -0.917476E-08  0.966E-05    5.65     327.4  T
  10    -13.4061057 -0.747846E-11  0.239E-05    5.65    1325.6  T
     SCC iter.                  ...        0 min,  0.747 sec
     gradient                   ...        0 min,  0.024 sec
 * total energy  :   -13.1530713 Eh     change       -0.1735573E-03 Eh
   gradient norm :     0.0063086 Eh/α   predicted    -0.2076522E-03 (  19.64%)
   displ. norm   :     0.0420954 α      lambda       -0.1115295E-03
   maximum displ.:     0.0310464 α      in ANC's #2, #12, #16, ...

........................................................................
.............................. CYCLE   17 ..............................
........................................................................

 iter      E             dE          RMSdq      gap      omega  full diag
   1    -13.4038835 -0.134039E+02  0.119E-01    5.63       0.0  T
   2    -13.4034921  0.391344E-03  0.272E-01    5.63       1.0  T
   3    -13.4039084 -0.416283E-03  0.684E-02    5.63       1.0  T
   4    -13.4039192 -0.107691E-04  0.272E-02    5.63       1.2  T
   5    -13.4039241 -0.491062E-05  0.365E-03    5.63       8.7  T
   6    -13.4039241 -0.432512E-07  0.227E-03    5.63      13.9  T
   7    -13.4039242 -0.176523E-07  0.858E-04    5.63      36.9  T
   8    -13.4039242 -0.254897E-08  0.505E-05    5.63     626.7  T
     SCC iter.                  ...        0 min,  0.628 sec
     gradient                   ...        0 min,  0.023 sec
 * total energy  :   -13.1531375 Eh     change       -0.6626460E-04 Eh
   gradient norm :     0.0034583 Eh/α   predicted    -0.5586265E-04 ( -15.70%)
   displ. norm   :     0.0178289 α      lambda       -0.3840707E-04
   maximum displ.:     0.0076296 α      in ANC's #3, #16, #5, ...

........................................................................
.............................. CYCLE   18 ..............................
........................................................................

 iter      E             dE          RMSdq      gap      omega  full diag
   1    -13.4042679 -0.134043E+02  0.101E-01    5.63       0.0  T
   2    -13.4038988  0.369121E-03  0.261E-01    5.63       1.0  T
   3    -13.4042946 -0.395778E-03  0.537E-02    5.63       1.0  T
   4    -13.4043044 -0.985367E-05  0.128E-02    5.63       2.5  T
   5    -13.4043054 -0.983727E-06  0.354E-03    5.63       8.9  T
   6    -13.4043054 -0.358549E-07  0.232E-03    5.63      13.6  T
   7    -13.4043054 -0.202448E-07  0.949E-04    5.63      33.3  T
   8    -13.4043055 -0.287827E-08  0.343E-04    5.63      92.2  T
     SCC iter.                  ...        0 min,  0.650 sec
     gradient                   ...        0 min,  0.023 sec
 * total energy  :   -13.1531578 Eh     change       -0.2029123E-04 Eh
   gradient norm :     0.0033977 Eh/α   predicted    -0.1920896E-04 (  -5.33%)
   displ. norm   :     0.0169223 α      lambda       -0.2561491E-04
   maximum displ.:     0.0104491 α      in ANC's #1, #16, #3, ...

........................................................................
.............................. CYCLE   19 ..............................
........................................................................

 iter      E             dE          RMSdq      gap      omega  full diag
   1    -13.4039857 -0.134040E+02  0.118E-01    5.64       0.0  T
   2    -13.4034629  0.522804E-03  0.309E-01    5.64       1.0  T
   3    -13.4040222 -0.559233E-03  0.651E-02    5.64       1.0  T
   4    -13.4040364 -0.142365E-04  0.231E-02    5.64       1.4  T
   5    -13.4040389 -0.247469E-05  0.310E-03    5.64      10.2  T
   6    -13.4040389 -0.327516E-07  0.128E-03    5.64      24.7  T
   7    -13.4040389 -0.510733E-08  0.585E-04    5.64      54.0  T
   8    -13.4040389 -0.959826E-09  0.229E-04    5.64     138.3  T
     SCC iter.                  ...        0 min,  0.627 sec
     gradient                   ...        0 min,  0.020 sec
 * total energy  :   -13.1531724 Eh     change       -0.1462545E-04 Eh
   gradient norm :     0.0027072 Eh/α   predicted    -0.1281188E-04 ( -12.40%)
   displ. norm   :     0.0125020 α      lambda       -0.1494089E-04
   maximum displ.:     0.0052191 α      in ANC's #17, #2, #1, ...

........................................................................
.............................. CYCLE   20 ..............................
........................................................................

 iter      E             dE          RMSdq      gap      omega  full diag
   1    -13.4039883 -0.134040E+02  0.120E-01    5.64       0.0  T
   2    -13.4034305  0.557786E-03  0.320E-01    5.64       1.0  T
   3    -13.4040298 -0.599255E-03  0.612E-02    5.64       1.0  T
   4    -13.4040409 -0.110880E-04  0.294E-02    5.64       1.1  T
   5    -13.4040447 -0.381131E-05  0.413E-03    5.64       7.7  T
   6    -13.4040447 -0.712071E-07  0.113E-03    5.64      28.1  T
   7    -13.4040447 -0.255992E-08  0.662E-04    5.64      47.8  T
   8    -13.4040447 -0.134588E-08  0.282E-04    5.64     112.2  T
     SCC iter.                  ...        0 min,  0.647 sec
     gradient                   ...        0 min,  0.027 sec
 * total energy  :   -13.1531828 Eh     change       -0.1034938E-04 Eh
   gradient norm :     0.0020244 Eh/α   predicted    -0.7469976E-05 ( -27.82%)
   displ. norm   :     0.0142009 α      lambda       -0.1457481E-04
   maximum displ.:     0.0071533 α      in ANC's #18, #1, #3, ...
 * RMSD in coord.:     1.1160500 α      energy gain  -0.2182735E+00 Eh

generating ANC from exact Hessian ...
Using Lindh-Hessian (1995)
 Shifting diagonal of input Hessian by    0.0000000000000000     
 Lowest  eigenvalues of input Hessian
    0.000000    0.000000    0.000000    0.000000    0.000000    0.000000
    0.016386    0.016720    0.027263    0.085933    0.091841    0.093759
    0.098933    0.101690    0.106057    0.166553    0.168714    0.168799
 Highest eigenvalues
    1.003247    1.482095    1.682057    1.765401    1.843947    1.862822


........................................................................
.............................. CYCLE   21 ..............................
........................................................................

 iter      E             dE          RMSdq      gap      omega  full diag
   1    -13.4042497 -0.134042E+02  0.159E-01    5.64       0.0  T
   2    -13.4032926  0.957062E-03  0.418E-01    5.65       1.0  T
   3    -13.4043188 -0.102620E-02  0.848E-02    5.65       1.0  T
   4    -13.4043397 -0.208358E-04  0.422E-02    5.65       1.0  T
   5    -13.4043475 -0.783066E-05  0.552E-03    5.65       5.7  T
   6    -13.4043476 -0.105279E-06  0.226E-03    5.65      14.0  T
   7    -13.4043476 -0.117239E-07  0.116E-03    5.65      27.2  T
   8    -13.4043476 -0.512251E-08  0.400E-04    5.65      79.0  T
   9    -13.4043476 -0.135360E-08  0.573E-05    5.65     552.3  T
     SCC iter.                  ...        0 min,  0.684 sec
     gradient                   ...        0 min,  0.024 sec
 * total energy  :   -13.1531927 Eh     change       -0.9883781E-05 Eh
   gradient norm :     0.0016547 Eh/α   predicted     0.0000000E+00 (-100.00%)
   displ. norm   :     0.0248884 α      lambda       -0.1478145E-04
   maximum displ.:     0.0211554 α      in ANC's #3, #11, #2, ...

........................................................................
.............................. CYCLE   22 ..............................
........................................................................

 iter      E             dE          RMSdq      gap      omega  full diag
   1    -13.4042898 -0.134043E+02  0.572E-02    5.64       0.0  T
   2    -13.4042415  0.482379E-04  0.975E-02    5.64       1.0  T
   3    -13.4042879 -0.464120E-04  0.438E-02    5.64       1.0  T
   4    -13.4042945 -0.658762E-05  0.397E-03    5.64       8.0  T
   5    -13.4042946 -0.107688E-06  0.119E-03    5.64      26.6  T
   6    -13.4042946 -0.569863E-08  0.810E-04    5.64      39.0  T
   7    -13.4042947 -0.241005E-08  0.199E-04    5.64     159.2  T
     SCC iter.                  ...        0 min,  0.568 sec
     gradient                   ...        0 min,  0.032 sec
 * total energy  :   -13.1532006 Eh     change       -0.7907958E-05 Eh
   gradient norm :     0.0009665 Eh/α   predicted    -0.7392537E-05 (  -6.52%)
   displ. norm   :     0.0201556 α      lambda       -0.4745917E-05
   maximum displ.:     0.0186521 α      in ANC's #2, #3, #1, ...

........................................................................
.............................. CYCLE   23 ..............................
........................................................................

 iter      E             dE          RMSdq      gap      omega  full diag
   1    -13.4043260 -0.134043E+02  0.424E-02    5.64       0.0  T
   2    -13.4042850  0.410539E-04  0.871E-02    5.64       1.0  T
   3    -13.4043267 -0.416770E-04  0.310E-02    5.64       1.0  T
   4    -13.4043301 -0.346127E-05  0.213E-03    5.64      14.9  T
   5    -13.4043302 -0.313853E-07  0.835E-04    5.64      37.9  T
   6    -13.4043302 -0.349054E-08  0.504E-04    5.64      62.8  T
     SCC iter.                  ...        0 min,  0.443 sec
     gradient                   ...        0 min,  0.027 sec
 * total energy  :   -13.1532028 Eh     change       -0.2211645E-05 Eh
   gradient norm :     0.0008898 Eh/α   predicted    -0.2374853E-05 (   7.38%)
   displ. norm   :     0.0075788 α      lambda       -0.1409204E-05
   maximum displ.:     0.0066035 α      in ANC's #2, #7, #1, ...

   *** GEOMETRY OPTIMIZATION CONVERGED AFTER 23 ITERATIONS ***

------------------------------------------------------------------------
 total energy gain   :        -0.2182935 Eh     -136.9812 kcal/mol
 total RMSD          :         1.1192178 a0        0.5923 Å
 total power (kW/mol):       -24.9186757 (step)  -70.3953 (real)
------------------------------------------------------------------------

 ANCopt (total)                0 d,  0 h,  0 min,  8.142 sec
 optimizer setup                ...        0 min,  0.001 sec (  0.007%)
 model hessian                  ...        0 min,  0.004 sec (  0.046%)
 ANC generation                 ...        0 min,  0.001 sec (  0.008%)
 coordinate transformation      ...        0 min,  0.000 sec (  0.001%)
 single point calculation       ...        0 min,  8.089 sec ( 99.355%)
 optimization log               ...        0 min,  0.002 sec (  0.022%)
 hessian update                 ...        0 min,  0.038 sec (  0.469%)
 rational function              ...        0 min,  0.007 sec (  0.082%)

================
 final structure:
================
$coord
        0.46539073046698       -0.00822026033900        0.11838165551635      c
        0.32116660124922        0.21549623036865        2.85962709092856      c
        2.62631580960359        1.02512567924207        3.72402903450058      c
        4.22313482954047        1.31509295507124        1.61503793191105      c
        2.83900478219478        0.66414718326259       -0.60701949619699      c
       -1.33022343656330       -0.19724899026493        3.96590799133308      h
        3.14355412798925        1.38140083693103        5.65243718537633      h
        6.16112163222249        1.92535447420524        1.65877282585955      h
        3.57968452534222        0.71405626844817       -2.49466319634201      h
       -1.06812970182179       -0.60724424413058       -1.06748918237824      h
$end

 Bond Distances (Angstroems)
 ---------------------------
C1-C2=1.4574         C1-C5=1.3608         C1-H10=1.0737        C2-C1=1.4574         C2-C3=1.3714         C2-H6=1.0743         
C3-C2=1.3714         C3-C4=1.4082         C3-H7=1.0732         C4-C3=1.4082         C4-C5=1.4275         C4-H8=1.0754         
C5-C1=1.3608         C5-C4=1.4275         C5-H9=1.0734         H6-C2=1.0743         H7-C3=1.0732         H8-C4=1.0754         
H9-C5=1.0734         H10-C1=1.0737        
 C  H  Rav=1.0740 sigma=0.0008  Rmin=1.0732  Rmax=1.0754     5
 C  C  Rav=1.4051 sigma=0.0356  Rmin=1.3608  Rmax=1.4574     5

 selected bond angles (degree)
 --------------------
C5-C1-C2=107.93                H10-C1-C2=124.48               H10-C1-C5=127.59               C3-C2-C1=108.11                
H6-C2-C1=124.64                H6-C2-C3=127.25                C4-C3-C2=107.66                H7-C3-C2=126.79                
H7-C3-C4=125.55                C5-C4-C3=108.58                H8-C4-C3=126.01                H8-C4-C5=125.41                
C4-C5-C1=107.72                H9-C5-C1=127.30                H9-C5-C4=124.98                

 selected dihedral angles (degree)
 ---------------------------------
C3-C2-C1-C5=  0.06            C3-C2-C1-H10=179.99           H6-C2-C1-C5=180.13            H6-C2-C1-H10=  0.05           
C4-C3-C2-C1=359.89            C4-C3-C2-H6=179.82            H7-C3-C2-C1=179.85            H7-C3-C2-H6=359.78            
C5-C4-C3-C2=  0.12            C5-C4-C3-H7=180.15            H8-C4-C3-C2=180.07            H8-C4-C3-H7=  0.11            
C4-C5-C1-C2=  0.00            C4-C5-C1-H10=180.09           H9-C5-C1-C2=180.10            H9-C5-C1-H10=  0.18           
C1-C5-C4-C3=359.92            C1-C5-C4-H8=179.97            H9-C5-C4-C3=179.83            H9-C5-C4-H8=359.88            
           -------------------------------------------------
          |                Final Singlepoint                |
           -------------------------------------------------

          ...................................................
          :                      SETUP                      :
          :.................................................:
          :  # basis functions                  25          :
          :  # atomic orbitals                  25          :
          :  # shells                           15          :
          :  # electrons                        25          :
          :  max. iterations                   250          :
          :  Hamiltonian                  GFN2-xTB          :
          :  restarted?                      false          :
          :  GBSA solvation                  false          :
          :  PC potential                    false          :
          :  electronic temp.          300.0000000     K    :
          :  accuracy                    1.0000000          :
          :  -> integral cutoff          0.2500000E+02      :
          :  -> integral neglect         0.1000000E-07      :
          :  -> SCF convergence          0.1000000E-05 Eh   :
          :  -> wf. convergence          0.1000000E-03 e    :
          :  Broyden damping             0.4000000          :
          :  net charge                          0          :
          :  unpaired electrons                  0          :
          ...................................................

 iter      E             dE          RMSdq      gap      omega  full diag
   1    -13.4043302 -0.134043E+02  0.190E-04    5.64       0.0  T
   2    -13.4043302  0.113014E-08  0.461E-04    5.64      68.6  T
   3    -13.4043302 -0.120578E-08  0.109E-04    5.64     289.7  T

   *** convergence criteria satisfied after 3 iterations ***

         #    Occupation            Energy/Eh            Energy/eV
      -------------------------------------------------------------
         1        2.0000           -0.6469394             -17.6041
       ...           ...                  ...                  ...
         7        2.0000           -0.4736646             -12.8891
         8        2.0000           -0.4569277             -12.4336
         9        2.0000           -0.4540565             -12.3555
        10        2.0000           -0.4493978             -12.2287
        11        2.0000           -0.4471062             -12.1664
        12        1.9626           -0.3723854             -10.1331
        13        1.0374           -0.3662157              -9.9652 (HOMO)
        14                         -0.1588222              -4.3218 (LUMO)
        15                         -0.1573768              -4.2824
        16                          0.1164417               3.1685
        17                          0.1236127               3.3637
        18                          0.1587829               4.3207
       ...                                ...                  ...
        25                          0.6565840              17.8666
      -------------------------------------------------------------
                  HL-Gap            0.2073935 Eh            5.6435 eV
             Fermi-level           -0.3159097 Eh           -8.5963 eV

 SCC (total)                   0 d,  0 h,  0 min,  0.264 sec
 SCC setup                      ...        0 min,  0.002 sec (  0.940%)
 Dispersion                     ...        0 min,  0.006 sec (  2.375%)
 classical contributions        ...        0 min,  0.002 sec (  0.926%)
 integral evaluation            ...        0 min,  0.010 sec (  3.839%)
 iterations                     ...        0 min,  0.212 sec ( 80.173%)
 molecular gradient             ...        0 min,  0.031 sec ( 11.676%)
 printout                       ...        0 min,  0.000 sec (  0.042%)

         :::::::::::::::::::::::::::::::::::::::::::::::::::::
         ::                     SUMMARY                     ::
         :::::::::::::::::::::::::::::::::::::::::::::::::::::
         :: total energy             -13.153202797124 Eh    ::
         :: gradient norm              0.000899287014 Eh/a0 ::
         :: HOMO-LUMO gap              5.643464563989 eV    ::
         ::.................................................::
         :: SCC energy               -13.404328022369 Eh    ::
         :: -> isotropic ES            0.001169961172 Eh    ::
         :: -> anisotropic ES          0.002109188174 Eh    ::
         :: -> anisotropic XC          0.011249489629 Eh    ::
         :: -> dispersion             -0.005695973608 Eh    ::
         :: repulsion energy           0.251125225245 Eh    ::
         :: add. restraining           0.000000000000 Eh    ::
         :: total charge              -0.000000000000 e     ::
         :::::::::::::::::::::::::::::::::::::::::::::::::::::

           -------------------------------------------------
          |                Property Printout                |
           -------------------------------------------------

    * Orbital Energies and Occupations

         #    Occupation            Energy/Eh            Energy/eV
      -------------------------------------------------------------
         1        2.0000           -0.6469394             -17.6041
         2        2.0000           -0.5984860             -16.2856
         3        2.0000           -0.5969560             -16.2440
         4        2.0000           -0.5432995             -14.7839
         5        2.0000           -0.5428067             -14.7705
         6        2.0000           -0.5259728             -14.3124
         7        2.0000           -0.4736646             -12.8891
         8        2.0000           -0.4569277             -12.4336
         9        2.0000           -0.4540565             -12.3555
        10        2.0000           -0.4493978             -12.2287
        11        2.0000           -0.4471062             -12.1664
        12        1.9626           -0.3723854             -10.1331
        13        1.0374           -0.3662157              -9.9652 (HOMO)
        14                         -0.1588222              -4.3218 (LUMO)
        15                         -0.1573768              -4.2824
        16                          0.1164417               3.1685
        17                          0.1236127               3.3637
        18                          0.1587829               4.3207
        19                          0.2029984               5.5239
        20                          0.2468727               6.7177
        21                          0.2708978               7.3715
        22                          0.3161679               8.6034
        23                          0.4333775              11.7928
        24                          0.6410216              17.4431
        25                          0.6565840              17.8666
      -------------------------------------------------------------
                  HL-Gap            0.2073935 Eh            5.6435 eV
             Fermi-level           -0.3159097 Eh           -8.5963 eV

     #   Z          covCN         q      C6AA      α(0)
     1   6 c        3.035    -0.032    28.768     8.797
     2   6 c        3.049    -0.019    28.444     8.747
     3   6 c        3.000    -0.058    29.438     8.900
     4   6 c        3.071    -0.001    27.973     8.672
     5   6 c        3.007    -0.055    29.342     8.886
     6   1 h        0.926     0.035     2.513     2.479
     7   1 h        0.926     0.029     2.594     2.518
     8   1 h        0.926     0.039     2.465     2.455
     9   1 h        0.926     0.029     2.595     2.519
    10   1 h        0.926     0.033     2.548     2.496

 Mol. C6AA /au·bohr⁶  :       1210.565458
 Mol. C8AA /au·bohr⁸  :      29573.613933
 Mol. α(0) /au        :         56.470474


Wiberg/Mayer (AO) data.
largest (>0.10) Wiberg bond orders for each atom

 ---------------------------------------------------------------------------
     #   Z sym  total        # sym  WBO       # sym  WBO       # sym  WBO
 ---------------------------------------------------------------------------
     1   6 c    3.916 --     5 c    1.640     2 c    1.150    10 h    0.975
     2   6 c    3.867 --     3 c    1.554     1 c    1.150     6 h    0.975
                             4 c    0.134
     3   6 c    3.957 --     2 c    1.554     4 c    1.312     7 h    0.973
     4   6 c    3.766 --     3 c    1.312     5 c    1.229     8 h    0.975
                             2 c    0.134
     5   6 c    3.955 --     1 c    1.640     4 c    1.229     9 h    0.974
     6   1 h    0.999 --     2 c    0.975
     7   1 h    0.999 --     3 c    0.973
     8   1 h    0.998 --     4 c    0.975
     9   1 h    0.999 --     5 c    0.974
    10   1 h    0.999 --     1 c    0.975
 ---------------------------------------------------------------------------

Topologies differ in total number of bonds
Writing topology from bond orders to xtbtopo.mol

molecular dipole:
                 x           y           z       tot (Debye)
 q only:        0.022       0.008       0.017
   full:        0.031       0.012       0.025       0.105
molecular quadrupole (traceless):
                xx          xy          yy          xz          yz          zz
 q only:        0.886       0.641      -0.961       0.010       0.121       0.075
  q+dip:        2.766       2.258      -3.748      -0.159       0.482       0.982
   full:        1.677       1.228      -1.867      -0.034       0.224       0.190

           -------------------------------------------------
          |                Geometry Summary                 |
           -------------------------------------------------

      molecular mass/u    :       65.0933833
   center of mass at/Å    :        1.1087178       0.3399439       0.8160375
  moments of inertia/u·Å² :        0.5408258E+02   0.5769555E+02   0.1117781E+03
rotational constants/cm⁻¹ :        0.3117017E+00   0.2921826E+00   0.1508134E+00

 * 9 selected distances

     #   Z          #   Z                                           value/Å
     2   6 c        3   6 c                                       1.3714171
     3   6 c        4   6 c                                       1.4082237
     1   6 c        5   6 c                                       1.3607501
     4   6 c        5   6 c                                       1.4275125 (max)
     2   6 c        6   1 h                                       1.0742826
     3   6 c        7   1 h                                       1.0732291 (min)
     4   6 c        8   1 h                                       1.0754315
     5   6 c        9   1 h                                       1.0733688
     1   6 c       10   1 h                                       1.0736959

 * 2 distinct bonds (by element types)

   Z      Z             #   av. dist./Å        max./Å        min./Å
   1 H    6 C           5     1.0740016     1.0754315     1.0732291
   6 C    6 C           4     1.3919758     1.4275125     1.3607501


optimized geometry written to: xtbopt.coord


           -------------------------------------------------
          | TOTAL ENERGY              -13.153202797124 Eh   |
          | GRADIENT NORM               0.000899287014 Eh/α |
          | HOMO-LUMO GAP               5.643464563989 eV   |
           -------------------------------------------------

------------------------------------------------------------------------
 * finished run on 2026/01/02 at 16:08:21.221     
------------------------------------------------------------------------
 total:
 * wall-time:     0 d,  0 h,  0 min,  8.631 sec
 *  cpu-time:     0 d,  0 h,  0 min,  0.785 sec
 * ratio c/w:     0.091 speedup
 SCF:
 * wall-time:     0 d,  0 h,  0 min,  0.183 sec
 *  cpu-time:     0 d,  0 h,  0 min,  0.035 sec
 * ratio c/w:     0.192 speedup
 ANC optimizer:
 * wall-time:     0 d,  0 h,  0 min,  8.409 sec
 *  cpu-time:     0 d,  0 h,  0 min,  0.741 sec
 * ratio c/w:     0.088 speedup

