      -----------------------------------------------------------      
     |                   =====================                   |     
     |                           x T B                           |     
     |                   =====================                   |     
     |                         S. Grimme                         |     
     |          Mulliken Center for Theoretical Chemistry        |     
     |                    University of Bonn                     |     
      -----------------------------------------------------------      

   * xtb version 6.7.1 (edcfbbe) compiled by 'runner@Mac-1756978095027.local' on 2025-09-04

   xtb is free software: you can redistribute it and/or modify it under
   the terms of the GNU Lesser General Public License as published by
   the Free Software Foundation, either version 3 of the License, or
   (at your option) any later version.
   
   xtb is distributed in the hope that it will be useful,
   but WITHOUT ANY WARRANTY; without even the implied warranty of
   MERCHANTABILITY or FITNESS FOR A PARTICULAR PURPOSE.  See the
   GNU Lesser General Public License for more details.
   
   Cite this work as:
   * C. Bannwarth, E. Caldeweyher, S. Ehlert, A. Hansen, P. Pracht,
     J. Seibert, S. Spicher, S. Grimme, WIREs Comput. Mol. Sci., 2020, 11,
     e01493. DOI: 10.1002/wcms.1493
   
   for GFN2-xTB:
   * C. Bannwarth, S. Ehlert and S. Grimme., J. Chem. Theory Comput., 2019,
     15, 1652-1671. DOI: 10.1021/acs.jctc.8b01176
   for GFN1-xTB:
   * S. Grimme, C. Bannwarth, P. Shushkov, J. Chem. Theory Comput., 2017,
     13, 1989-2009. DOI: 10.1021/acs.jctc.7b00118
   for GFN0-xTB:
   * P. Pracht, E. Caldeweyher, S. Ehlert, S. Grimme, ChemRxiv, 2019, preprint.
     DOI: 10.26434/chemrxiv.8326202.v1
   for GFN-FF:
   * S. Spicher and S. Grimme, Angew. Chem. Int. Ed., 2020, 59, 15665-15673.
     DOI: 10.1002/anie.202004239
   
   for ALPB and GBSA implicit solvation:
   * S. Ehlert, M. Stahn, S. Spicher, S. Grimme, J. Chem. Theory Comput.,
     2021, 17, 4250-4261. DOI: 10.1021/acs.jctc.1c00471
   
   for ddCOSMO and CPCM-X implicit solvation:
   * M. Stahn, S. Ehlert, S. Grimme, J. Phys. Chem. A,
     2023, XX, XXXX-XXXX. DOI: 10.1021/acs.jpca.3c04382
   
   for DFT-D4:
   * E. Caldeweyher, C. Bannwarth and S. Grimme, J. Chem. Phys., 2017,
     147, 034112. DOI: 10.1063/1.4993215
   * E. Caldeweyher, S. Ehlert, A. Hansen, H. Neugebauer, S. Spicher,
     C. Bannwarth and S. Grimme, J. Chem. Phys., 2019, 150, 154122.
     DOI: 10.1063/1.5090222
   * E. Caldeweyher, J.-M. Mewes, S. Ehlert and S. Grimme, Phys. Chem. Chem. Phys.
     2020, 22, 8499-8512. DOI: 10.1039/D0CP00502A
   
   for sTDA-xTB:
   * S. Grimme and C. Bannwarth, J. Chem. Phys., 2016, 145, 054103.
     DOI: 10.1063/1.4959605
   
   in the mass-spec context:
   * V. Asgeirsson, C. Bauer and S. Grimme, Chem. Sci., 2017, 8, 4879.
     DOI: 10.1039/c7sc00601b
   * J. Koopman and S. Grimme, ACS Omega 2019, 4, 12, 15120-15133.
     DOI: 10.1021/acsomega.9b02011
   
   for metadynamics refer to:
   * S. Grimme, J. Chem. Theory Comput., 2019, 155, 2847-2862
     DOI: 10.1021/acs.jctc.9b00143
   
   for SPH calculations refer to:
   * S. Spicher and S. Grimme, J. Chem. Theory Comput., 2021, 17, 1701-1714
     DOI: 10.1021/acs.jctc.0c01306
   
   for ONIOM refer to:
   * C. Plett, A. Katbashev, S. Ehlert, S. Grimme, M. Bursch,
     Phys. Chem. Chem. Phys., 2023, 25, 17860-17868. DOI: 10.1039/D3CP02178E
   
   for DIPRO refer to:
   * J. Kohn, N. Gildemeister, S. Grimme, D. Fazzi, A. Hansen,
     J. Chem. Phys., 2023, just accepted.
   
   for PTB refer to:
   * S. Grimme, M. Mueller, A. Hansen, J. Chem. Phys., 2023, 158, 124111.
     DOI: 10.1063/5.0137838
   
   with help from (in alphabetical order)
   P. Atkinson, C. Bannwarth, F. Bohle, G. Brandenburg, E. Caldeweyher
   M. Checinski, S. Dohm, S. Ehlert, S. Ehrlich, I. Gerasimov, C. Hölzer
   A. Katbashev, J. Kohn, J. Koopman, C. Lavigne, S. Lehtola, F. März, M. Müller,
   F. Musil, H. Neugebauer, J. Pisarek, C. Plett, P. Pracht, F. Pultar,
   J. Seibert, P. Shushkov, S. Spicher, M. Stahn, M. Steiner, T. Strunk,
   J. Stückrath, T. Rose, and J. Unsleber
   
 * started run on 2026/01/16 at 12:38:12.583     
   ID    Z sym.   atoms
    1    6 c      1-5
    2    1 h      6-10

           -------------------------------------------------
          |                Calculation Setup                |
           -------------------------------------------------

          program call               : xtb cyclopentadienyl_anion.coord --opt --charge -1
          coordinate file            : cyclopentadienyl_anion.coord
          omp threads                :                    10


           -------------------------------------------------
          |                 G F N 2 - x T B                 |
           -------------------------------------------------

        Reference                      10.1021/acs.jctc.8b01176
      * Hamiltonian:
        H0-scaling (s, p, d)           1.850000    2.230000    2.230000
        zeta-weighting                 0.500000
      * Dispersion:
        s8                             2.700000
        a1                             0.520000
        a2                             5.000000
        s9                             5.000000
      * Repulsion:
        kExp                           1.500000    1.000000
        rExp                           1.000000
      * Coulomb:
        alpha                          2.000000
        third order                    shell-resolved
        anisotropic                    true
        a3                             3.000000
        a5                             4.000000
        cn-shift                       1.200000
        cn-exp                         4.000000
        max-rad                        5.000000

q/qsh data taken from xtbrestart
CAMM data taken from xtbrestart

          ...................................................
          :                      SETUP                      :
          :.................................................:
          :  # basis functions                  25          :
          :  # atomic orbitals                  25          :
          :  # shells                           15          :
          :  # electrons                        26          :
          :  max. iterations                   250          :
          :  Hamiltonian                  GFN2-xTB          :
          :  restarted?                       true          :
          :  GBSA solvation                  false          :
          :  PC potential                    false          :
          :  electronic temp.          300.0000000     K    :
          :  accuracy                    1.0000000          :
          :  -> integral cutoff          0.2500000E+02      :
          :  -> integral neglect         0.1000000E-07      :
          :  -> SCF convergence          0.1000000E-05 Eh   :
          :  -> wf. convergence          0.1000000E-03 e    :
          :  Broyden damping             0.4000000          :
          :  net charge                         -1          :
          :  unpaired electrons                  0          :
          ...................................................

 iter      E             dE          RMSdq      gap      omega  full diag
   1    -13.2082389 -0.132082E+02  0.504E+00    1.13       0.0  T
   2    -13.0302685  0.177970E+00  0.529E+00    0.82       1.0  T
   3    -13.1963268 -0.166058E+00  0.390E+00    1.21       1.0  T
   4    -13.2313246 -0.349977E-01  0.260E+00    0.89       1.0  T
   5    -13.2794335 -0.481089E-01  0.112E+00    0.85       1.0  T
   6    -13.2827313 -0.329780E-02  0.614E-01    0.82       1.0  T
   7    -13.2852135 -0.248224E-02  0.383E-01    0.81       1.0  T
   8    -13.2865840 -0.137044E-02  0.144E-01    0.83       1.0  T
   9    -13.2867269 -0.142948E-03  0.630E-02    0.82       1.0  T
  10    -13.2867555 -0.286374E-04  0.219E-02    0.82       1.4  T
  11    -13.2867582 -0.261787E-05  0.685E-03    0.82       4.6  T
  12    -13.2867584 -0.250175E-06  0.113E-03    0.82      27.9  T
  13    -13.2867584 -0.524556E-08  0.249E-04    0.82     127.1  T
  14    -13.2867584 -0.120696E-09  0.616E-05    0.82     513.7  T

   *** convergence criteria satisfied after 14 iterations ***

         #    Occupation            Energy/Eh            Energy/eV
      -------------------------------------------------------------
         1        2.0000           -0.3781057             -10.2888
       ...           ...                  ...                  ...
         7        2.0000           -0.2418235              -6.5804
         8        2.0000           -0.2149905              -5.8502
         9        2.0000           -0.2095330              -5.7017
        10        2.0000           -0.1878209              -5.1109
        11        2.0000           -0.1510308              -4.1098
        12        2.0000           -0.1193244              -3.2470
        13        2.0000           -0.0849873              -2.3126 (HOMO)
        14        0.0000           -0.0547737              -1.4905 (LUMO)
        15                         -0.0327617              -0.8915
        16                          0.2902711               7.8987
        17                          0.3166908               8.6176
        18                          0.3472606               9.4494
       ...                                ...                  ...
        25                          0.5125719              13.9478
      -------------------------------------------------------------
                  HL-Gap            0.0302135 Eh            0.8222 eV
             Fermi-level           -0.0698805 Eh           -1.9015 eV

 SCC (total)                   0 d,  0 h,  0 min,  0.193 sec
 SCC setup                      ...        0 min,  0.002 sec (  0.849%)
 Dispersion                     ...        0 min,  0.001 sec (  0.778%)
 classical contributions        ...        0 min,  0.001 sec (  0.522%)
 integral evaluation            ...        0 min,  0.001 sec (  0.605%)
 iterations                     ...        0 min,  0.186 sec ( 96.476%)
 molecular gradient             ...        0 min,  0.001 sec (  0.721%)
 printout                       ...        0 min,  0.000 sec (  0.043%)

         :::::::::::::::::::::::::::::::::::::::::::::::::::::
         ::                     SUMMARY                     ::
         :::::::::::::::::::::::::::::::::::::::::::::::::::::
         :: total energy             -13.148869148399 Eh    ::
         :: gradient norm              0.204136383392 Eh/a0 ::
         :: HOMO-LUMO gap              0.822151594716 eV    ::
         ::.................................................::
         :: SCC energy               -13.286756053195 Eh    ::
         :: -> isotropic ES            0.124166875815 Eh    ::
         :: -> anisotropic ES          0.011567949507 Eh    ::
         :: -> anisotropic XC          0.009150865759 Eh    ::
         :: -> dispersion             -0.007250987964 Eh    ::
         :: repulsion energy           0.137886904796 Eh    ::
         :: add. restraining           0.000000000000 Eh    ::
         :: total charge              -1.000000081836 e     ::
         :::::::::::::::::::::::::::::::::::::::::::::::::::::

      ----------------------------------------------------------- 
     |                   =====================                   |
     |                        A N C O P T                        |
     |                   =====================                   |
     |               Approximate Normal Coordinate               |
     |                Rational Function Optimizer                |
      ----------------------------------------------------------- 
      ----------------------------------------------------------- 
     |                   =====================                   |
     |                        A N C O P T                        |
     |                   =====================                   |
     |               Approximate Normal Coordinate               |
     |                Rational Function Optimizer                |
      ----------------------------------------------------------- 

          ...................................................
          :                      SETUP                      :
          :.................................................:
          :   optimization level            normal          :
          :   max. optcycles                   200          :
          :   ANC micro-cycles                  20          :
          :   degrees of freedom                24          :
          :.................................................:
          :   RF solver                   davidson          :
          :   write xtbopt.log                true          :
          :   linear?                        false          :
          :   energy convergence         0.5000000E-05 Eh   :
          :   grad. convergence          0.1000000E-02 Eh/α :
          :   maxmium RF displ.          1.0000000          :
          :   Hlow (freq-cutoff)         0.1000000E-01      :
          :   Hmax (freq-cutoff)         5.0000000          :
          :   S6 in model hess.         20.0000000          :
          ...................................................

generating ANC from exact Hessian ...
Using Lindh-Hessian (1995)
 Shifting diagonal of input Hessian by    1.9814704731871916E-003
 Lowest  eigenvalues of input Hessian
    0.000000    0.000000    0.000000    0.000000    0.000000    0.000000
    0.010000    0.012816    0.027618    0.038206    0.040634    0.045657
    0.050543    0.063516    0.077592    0.085498    0.124076    0.139729
 Highest eigenvalues
    0.821712    1.006732    1.025690    1.051694    1.057716    1.113148


........................................................................
.............................. CYCLE    1 ..............................
........................................................................

 iter      E             dE          RMSdq      gap      omega  full diag
   1    -13.2867584 -0.132868E+02  0.872E-06    0.82       0.0  T
   2    -13.2867584  0.532907E-12  0.939E-06    0.82    3366.0  T
   3    -13.2867584 -0.158096E-12  0.825E-06    0.82    3832.7  T
     SCC iter.                  ...        0 min,  0.040 sec
     gradient                   ...        0 min,  0.004 sec
 * total energy  :   -13.1488691 Eh     change       -0.2539302E-10 Eh
   gradient norm :     0.2033767 Eh/α   predicted     0.0000000E+00 (-100.00%)
   displ. norm   :     0.6069797 α      lambda       -0.9332930E-01
   maximum displ.:     0.3453416 α      in ANC's #2, #15, #4, ...

........................................................................
.............................. CYCLE    2 ..............................
........................................................................

 iter      E             dE          RMSdq      gap      omega  full diag
   1    -13.3978882 -0.133979E+02  0.107E+00    1.58       0.0  T
   2    -13.3957366  0.215160E-02  0.836E-01    1.56       1.0  T
   3    -13.3989798 -0.324322E-02  0.575E-01    1.58       1.0  T
   4    -13.4004050 -0.142522E-02  0.532E-02    1.57       1.0  T
   5    -13.4004229 -0.178791E-04  0.272E-02    1.58       1.2  T
   6    -13.4004260 -0.308954E-05  0.135E-02    1.57       2.3  T
   7    -13.4004262 -0.242912E-06  0.847E-03    1.57       3.7  T
   8    -13.4004266 -0.353480E-06  0.386E-03    1.57       8.2  T
   9    -13.4004268 -0.161231E-06  0.744E-04    1.57      42.5  T
  10    -13.4004268 -0.276798E-08  0.301E-04    1.57     105.1  T
     SCC iter.                  ...        0 min,  0.133 sec
     gradient                   ...        0 min,  0.004 sec
 * total energy  :   -13.2318449 Eh     change       -0.8297571E-01 Eh
   gradient norm :     0.1518846 Eh/α   predicted    -0.6385705E-01 ( -23.04%)
   displ. norm   :     0.7969301 α      lambda       -0.1106784E+00
   maximum displ.:     0.5368186 α      in ANC's #15, #2, #4, ...

........................................................................
.............................. CYCLE    3 ..............................
........................................................................

 iter      E             dE          RMSdq      gap      omega  full diag
   1    -13.5330921 -0.135331E+02  0.109E+00    3.04       0.0  T
   2    -13.5336298 -0.537655E-03  0.730E-01    2.97       1.0  T
   3    -13.5338893 -0.259491E-03  0.481E-01    3.04       1.0  T
   4    -13.5348689 -0.979613E-03  0.652E-02    3.01       1.0  T
   5    -13.5348776 -0.868822E-05  0.325E-02    3.01       1.0  T
   6    -13.5348867 -0.908855E-05  0.106E-02    3.01       3.0  T
   7    -13.5348867 -0.461977E-07  0.561E-03    3.01       5.6  T
   8    -13.5348868 -0.879255E-07  0.773E-04    3.01      40.9  T
   9    -13.5348868 -0.532122E-09  0.416E-04    3.01      75.9  T
     SCC iter.                  ...        0 min,  0.167 sec
     gradient                   ...        0 min,  0.006 sec
 * total energy  :   -13.2968658 Eh     change       -0.6502097E-01 Eh
   gradient norm :     0.1351496 Eh/α   predicted    -0.9048498E-01 (  39.16%)
   displ. norm   :     0.7612724 α      lambda       -0.5168526E-01
   maximum displ.:     0.6546364 α      in ANC's #2, #4, #8, ...

........................................................................
.............................. CYCLE    4 ..............................
........................................................................

 iter      E             dE          RMSdq      gap      omega  full diag
   1    -13.5180659 -0.135181E+02  0.119E+00    3.55       0.0  T
   2    -13.5185593 -0.493373E-03  0.740E-01    3.53       1.0  T
   3    -13.5208046 -0.224532E-02  0.513E-01    3.55       1.0  T
   4    -13.5216222 -0.817653E-03  0.556E-02    3.56       1.0  T
   5    -13.5216431 -0.209040E-04  0.209E-02    3.55       1.5  T
   6    -13.5216438 -0.671501E-06  0.869E-03    3.56       3.6  T
   7    -13.5216441 -0.246708E-06  0.358E-03    3.56       8.8  T
   8    -13.5216441 -0.539692E-07  0.839E-04    3.56      37.7  T
   9    -13.5216441 -0.507718E-10  0.321E-04    3.56      98.5  T
     SCC iter.                  ...        0 min,  0.083 sec
     gradient                   ...        0 min,  0.002 sec
 * total energy  :   -13.3271893 Eh     change       -0.3032344E-01 Eh
   gradient norm :     0.1151791 Eh/α   predicted    -0.4081935E-01 (  34.61%)
   displ. norm   :     0.4760653 α      lambda       -0.3325297E-01
   maximum displ.:     0.2204549 α      in ANC's #15, #1, #2, ...

........................................................................
.............................. CYCLE    5 ..............................
........................................................................

 iter      E             dE          RMSdq      gap      omega  full diag
   1    -13.5646028 -0.135646E+02  0.742E-01    4.09       0.0  T
   2    -13.5657122 -0.110940E-02  0.522E-01    4.12       1.0  T
   3    -13.5669880 -0.127582E-02  0.281E-01    4.10       1.0  T
   4    -13.5670480 -0.599664E-04  0.541E-02    4.11       1.0  T
   5    -13.5670737 -0.256656E-04  0.164E-02    4.11       1.9  T
   6    -13.5670739 -0.253903E-06  0.710E-03    4.10       4.5  T
   7    -13.5670741 -0.176125E-06  0.304E-03    4.11      10.4  T
   8    -13.5670741 -0.324119E-07  0.775E-04    4.11      40.8  T
   9    -13.5670741 -0.317456E-09  0.399E-04    4.11      79.2  T
     SCC iter.                  ...        0 min,  0.149 sec
     gradient                   ...        0 min,  0.009 sec
 * total energy  :   -13.3474996 Eh     change       -0.2031034E-01 Eh
   gradient norm :     0.1044986 Eh/α   predicted    -0.2039469E-01 (   0.42%)
   displ. norm   :     0.5588068 α      lambda       -0.3014811E-01
   maximum displ.:     0.3071423 α      in ANC's #1, #15, #21, ...

........................................................................
.............................. CYCLE    6 ..............................
........................................................................

 iter      E             dE          RMSdq      gap      omega  full diag
   1    -13.6034247 -0.136034E+02  0.805E-01    4.82       0.0  T
   2    -13.6049956 -0.157085E-02  0.539E-01    4.66       1.0  T
   3    -13.6061128 -0.111722E-02  0.277E-01    4.75       1.0  T
   4    -13.6061893 -0.764738E-04  0.429E-02    4.73       1.0  T
   5    -13.6061932 -0.396471E-05  0.192E-02    4.73       1.6  T
   6    -13.6061946 -0.133392E-05  0.737E-03    4.73       4.3  T
   7    -13.6061946 -0.350501E-07  0.143E-03    4.73      22.2  T
   8    -13.6061946 -0.284203E-08  0.826E-04    4.73      38.3  T
   9    -13.6061946 -0.107935E-08  0.238E-04    4.73     132.7  T
     SCC iter.                  ...        0 min,  0.120 sec
     gradient                   ...        0 min,  0.011 sec
 * total energy  :   -13.3625118 Eh     change       -0.1501221E-01 Eh
   gradient norm :     0.0963735 Eh/α   predicted    -0.1978116E-01 (  31.77%)
   displ. norm   :     0.6291080 α      lambda       -0.2965032E-01
   maximum displ.:     0.3866840 α      in ANC's #2, #1, #15, ...

........................................................................
.............................. CYCLE    7 ..............................
........................................................................

 iter      E             dE          RMSdq      gap      omega  full diag
   1    -13.6295815 -0.136296E+02  0.884E-01    5.16       0.0  T
   2    -13.6304175 -0.835948E-03  0.474E-01    5.27       1.0  T
   3    -13.6306100 -0.192534E-03  0.315E-01    5.20       1.0  T
   4    -13.6308578 -0.247791E-03  0.325E-02    5.24       1.0  T
   5    -13.6308587 -0.832348E-06  0.151E-02    5.24       2.1  T
   6    -13.6308595 -0.854106E-06  0.626E-03    5.24       5.1  T
   7    -13.6308595 -0.374215E-07  0.122E-03    5.24      25.9  T
   8    -13.6308595 -0.125020E-08  0.662E-04    5.24      47.8  T
   9    -13.6308595 -0.932246E-09  0.119E-04    5.24     265.7  T
     SCC iter.                  ...        0 min,  0.137 sec
     gradient                   ...        0 min,  0.010 sec
 * total energy  :   -13.3715586 Eh     change       -0.9046806E-02 Eh
   gradient norm :     0.0941051 Eh/α   predicted    -0.2069262E-01 ( 128.73%)
   displ. norm   :     0.3365884 α      lambda       -0.1989399E-01
   maximum displ.:     0.1510382 α      in ANC's #4, #14, #2, ...

........................................................................
.............................. CYCLE    8 ..............................
........................................................................

 iter      E             dE          RMSdq      gap      omega  full diag
   1    -13.6275151 -0.136275E+02  0.581E-01    5.26       0.0  T
   2    -13.6279822 -0.467045E-03  0.355E-01    5.28       1.0  T
   3    -13.6281078 -0.125562E-03  0.201E-01    5.27       1.0  T
   4    -13.6282026 -0.948388E-04  0.243E-02    5.27       1.3  T
   5    -13.6282033 -0.718832E-06  0.175E-02    5.27       1.8  T
   6    -13.6282040 -0.698545E-06  0.213E-03    5.27      14.9  T
   7    -13.6282040 -0.338644E-08  0.123E-03    5.27      25.7  T
   8    -13.6282040 -0.367136E-08  0.526E-04    5.27      60.1  T
   9    -13.6282040 -0.177291E-09  0.814E-05    5.27     388.5  T
     SCC iter.                  ...        0 min,  0.101 sec
     gradient                   ...        0 min,  0.008 sec
 * total energy  :   -13.3776425 Eh     change       -0.6083880E-02 Eh
   gradient norm :     0.0784127 Eh/α   predicted    -0.1107391E-01 (  82.02%)
   displ. norm   :     0.3174293 α      lambda       -0.1534708E-01
   maximum displ.:     0.2010380 α      in ANC's #3, #5, #17, ...

........................................................................
.............................. CYCLE    9 ..............................
........................................................................

 iter      E             dE          RMSdq      gap      omega  full diag
   1    -13.6243275 -0.136243E+02  0.536E-01    5.28       0.0  T
   2    -13.6244838 -0.156270E-03  0.353E-01    5.30       1.0  T
   3    -13.6244091  0.746948E-04  0.129E-01    5.28       1.0  T
   4    -13.6245485 -0.139348E-03  0.329E-02    5.29       1.0  T
   5    -13.6245498 -0.136885E-05  0.116E-02    5.29       2.7  T
   6    -13.6245503 -0.461333E-06  0.427E-03    5.29       7.4  T
   7    -13.6245503 -0.442194E-07  0.111E-03    5.29      28.6  T
   8    -13.6245503  0.184158E-09  0.452E-04    5.29      70.0  T
   9    -13.6245503 -0.927148E-09  0.530E-05    5.29     596.4  T
     SCC iter.                  ...        0 min,  0.190 sec
     gradient                   ...        0 min,  0.004 sec
 * total energy  :   -13.3807696 Eh     change       -0.3127087E-02 Eh
   gradient norm :     0.0686065 Eh/α   predicted    -0.8446743E-02 ( 170.12%)
   displ. norm   :     0.3962311 α      lambda       -0.1452767E-01
   maximum displ.:     0.3038148 α      in ANC's #2, #4, #1, ...

........................................................................
.............................. CYCLE   10 ..............................
........................................................................

 iter      E             dE          RMSdq      gap      omega  full diag
   1    -13.6283186 -0.136283E+02  0.574E-01    5.46       0.0  T
   2    -13.6288163 -0.497706E-03  0.346E-01    5.49       1.0  T
   3    -13.6289990 -0.182694E-03  0.203E-01    5.46       1.0  T
   4    -13.6290875 -0.884872E-04  0.246E-02    5.47       1.3  T
   5    -13.6290877 -0.156750E-06  0.112E-02    5.47       2.8  T
   6    -13.6290881 -0.422074E-06  0.317E-03    5.47      10.0  T
   7    -13.6290881 -0.138095E-07  0.953E-04    5.47      33.2  T
   8    -13.6290881  0.342846E-09  0.369E-04    5.47      85.6  T
     SCC iter.                  ...        0 min,  0.105 sec
     gradient                   ...        0 min,  0.007 sec
 * total energy  :   -13.3829992 Eh     change       -0.2229646E-02 Eh
   gradient norm :     0.0796603 Eh/α   predicted    -0.8404257E-02 ( 276.93%)
   displ. norm   :     0.2278735 α      lambda       -0.1073899E-01
   maximum displ.:     0.0967010 α      in ANC's #13, #5, #9, ...

........................................................................
.............................. CYCLE   11 ..............................
........................................................................

 iter      E             dE          RMSdq      gap      omega  full diag
   1    -13.6407356 -0.136407E+02  0.511E-01    5.67       0.0  T
   2    -13.6409509 -0.215352E-03  0.296E-01    5.66       1.0  T
   3    -13.6409681 -0.172089E-04  0.168E-01    5.67       1.0  T
   4    -13.6410476 -0.795156E-04  0.172E-02    5.68       1.8  T
   5    -13.6410476  0.553686E-07  0.865E-03    5.68       3.7  T
   6    -13.6410479 -0.314481E-06  0.137E-03    5.68      23.1  T
   7    -13.6410479 -0.157325E-08  0.482E-04    5.68      65.6  T
   8    -13.6410479 -0.102611E-09  0.112E-04    5.68     281.1  T
     SCC iter.                  ...        0 min,  0.116 sec
     gradient                   ...        0 min,  0.005 sec
 * total energy  :   -13.3861848 Eh     change       -0.3185565E-02 Eh
   gradient norm :     0.0489058 Eh/α   predicted    -0.5648315E-02 (  77.31%)
   displ. norm   :     0.2611830 α      lambda       -0.6453074E-02
   maximum displ.:     0.1641789 α      in ANC's #3, #1, #5, ...

........................................................................
.............................. CYCLE   12 ..............................
........................................................................

 iter      E             dE          RMSdq      gap      omega  full diag
   1    -13.6423218 -0.136423E+02  0.436E-01    5.56       0.0  T
   2    -13.6423883 -0.665018E-04  0.245E-01    5.57       1.0  T
   3    -13.6423517  0.365818E-04  0.118E-01    5.55       1.0  T
   4    -13.6424144 -0.626401E-04  0.172E-02    5.56       1.8  T
   5    -13.6424144 -0.684058E-07  0.618E-03    5.56       5.1  T
   6    -13.6424145 -0.103284E-06  0.272E-03    5.56      11.6  T
   7    -13.6424146 -0.201736E-07  0.653E-04    5.56      48.4  T
   8    -13.6424146 -0.171681E-09  0.186E-04    5.56     170.0  T
     SCC iter.                  ...        0 min,  0.122 sec
     gradient                   ...        0 min,  0.007 sec
 * total energy  :   -13.3861293 Eh     change        0.5550396E-04 Eh
   gradient norm :     0.0582504 Eh/α   predicted    -0.3446638E-02 (*******%)
   displ. norm   :     0.2102794 α      lambda       -0.6960293E-02
   maximum displ.:     0.1421978 α      in ANC's #3, #4, #2, ...

........................................................................
.............................. CYCLE   13 ..............................
........................................................................

 iter      E             dE          RMSdq      gap      omega  full diag
   1    -13.6257465 -0.136257E+02  0.386E-01    5.64       0.0  T
   2    -13.6258563 -0.109808E-03  0.230E-01    5.64       1.0  T
   3    -13.6258335  0.227833E-04  0.100E-01    5.64       1.0  T
   4    -13.6258796 -0.460814E-04  0.206E-02    5.65       1.5  T
   5    -13.6258809 -0.134544E-05  0.543E-03    5.65       5.8  T
   6    -13.6258809 -0.148681E-07  0.270E-03    5.65      11.7  T
   7    -13.6258809 -0.251029E-07  0.489E-04    5.65      64.6  T
   8    -13.6258809 -0.663771E-10  0.569E-05    5.65     555.6  T
     SCC iter.                  ...        0 min,  0.092 sec
     gradient                   ...        0 min,  0.011 sec
 * total energy  :   -13.3877393 Eh     change       -0.1609987E-02 Eh
   gradient norm :     0.0339342 Eh/α   predicted    -0.3634031E-02 ( 125.72%)
   displ. norm   :     0.2275831 α      lambda       -0.4496443E-02
   maximum displ.:     0.1842166 α      in ANC's #4, #1, #5, ...

........................................................................
.............................. CYCLE   14 ..............................
........................................................................

 iter      E             dE          RMSdq      gap      omega  full diag
   1    -13.6422166 -0.136422E+02  0.398E-01    5.67       0.0  T
   2    -13.6422765 -0.598498E-04  0.228E-01    5.67       1.0  T
   3    -13.6422536  0.228182E-04  0.898E-02    5.67       1.0  T
   4    -13.6422890 -0.354100E-04  0.118E-02    5.67       2.7  T
   5    -13.6422894 -0.349491E-06  0.352E-03    5.67       9.0  T
   6    -13.6422894 -0.187533E-07  0.211E-03    5.67      15.0  T
   7    -13.6422894 -0.103747E-07  0.279E-04    5.67     113.2  T
   8    -13.6422894 -0.369766E-10  0.588E-05    5.67     537.9  T
     SCC iter.                  ...        0 min,  0.114 sec
     gradient                   ...        0 min,  0.005 sec
 * total energy  :   -13.3884524 Eh     change       -0.7131124E-03 Eh
   gradient norm :     0.0306181 Eh/α   predicted    -0.2364660E-02 ( 231.60%)
   displ. norm   :     0.1237270 α      lambda       -0.2295029E-02
   maximum displ.:     0.0602260 α      in ANC's #4, #8, #3, ...

........................................................................
.............................. CYCLE   15 ..............................
........................................................................

 iter      E             dE          RMSdq      gap      omega  full diag
   1    -13.6406436 -0.136406E+02  0.328E-01    5.74       0.0  T
   2    -13.6406507 -0.702603E-05  0.194E-01    5.74       1.0  T
   3    -13.6406380  0.126994E-04  0.433E-02    5.74       1.0  T
   4    -13.6406535 -0.155555E-04  0.463E-03    5.74       6.8  T
   5    -13.6406535 -0.732298E-08  0.189E-03    5.74      16.8  T
   6    -13.6406535 -0.511252E-08  0.104E-03    5.74      30.3  T
   7    -13.6406535 -0.273487E-08  0.155E-04    5.74     203.6  T
   8    -13.6406535 -0.760103E-11  0.406E-05    5.74     779.1  T
     SCC iter.                  ...        0 min,  0.115 sec
     gradient                   ...        0 min,  0.007 sec
 * total energy  :   -13.3896365 Eh     change       -0.1184129E-02 Eh
   gradient norm :     0.0128345 Eh/α   predicted    -0.1165082E-02 (  -1.61%)
   displ. norm   :     0.0620994 α      lambda       -0.4263524E-03
   maximum displ.:     0.0255193 α      in ANC's #9, #2, #1, ...

........................................................................
.............................. CYCLE   16 ..............................
........................................................................

 iter      E             dE          RMSdq      gap      omega  full diag
   1    -13.6391241 -0.136391E+02  0.112E-01    5.75       0.0  T
   2    -13.6391273 -0.323838E-05  0.636E-02    5.75       1.0  T
   3    -13.6391249  0.237860E-05  0.273E-02    5.75       1.2  T
   4    -13.6391285 -0.357584E-05  0.246E-03    5.75      12.8  T
   5    -13.6391285 -0.436004E-08  0.102E-03    5.75      30.9  T
   6    -13.6391285 -0.187423E-08  0.513E-04    5.75      61.6  T
   7    -13.6391285 -0.700524E-09  0.673E-05    5.75     469.5  T
     SCC iter.                  ...        0 min,  0.125 sec
     gradient                   ...        0 min,  0.009 sec
 * total energy  :   -13.3898649 Eh     change       -0.2284073E-03 Eh
   gradient norm :     0.0085463 Eh/α   predicted    -0.2139986E-03 (  -6.31%)
   displ. norm   :     0.0618174 α      lambda       -0.2875963E-03
   maximum displ.:     0.0254605 α      in ANC's #2, #17, #1, ...

........................................................................
.............................. CYCLE   17 ..............................
........................................................................

 iter      E             dE          RMSdq      gap      omega  full diag
   1    -13.6389869 -0.136390E+02  0.647E-02    5.75       0.0  T
   2    -13.6389876 -0.766476E-06  0.389E-02    5.75       1.0  T
   3    -13.6389868  0.813173E-06  0.130E-02    5.75       2.4  T
   4    -13.6389880 -0.114715E-05  0.139E-03    5.75      22.7  T
   5    -13.6389880  0.203345E-09  0.473E-04    5.75      66.9  T
   6    -13.6389880 -0.157837E-08  0.116E-04    5.75     272.6  T
     SCC iter.                  ...        0 min,  0.214 sec
     gradient                   ...        0 min,  0.028 sec
 * total energy  :   -13.3900547 Eh     change       -0.1898096E-03 Eh
   gradient norm :     0.0049234 Eh/α   predicted    -0.1443463E-03 ( -23.95%)
   displ. norm   :     0.0513632 α      lambda       -0.1333769E-03
   maximum displ.:     0.0237595 α      in ANC's #4, #2, #16, ...

........................................................................
.............................. CYCLE   18 ..............................
........................................................................

 iter      E             dE          RMSdq      gap      omega  full diag
   1    -13.6403281 -0.136403E+02  0.703E-02    5.76       0.0  T
   2    -13.6403289 -0.778327E-06  0.416E-02    5.77       1.0  T
   3    -13.6403277  0.118893E-05  0.138E-02    5.76       2.3  T
   4    -13.6403293 -0.154506E-05  0.913E-04    5.76      34.6  T
   5    -13.6403293 -0.473483E-09  0.477E-04    5.76      66.3  T
   6    -13.6403293 -0.344937E-09  0.182E-04    5.76     173.6  T
     SCC iter.                  ...        0 min,  0.436 sec
     gradient                   ...        0 min,  0.019 sec
 * total energy  :   -13.3901053 Eh     change       -0.5057990E-04 Eh
   gradient norm :     0.0034499 Eh/α   predicted    -0.6686447E-04 (  32.20%)
   displ. norm   :     0.0205461 α      lambda       -0.4222805E-04
   maximum displ.:     0.0120359 α      in ANC's #8, #3, #5, ...

........................................................................
.............................. CYCLE   19 ..............................
........................................................................

 iter      E             dE          RMSdq      gap      omega  full diag
   1    -13.6403345 -0.136403E+02  0.523E-02    5.76       0.0  T
   2    -13.6403350 -0.521300E-06  0.310E-02    5.77       1.0  T
   3    -13.6403344  0.600461E-06  0.114E-02    5.76       2.8  T
   4    -13.6403353 -0.821298E-06  0.715E-04    5.77      44.2  T
   5    -13.6403353 -0.709489E-09  0.394E-04    5.77      80.3  T
     SCC iter.                  ...        0 min,  0.249 sec
     gradient                   ...        0 min,  0.013 sec
 * total energy  :   -13.3901208 Eh     change       -0.1550589E-04 Eh
   gradient norm :     0.0021918 Eh/α   predicted    -0.2112314E-04 (  36.23%)
   displ. norm   :     0.0101952 α      lambda       -0.1325182E-04
   maximum displ.:     0.0045113 α      in ANC's #9, #17, #1, ...

........................................................................
.............................. CYCLE   20 ..............................
........................................................................

 iter      E             dE          RMSdq      gap      omega  full diag
   1    -13.6399872 -0.136400E+02  0.171E-02    5.76       0.0  T
   2    -13.6399873 -0.724896E-07  0.987E-03    5.76       3.2  T
   3    -13.6399872  0.758338E-07  0.417E-03    5.76       7.6  T
   4    -13.6399873 -0.109415E-06  0.265E-04    5.76     119.5  T
   5    -13.6399873 -0.278764E-10  0.138E-04    5.76     229.1  T
     SCC iter.                  ...        0 min,  0.391 sec
     gradient                   ...        0 min,  0.027 sec
 * total energy  :   -13.3901294 Eh     change       -0.8534382E-05 Eh
   gradient norm :     0.0014628 Eh/α   predicted    -0.6627738E-05 ( -22.34%)
   displ. norm   :     0.0123911 α      lambda       -0.7354734E-05
   maximum displ.:     0.0053883 α      in ANC's #17, #1, #9, ...
 * RMSD in coord.:     1.1198398 α      energy gain  -0.2412602E+00 Eh

generating ANC from exact Hessian ...
Using Lindh-Hessian (1995)
 Shifting diagonal of input Hessian by    0.0000000000000000     
 Lowest  eigenvalues of input Hessian
    0.000000    0.000000    0.000000    0.000000    0.000000    0.000000
    0.017199    0.017207    0.027400    0.091922    0.092009    0.092144
    0.092225    0.099995    0.100238    0.171262    0.171357    0.176958
 Highest eigenvalues
    0.997581    1.497706    1.761477    1.762103    1.846039    1.846323


........................................................................
.............................. CYCLE   21 ..............................
........................................................................

 iter      E             dE          RMSdq      gap      omega  full diag
   1    -13.6400002 -0.136400E+02  0.152E-02    5.77       0.0  T
   2    -13.6400002 -0.364604E-07  0.896E-03    5.77       3.5  T
   3    -13.6400002  0.360824E-07  0.227E-03    5.77      14.0  T
   4    -13.6400002 -0.468190E-07  0.304E-04    5.77     104.0  T
   5    -13.6400002 -0.273984E-09  0.994E-05    5.77     318.1  T
     SCC iter.                  ...        0 min,  0.389 sec
     gradient                   ...        0 min,  0.041 sec
 * total energy  :   -13.3901344 Eh     change       -0.5034595E-05 Eh
   gradient norm :     0.0009739 Eh/α   predicted     0.0000000E+00 (-100.00%)
   displ. norm   :     0.0171514 α      lambda       -0.4438241E-05
   maximum displ.:     0.0121252 α      in ANC's #2, #3, #1, ...

........................................................................
.............................. CYCLE   22 ..............................
........................................................................

 iter      E             dE          RMSdq      gap      omega  full diag
   1    -13.6400290 -0.136400E+02  0.183E-02    5.77       0.0  T
   2    -13.6400290 -0.154284E-07  0.108E-02    5.77       2.9  T
   3    -13.6400290  0.677496E-08  0.126E-03    5.77      25.2  T
   4    -13.6400290 -0.116339E-07  0.256E-04    5.77     123.4  T
   5    -13.6400290 -0.119902E-09  0.101E-04    5.77     311.7  T
     SCC iter.                  ...        0 min,  0.456 sec
     gradient                   ...        0 min,  0.012 sec
 * total energy  :   -13.3901349 Eh     change       -0.4870930E-06 Eh
   gradient norm :     0.0005334 Eh/α   predicted    -0.2220651E-05 ( 355.90%)
   displ. norm   :     0.0101784 α      lambda       -0.2510085E-05
   maximum displ.:     0.0073006 α      in ANC's #2, #1, #3, ...

   *** GEOMETRY OPTIMIZATION CONVERGED AFTER 22 ITERATIONS ***

------------------------------------------------------------------------
 total energy gain   :        -0.2412657 Eh     -151.3965 kcal/mol
 total RMSD          :         1.1207466 a0        0.5931 Å
 total power (kW/mol):       -28.7928681 (step) -140.5435 (real)
------------------------------------------------------------------------

 ANCopt (total)                0 d,  0 h,  0 min,  4.507 sec
 optimizer setup                ...        0 min,  0.000 sec (  0.007%)
 model hessian                  ...        0 min,  0.003 sec (  0.058%)
 ANC generation                 ...        0 min,  0.001 sec (  0.014%)
 coordinate transformation      ...        0 min,  0.000 sec (  0.002%)
 single point calculation       ...        0 min,  4.473 sec ( 99.235%)
 optimization log               ...        0 min,  0.004 sec (  0.086%)
 hessian update                 ...        0 min,  0.020 sec (  0.447%)
 rational function              ...        0 min,  0.005 sec (  0.118%)

================
 final structure:
================
$coord
        0.43925461569093       -0.01050663226028        0.18372166881759      c
        0.29764574951769        0.20540728339216        2.80460999803537      c
        2.64058862301407        1.02877544661717        3.68111240096391      c
        4.22975035183308        1.32265218162821        1.60162306181887      c
        2.87106570332048        0.67529366183781       -0.55940402298435      c
       -1.35003983151911       -0.20050188017284        3.96298869759679      h
        3.14076570343752        1.37821537411239        5.64299992000571      h
        6.18755023431845        1.94277361266169        1.65651613637517      h
        3.58267770941140        0.70073709949768       -2.48684036903757      h
       -1.07823895880060       -0.61488601451950       -1.06230565108323      h
$eht charge=-1 unpaired=0
$end

 Bond Distances (Angstroems)
 ---------------------------
C1-C2=1.3936         C1-C5=1.3937         C1-H10=1.0872        C2-C1=1.3936         C2-C3=1.3936         C2-H6=1.0873         
C3-C2=1.3936         C3-C4=1.3937         C3-H7=1.0872         C4-C3=1.3937         C4-C5=1.3936         C4-H8=1.0871         
C5-C1=1.3937         C5-C4=1.3936         C5-H9=1.0873         H6-C2=1.0873         H7-C3=1.0872         H8-C4=1.0871         
H9-C5=1.0873         H10-C1=1.0872        
 C  H  Rav=1.0872 sigma=0.0001  Rmin=1.0871  Rmax=1.0873     5
 C  C  Rav=1.3936 sigma=0.0000  Rmin=1.3936  Rmax=1.3937     5

 selected bond angles (degree)
 --------------------
C5-C1-C2=108.01                H10-C1-C2=126.01               H10-C1-C5=125.98               C3-C2-C1=108.00                
H6-C2-C1=126.02                H6-C2-C3=125.98                C4-C3-C2=107.99                H7-C3-C2=125.98                
H7-C3-C4=126.02                C5-C4-C3=108.01                H8-C4-C3=125.99                H8-C4-C5=126.00                
C4-C5-C1=107.99                H9-C5-C1=125.99                H9-C5-C4=126.02                

 selected dihedral angles (degree)
 ---------------------------------
C3-C2-C1-C5=  0.10            C3-C2-C1-H10=179.88           H6-C2-C1-C5=180.20            H6-C2-C1-H10=  0.00           
C4-C3-C2-C1=  0.02            C4-C3-C2-H6=179.92            H7-C3-C2-C1=180.09            H7-C3-C2-H6=  0.00            
C5-C4-C3-C2=359.86            C5-C4-C3-H7=179.80            H8-C4-C3-C2=180.03            H8-C4-C3-H7=359.96            
C4-C5-C1-C2=359.82            C4-C5-C1-H10=180.04           H9-C5-C1-C2=179.82            H9-C5-C1-H10=  0.04           
C1-C5-C4-C3=  0.20            C1-C5-C4-H8=180.03            H9-C5-C4-C3=180.20            H9-C5-C4-H8=  0.03            
           -------------------------------------------------
          |                Final Singlepoint                |
           -------------------------------------------------

          ...................................................
          :                      SETUP                      :
          :.................................................:
          :  # basis functions                  25          :
          :  # atomic orbitals                  25          :
          :  # shells                           15          :
          :  # electrons                        26          :
          :  max. iterations                   250          :
          :  Hamiltonian                  GFN2-xTB          :
          :  restarted?                      false          :
          :  GBSA solvation                  false          :
          :  PC potential                    false          :
          :  electronic temp.          300.0000000     K    :
          :  accuracy                    1.0000000          :
          :  -> integral cutoff          0.2500000E+02      :
          :  -> integral neglect         0.1000000E-07      :
          :  -> SCF convergence          0.1000000E-05 Eh   :
          :  -> wf. convergence          0.1000000E-03 e    :
          :  Broyden damping             0.4000000          :
          :  net charge                         -1          :
          :  unpaired electrons                  0          :
          ...................................................

 iter      E             dE          RMSdq      gap      omega  full diag
   1    -13.6400290 -0.136400E+02  0.369E-05    5.77       0.0  T
   2    -13.6400290 -0.674483E-11  0.219E-05    5.77    1440.8  T
   3    -13.6400290 -0.314415E-11  0.920E-06    5.77    3436.7  T

   *** convergence criteria satisfied after 3 iterations ***

         #    Occupation            Energy/Eh            Energy/eV
      -------------------------------------------------------------
         1        2.0000           -0.3859379             -10.5019
       ...           ...                  ...                  ...
         7        2.0000           -0.2154717              -5.8633
         8        2.0000           -0.2154442              -5.8625
         9        2.0000           -0.2140035              -5.8233
        10        2.0000           -0.2019653              -5.4958
        11        2.0000           -0.2019550              -5.4955
        12        2.0000           -0.1097271              -2.9858
        13        2.0000           -0.1097045              -2.9852 (HOMO)
        14                          0.1022741               2.7830 (LUMO)
        15                          0.1022804               2.7832
        16                          0.3515392               9.5659
        17                          0.3515694               9.5667
        18                          0.3568891               9.7114
       ...                                ...                  ...
        25                          0.8940517              24.3284
      -------------------------------------------------------------
                  HL-Gap            0.2119786 Eh            5.7682 eV
             Fermi-level           -0.0037152 Eh           -0.1011 eV

 SCC (total)                   0 d,  0 h,  0 min,  0.198 sec
 SCC setup                      ...        0 min,  0.002 sec (  1.157%)
 Dispersion                     ...        0 min,  0.008 sec (  3.975%)
 classical contributions        ...        0 min,  0.007 sec (  3.675%)
 integral evaluation            ...        0 min,  0.014 sec (  7.244%)
 iterations                     ...        0 min,  0.134 sec ( 67.764%)
 molecular gradient             ...        0 min,  0.031 sec ( 15.404%)
 printout                       ...        0 min,  0.000 sec (  0.049%)

         :::::::::::::::::::::::::::::::::::::::::::::::::::::
         ::                     SUMMARY                     ::
         :::::::::::::::::::::::::::::::::::::::::::::::::::::
         :: total energy             -13.390134882258 Eh    ::
         :: gradient norm              0.000533437460 Eh/a0 ::
         :: HOMO-LUMO gap              5.768230519644 eV    ::
         ::.................................................::
         :: SCC energy               -13.640026927922 Eh    ::
         :: -> isotropic ES            0.121442307176 Eh    ::
         :: -> anisotropic ES          0.020069646168 Eh    ::
         :: -> anisotropic XC          0.007378602324 Eh    ::
         :: -> dispersion             -0.007409754954 Eh    ::
         :: repulsion energy           0.249892045664 Eh    ::
         :: add. restraining           0.000000000000 Eh    ::
         :: total charge              -1.000000000000 e     ::
         :::::::::::::::::::::::::::::::::::::::::::::::::::::

           -------------------------------------------------
          |                Property Printout                |
           -------------------------------------------------

    * Orbital Energies and Occupations

         #    Occupation            Energy/Eh            Energy/eV
      -------------------------------------------------------------
         1        2.0000           -0.3859379             -10.5019
         2        2.0000           -0.3479306              -9.4677
         3        2.0000           -0.3479248              -9.4675
         4        2.0000           -0.3021546              -8.2220
         5        2.0000           -0.3021503              -8.2219
         6        2.0000           -0.2910080              -7.9187
         7        2.0000           -0.2154717              -5.8633
         8        2.0000           -0.2154442              -5.8625
         9        2.0000           -0.2140035              -5.8233
        10        2.0000           -0.2019653              -5.4958
        11        2.0000           -0.2019550              -5.4955
        12        2.0000           -0.1097271              -2.9858
        13        2.0000           -0.1097045              -2.9852 (HOMO)
        14                          0.1022741               2.7830 (LUMO)
        15                          0.1022804               2.7832
        16                          0.3515392               9.5659
        17                          0.3515694               9.5667
        18                          0.3568891               9.7114
        19                          0.4477919              12.1850
        20                          0.4479342              12.1889
        21                          0.5468999              14.8819
        22                          0.5469907              14.8844
        23                          0.7191813              19.5699
        24                          0.8940014              24.3270
        25                          0.8940517              24.3284
      -------------------------------------------------------------
                  HL-Gap            0.2119786 Eh            5.7682 eV
             Fermi-level           -0.0037152 Eh           -0.1011 eV

     #   Z          covCN         q      C6AA      α(0)
     1   6 c        3.058    -0.107    30.637     9.077
     2   6 c        3.058    -0.107    30.637     9.077
     3   6 c        3.058    -0.107    30.638     9.077
     4   6 c        3.058    -0.107    30.636     9.077
     5   6 c        3.058    -0.107    30.637     9.077
     6   1 h        0.925    -0.093     5.327     3.609
     7   1 h        0.925    -0.093     5.326     3.609
     8   1 h        0.925    -0.093     5.326     3.609
     9   1 h        0.925    -0.093     5.327     3.609
    10   1 h        0.925    -0.093     5.326     3.609

 Mol. C6AA /au·bohr⁶  :       1536.947972
 Mol. C8AA /au·bohr⁸  :      35688.321503
 Mol. α(0) /au        :         63.430951


Wiberg/Mayer (AO) data.
largest (>0.10) Wiberg bond orders for each atom

 ---------------------------------------------------------------------------
     #   Z sym  total        # sym  WBO       # sym  WBO       # sym  WBO
 ---------------------------------------------------------------------------
     1   6 c    3.940 --     2 c    1.410     5 c    1.410    10 h    0.967
     2   6 c    3.940 --     1 c    1.410     3 c    1.410     6 h    0.967
     3   6 c    3.940 --     2 c    1.410     4 c    1.410     7 h    0.967
     4   6 c    3.940 --     5 c    1.410     3 c    1.410     8 h    0.967
     5   6 c    3.940 --     4 c    1.410     1 c    1.410     9 h    0.967
     6   1 h    0.991 --     2 c    0.967
     7   1 h    0.991 --     3 c    0.967
     8   1 h    0.991 --     4 c    0.967
     9   1 h    0.991 --     5 c    0.967
    10   1 h    0.991 --     1 c    0.967
 ---------------------------------------------------------------------------

Topologies differ in total number of bonds
Writing topology from bond orders to xtbtopo.mol

molecular dipole:
                 x           y           z       tot (Debye)
 q only:       -2.096      -0.643      -1.542
   full:       -2.096      -0.644      -1.542       6.813
molecular quadrupole (traceless):
                xx          xy          yy          xz          yz          zz
 q only:       -5.059      -4.417       7.778      -4.609      -2.251      -2.719
  q+dip:       -3.658      -2.792       4.509      -4.772      -1.735      -0.851
   full:       -4.029      -3.224       5.376      -4.728      -1.872      -1.347

           -------------------------------------------------
          |                Geometry Summary                 |
           -------------------------------------------------

      molecular mass/u    :       65.0933833
   center of mass at/Å    :        1.1090123       0.3408366       0.8161812
  moments of inertia/u·Å² :        0.5520809E+02   0.5522241E+02   0.1104304E+03
rotational constants/cm⁻¹ :        0.3053472E+00   0.3052680E+00   0.1526540E+00

 * 10 selected distances

     #   Z          #   Z                                           value/Å
     1   6 c        2   6 c                                       1.3936290
     2   6 c        3   6 c                                       1.3936135
     3   6 c        4   6 c                                       1.3936639
     1   6 c        5   6 c                                       1.3936828 (max)
     4   6 c        5   6 c                                       1.3935695
     2   6 c        6   1 h                                       1.0872592
     3   6 c        7   1 h                                       1.0872356
     4   6 c        8   1 h                                       1.0871398 (min)
     5   6 c        9   1 h                                       1.0873337
     1   6 c       10   1 h                                       1.0871528

 * 2 distinct bonds (by element types)

   Z      Z             #   av. dist./Å        max./Å        min./Å
   1 H    6 C           5     1.0872242     1.0873337     1.0871398
   6 C    6 C           5     1.3936318     1.3936828     1.3935695


optimized geometry written to: xtbopt.coord


           -------------------------------------------------
          | TOTAL ENERGY              -13.390134882258 Eh   |
          | GRADIENT NORM               0.000533437460 Eh/α |
          | HOMO-LUMO GAP               5.768230519644 eV   |
           -------------------------------------------------
########################################################################
[WARNING] Runtime exception occurred
-2- restart_readRestart: Multiplicity missmatch in restart file.
-1- restart_readRestart: Number of electron missmatch in restart file.
########################################################################

------------------------------------------------------------------------
 * finished run on 2026/01/16 at 12:38:17.524     
------------------------------------------------------------------------
 total:
 * wall-time:     0 d,  0 h,  0 min,  4.940 sec
 *  cpu-time:     0 d,  0 h,  0 min,  0.629 sec
 * ratio c/w:     0.127 speedup
 SCF:
 * wall-time:     0 d,  0 h,  0 min,  0.193 sec
 *  cpu-time:     0 d,  0 h,  0 min,  0.042 sec
 * ratio c/w:     0.216 speedup
 ANC optimizer:
 * wall-time:     0 d,  0 h,  0 min,  4.708 sec
 *  cpu-time:     0 d,  0 h,  0 min,  0.578 sec
 * ratio c/w:     0.123 speedup

