10
 energy: -12.934909282550 gnorm: 0.238275293926 xtb: 6.7.1 (edcfbbe)
c            0.00000000000000        0.00000000000000        0.00000000000000
c            0.00000000000000        0.00000000000000        1.54600000676183
c            1.50935400660155        0.00000000000000        1.88061600822536
c            2.06533800903329        1.07506900470209        0.91873000401830
c            1.20222100525822        0.86982500380440       -0.34737400151933
h           -0.45978200201098        0.92969200406625        1.92134300840349
h            1.64897100721220        0.23393200102316        2.94944301290015
h            3.15168601378471        0.93042400406945        0.79409000347316
h            1.80983300791577        0.38942500170325       -1.13263300495386
h            0.16447300071936       -1.02683700449114       -0.36764500160799
10
 energy: -13.023606890185 gnorm: 0.148083439223 xtb: 6.7.1 (edcfbbe)
c            0.05303035584300        0.03611137197291        0.02356489108794
c            0.04731860295991       -0.00253722107911        1.50867479519537
c            1.47132431255798        0.13433110787780        1.93528929997934
c            2.06646415321627        0.94786874381050        0.88841052222716
c            1.24492610441930        0.76127270138417       -0.32454791791412
h           -0.50661542618688        0.84740272212779        1.94977483656656
h            1.67250236507674        0.25764947686009        2.99446582606134
h            3.15857614017035        0.97265833759390        0.80410118814738
h            1.80550815936923        0.42421145183158       -1.20101903740173
h            0.07905928108820       -0.97743867750217       -0.41614436824814
10
 energy: -13.071566251009 gnorm: 0.147822500625 xtb: 6.7.1 (edcfbbe)
c            0.18089632850700       -0.00089450479848        0.06895257590676
c            0.08054195922982        0.08881087938831        1.49335090972254
c            1.41067284710191        0.26122013327540        1.91755502513501
c            2.06611158333826        0.80779017424895        0.87943142610021
c            1.30151776479093        0.63180671367237       -0.26757074130811
h           -0.58861260582519        0.81022893692154        2.00217358776194
h            1.70768880326244        0.24012535233371        2.96690878812134
h            3.14900099703067        1.02974314132337        0.82279336384594
h            1.79816629952748        0.50546325483138       -1.25978546447465
h           -0.01388992844921       -0.97276406631910       -0.46123943510989
10
 energy: -13.100307123042 gnorm: 0.104952737831 xtb: 6.7.1 (edcfbbe)
c            0.18196941646247        0.00187798893520        0.05968574577272
c            0.09756376650129        0.07390909246915        1.50555930101726
c            1.40804577851921        0.36652846895986        1.99199334610897
c            2.15549181852855        0.76503880247629        0.85063734580922
c            1.37517722919400        0.57112517054447       -0.30668869994349
h           -0.71221299622689        0.66130949045151        2.06760040424346
h            1.72415619062333        0.32041624511708        3.02249384408257
h            3.21235765205806        1.03757830161881        0.83751981391474
h            1.81341475011168        0.52394201732986       -1.32930066410692
h           -0.16386955725760       -0.92019556302478       -0.53693040119746
10
 energy: -13.117614735621 gnorm: 0.087479469047 xtb: 6.7.1 (edcfbbe)
c            0.16704325599933        0.01931296280913        0.05147075021141
c            0.12945017041900        0.08016935792041        1.51764751524220
c            1.40119843461300        0.41804328918009        1.97945297218676
c            2.18102181026853        0.73329704470207        0.85144471348467
c            1.43194706056177        0.50199848332690       -0.33796945205652
h           -0.73968622289602        0.53257601952287        2.08401796576985
h            1.73602492304756        0.36393298764977        2.98504710758618
h            3.20274124602094        1.07669637237001        0.87060283008188
h            1.83562336897389        0.49169971142740       -1.30700612746365
h           -0.25326999849392       -0.81619621403119       -0.53213823934171
10
 energy: -13.128393745100 gnorm: 0.084250579358 xtb: 6.7.1 (edcfbbe)
c            0.20971945695395       -0.02605614861799        0.06220572279655
c            0.14994756756577        0.09458907376379        1.54348790362339
c            1.37305827287419        0.47732148912273        2.00280517428288
c            2.24074121502187        0.64208605935859        0.85732319150516
c            1.46672675324898        0.42062273327008       -0.31126487427580
h           -0.74358456430492        0.39959399701979        2.03702416534931
h            1.71410969356890        0.47777283267300        2.98299266068377
h            3.21450324537543        1.04155737494259        0.88470979007641
h            1.80280918194494        0.61072403736674       -1.37251261927397
h           -0.33593677373503       -0.73668143402186       -0.52420107906663
10
 energy: -13.133725264422 gnorm: 0.105970370134 xtb: 6.7.1 (edcfbbe)
c            0.27897627496757       -0.00618702743208        0.06796858595512
c            0.17612252633416        0.11627598213531        1.53637664525496
c            1.38256659343211        0.51707297614382        1.97061855199819
c            2.25050327651495        0.63358718230845        0.84281200612163
c            1.51434104272745        0.37558876839469       -0.31393162942251
h           -0.80462263127601        0.24258715674587        2.07464556548111
h            1.73741470424451        0.54150948240533        2.97286837361146
h            3.21961200838178        1.08944932082618        0.89734508875128
h            1.83622833120473        0.52705302629540       -1.31130969073121
h           -0.49904807801718       -0.63540685294551       -0.57482346131897
10
 energy: -13.141979359782 gnorm: 0.062812661263 xtb: 6.7.1 (edcfbbe)
c            0.24176244128546        0.01021389674596        0.05044670478694
c            0.14486716036883        0.12636619203490        1.51196437758765
c            1.38258197131315        0.48846073677336        1.95028545450574
c            2.22925831020591        0.64970595485797        0.83525717424230
c            1.50126708215375        0.37788631615062       -0.32927729714559
h           -0.77872101491086        0.21924354240014        2.08829789999652
h            1.74473816714330        0.53972955975767        2.98109452884945
h            3.21243215820023        1.08185063765354        0.89459010068146
h            1.83744567759533        0.48317368688096       -1.29334275855874
h           -0.42353790484103       -0.57510050837766       -0.52674614924468
10
 energy: -13.143904421188 gnorm: 0.065681241126 xtb: 6.7.1 (edcfbbe)
c            0.20886579537911        0.00000756636845        0.06202616808433
c            0.16572689987064        0.09685744175134        1.51831721025349
c            1.41394935217132        0.46649719525561        1.96457144476729
c            2.22759466103954        0.66911647718607        0.86474264487020
c            1.52391794933923        0.32133393038588       -0.31852128194665
h           -0.70336698201535        0.16033345790476        2.08258139185373
h            1.69201725956720        0.62661766038938        2.98617166134164
h            3.21409543950921        1.09582543257497        0.91852430989851
h            1.85898649525291        0.48951812377494       -1.34723416693720
h           -0.50969282159975       -0.52457727071392       -0.56860934648428
10
 energy: -13.143349483964 gnorm: 0.095015077386 xtb: 6.7.1 (edcfbbe)
c            0.23256470220781       -0.00080884531180        0.06683630475101
c            0.18854425342791        0.10918928260899        1.50537131718608
c            1.42045713749768        0.50690936479502        1.98225235466782
c            2.27224958098019        0.65396076155706        0.85460980613855
c            1.52196527331861        0.32678501395938       -0.30750650429061
h           -0.77978015366438        0.03751293643805        2.12761426963648
h            1.64641925234303        0.72344412777431        2.99663159780068
h            3.23686978463493        0.99044858665872        0.86600171147303
h            1.84469347106797        0.50711188919720       -1.35463681738823
h           -0.49188925329970       -0.45302310279948       -0.57460400427378
10
 energy: -13.147540267770 gnorm: 0.073409561493 xtb: 6.7.1 (edcfbbe)
c            0.27048548940567       -0.01578558856788        0.07422109141338
c            0.16286897203930        0.11247411095886        1.50665711528068
c            1.39640285184821        0.49988144421735        1.97913742546806
c            2.26533563686568        0.62963556713872        0.83313473697996
c            1.49113103221756        0.35504116429383       -0.32440660935099
h           -0.74013351163046        0.03234138681984        2.10275336456282
h            1.65604042249229        0.70180517769298        3.00299583498648
h            3.26404186919306        1.04844110221915        0.86562058677298
h            1.83561593001121        0.46081328682867       -1.29260941285008
h           -0.50969464392845       -0.42311763672408       -0.58493409756223
10
 energy: -13.151067877378 gnorm: 0.028856756683 xtb: 6.7.1 (edcfbbe)
c            0.24367503892906       -0.00888117048221        0.06933785787797
c            0.15871805801864        0.11398188279507        1.51054584976734
c            1.40076670641505        0.48793980247747        1.95598506931975
c            2.24363385595954        0.67005525117973        0.85424060348854
c            1.51646974296280        0.32862005021030       -0.32366956202128
h           -0.73406469023928        0.03197407720251        2.09565293507359
h            1.67816839217266        0.68231633381713        2.98910925802507
h            3.24963434368730        1.06294697979484        0.88965857669963
h            1.86611716732989        0.44991064325037       -1.32511397283519
h           -0.53102456672161       -0.41733383536776       -0.55317657969438
10
 energy: -13.151924857392 gnorm: 0.021635549967 xtb: 6.7.1 (edcfbbe)
c            0.24339869345196       -0.01671971657326        0.06581921433227
c            0.17379751006218        0.10675807338026        1.50786756973312
c            1.40845988280997        0.51115937335701        1.97440172309342
c            2.24383910358635        0.67939769296620        0.85890671525387
c            1.51048477776392        0.33015604863457       -0.31419600127943
h           -0.71999215652859       -0.00873812935369        2.08712420621464
h            1.66946557975914        0.71397770375442        3.00145618244467
h            3.24213458843414        1.02880745045782        0.87586813632265
h            1.86338139440273        0.44245497868696       -1.31586056411218
h           -0.54287532522773       -0.38572346043285       -0.57881714630197
10
 energy: -13.152271840499 gnorm: 0.024911855553 xtb: 6.7.1 (edcfbbe)
c            0.24761801953183       -0.01602987139058        0.06241667965180
c            0.17785343501238        0.11579128866101        1.50373020068988
c            1.40502980369229        0.52340657738102        1.97788386779916
c            2.24970819000423        0.67147615012086        0.85427324400784
c            1.50999368254012        0.32471887010716       -0.31959572122210
h           -0.72526304251333       -0.05621825625506        2.10027762067635
h            1.65581962208285        0.72627158791657        2.99838641946572
h            3.26444164018354        1.03676672305118        0.88225183744484
h            1.86346901995461        0.42164321410904       -1.32817983299198
h           -0.55657632197447       -0.34629626882374       -0.56887427982046
10
 energy: -13.152897704778 gnorm: 0.012209599164 xtb: 6.7.1 (edcfbbe)
c            0.25694690461816       -0.01602739844247        0.06758530893869
c            0.16716863721160        0.10865029244340        1.51108621228098
c            1.39670692023221        0.53006152548032        1.96952511699254
c            2.24278196686545        0.68757676576270        0.85598586320144
c            1.50577009423536        0.33784322227416       -0.32197553833062
h           -0.71996206705729       -0.06905552223469        2.09678447616839
h            1.65869198226939        0.72386390316847        2.98950049696816
h            3.26197761731045        1.02288767592120        0.87529974053746
h            1.87604402657424        0.40790276951444       -1.32278879997296
h           -0.55403203374553       -0.33217321901008       -0.55843284108304
10
 energy: -13.153071262044 gnorm: 0.006316587537 xtb: 6.7.1 (edcfbbe)
c            0.24847237140809       -0.01780044098915        0.06157043918603
c            0.17257484338719        0.10744873901919        1.50868283612217
c            1.39790264965484        0.53205294817335        1.96954533918190
c            2.23437294767324        0.69552689264342        0.86137465907207
c            1.50158284556998        0.33968980291154       -0.31905761420946
h           -0.70693355975430       -0.07888761761800        2.09092468968758
h            1.66796089816106        0.72850628947023        2.99047695048085
h            3.25877813627420        1.02520679937310        0.88126021344154
h            1.88426182107478        0.39251831259003       -1.31570470544308
h           -0.56687890493504       -0.32273171069625       -0.56650277181856
10
 energy: -13.153137526639 gnorm: 0.003487149412 xtb: 6.7.1 (edcfbbe)
c            0.24859015846377       -0.01574458512535        0.06223188327369
c            0.17183916673184        0.10539558567259        1.51024661243686
c            1.39539699703479        0.53858189263640        1.97054593264045
c            2.23511650581820        0.69610097562956        0.86030293407323
c            1.50236205115963        0.34203595808571       -0.32122863402495
h           -0.70726864216369       -0.09224911758079        2.09597684911889
h            1.66504491848066        0.73323828632766        2.99104864849857
h            3.26069272983155        1.02155000136350        0.87911529260776
h            1.88990738918850        0.38668345602066       -1.31968792495005
h           -0.56958722603121       -0.31406243815248       -0.56598155797341
10
 energy: -13.153157817873 gnorm: 0.003524908459 xtb: 6.7.1 (edcfbbe)
c            0.24789434035466       -0.01413793249331        0.06204008843406
c            0.17228216857934        0.10571467647707        1.51043443473833
c            1.39388319027836        0.54061369177376        1.97031732600259
c            2.23554391074248        0.69567580186338        0.85887370505681
c            1.50042284935673        0.34735285083785       -0.32136363281076
h           -0.70640357755859       -0.09428406433693        2.09735849146005
h            1.66263633394178        0.73129903110927        2.99117392078730
h            3.26129498062966        1.02079363928515        0.87761744533646
h            1.89191464132387        0.38353564324916       -1.32015844738088
h           -0.56737478913425       -0.31503332288794       -0.56372329592291
10
 energy: -13.153172443326 gnorm: 0.002769907924 xtb: 6.7.1 (edcfbbe)
c            0.24814849959380       -0.01223037505255        0.06221811466751
c            0.17238812772138        0.10706315097536        1.51095922108622
c            1.39235859390610        0.54252485082489        1.96936953233902
c            2.23550653719166        0.69582024443320        0.85767734653590
c            1.50094754369130        0.34956567245355       -0.32199883916220
h           -0.70576096514170       -0.09706791014150        2.09896091656989
h            1.66314646925675        0.72889976605175        2.99135307063985
h            3.25978247598912        1.02334798248618        0.87788289011440
h            1.89501501241951        0.37897608518070       -1.32006991940102
h           -0.56943824611389       -0.31536945233414       -0.56378229768852
10
 energy: -13.153182792702 gnorm: 0.002044591236 xtb: 6.7.1 (edcfbbe)
c            0.24743558005383       -0.01021414148122        0.06226012016245
c            0.17185015375584        0.10806722467169        1.51177170500348
c            1.39179583061239        0.54151322878467        1.96980183802999
c            2.23523861283809        0.69486920035626        0.85662635106033
c            1.50136443064263        0.35085844870939       -0.32204915267101
h           -0.70499423789718       -0.09541227141343        2.09924395507774
h            1.66407238257104        0.72687010209029        2.99187206910647
h            3.25813573933939        1.02589685613128        0.87831514578818
h            1.89533198638742        0.37712260147950       -1.32035976921690
h           -0.56813642978941       -0.31804123445097       -0.56491222663969
10
 energy: -13.153192676483 gnorm: 0.001654719644 xtb: 6.7.1 (edcfbbe)
c            0.24668391291440       -0.00747808801229        0.06234182206514
c            0.17102660484421        0.11069680438821        1.51283033286880
c            1.39115994673089        0.53968060166968        1.96993325863892
c            2.23528328516422        0.69465611336163        0.85522427364931
c            1.50213990434065        0.35113051345132       -0.32116982438586
h           -0.70534085812040       -0.09547021518999        2.09919243694536
h            1.66553930802534        0.72486472959195        2.99153763246866
h            3.25653843289218        1.02880627295404        0.87820036379044
h            1.89562214338559        0.37430688780763       -1.31952121204466
h           -0.56655863166303       -0.31966360514472       -0.56599904829508
10
 energy: -13.153200584441 gnorm: 0.000966474767 xtb: 6.7.1 (edcfbbe)
c            0.24588299848754       -0.00356506956719        0.06239330707367
c            0.16925647946476        0.11601355529748        1.51274311752832
c            1.39014119998698        0.54213417624001        1.97045213684765
c            2.23387159079647        0.69908916409639        0.85456107215051
c            1.50209807540594        0.35160356260544       -0.32127236648652
h           -0.70434310696809       -0.10203550799825        2.09888393238467
h            1.66550876734748        0.72435735029262        2.99174449176832
h            3.25907154899365        1.02297954665488        0.87777101589597
h            1.89564772176116        0.37328118682284       -1.31966901943828
h           -0.56504122676184       -0.32232794956676       -0.56503765202327
10
 energy: -13.153202796086 gnorm: 0.000889766201 xtb: 6.7.1 (edcfbbe)
c            0.24627416872932       -0.00434997443910        0.06264487428840
c            0.16995404628474        0.11403569414691        1.51324948820450
c            1.38978647508040        0.54247314776789        1.97067129780437
c            2.23478671036985        0.69591722204475        0.85464126831365
c            1.50233663238635        0.35145155406897       -0.32122088396218
h           -0.70392392804036       -0.10437967052213        2.09866812955748
h            1.66349720577665        0.73100584202829        2.99114094457028
h            3.26032516138283        1.01885371066242        0.87778477751252
h            1.89428747303857        0.37786230456627       -1.32011891238635
h           -0.56522989649430       -0.32133981544683       -0.56489094820163
