10
 energy: -13.148869148424 gnorm: 0.204136411177 xtb: 6.7.1 (edcfbbe)
c            0.00000000000000        0.00000000000000        0.00000000000000
c            0.00000000000000        0.00000000000000        1.54600000676183
c            1.50935400660155        0.00000000000000        1.88061600822536
c            2.06533800903329        1.07506900470209        0.91873000401830
c            1.20222100525822        0.86982500380440       -0.34737400151933
h           -0.45978200201098        0.92969200406625        1.92134300840349
h            1.64897100721220        0.23393200102316        2.94944301290015
h            3.15168601378471        0.93042400406945        0.79409000347316
h            1.80983300791577        0.38942500170325       -1.13263300495386
h            0.16447300071936       -1.02683700449114       -0.36764500160799
10
 energy: -13.231844854644 gnorm: 0.151905914868 xtb: 6.7.1 (edcfbbe)
c            0.02322781682074        0.05092769763400        0.01368274235335
c            0.03985152770861        0.00393593064078        1.52169905916434
c            1.47395447798205        0.10539702977721        1.92833196641664
c            2.07389636393348        0.95110034882805        0.89572546173466
c            1.26547158105442        0.74361001546870       -0.32054765838484
h           -0.53216346316231        0.83604393096465        1.97449339703305
h            1.67051695156887        0.27317788052839        2.99471100644739
h            3.17102784795950        0.99550426641537        0.78344145731163
h            1.83226213539876        0.41428494005414       -1.20812856441198
h            0.07404880925000       -0.97245202543383       -0.42083883196315
10
 energy: -13.296865827840 gnorm: 0.135623246123 xtb: 6.7.1 (edcfbbe)
c            0.13402240524488        0.06096425368217        0.06481416833496
c            0.06504622559935        0.00546221433920        1.50517375194005
c            1.39212946889722        0.34524501275232        1.91520662764380
c            2.09733097652720        0.82230965529287        0.85636972748764
c            1.34225141058974        0.60645733672507       -0.24685409670416
h           -0.61491379625575        0.72582327998397        2.02891512316903
h            1.70252799180272        0.28252083891621        2.99549644836047
h            3.18149477132268        1.00503324399496        0.78380749803479
h            1.83365188607774        0.47826407739706       -1.25822727849542
h           -0.04144729129167       -0.93054989820639       -0.48213193407008
10
 energy: -13.327189268469 gnorm: 0.115212154031 xtb: 6.7.1 (edcfbbe)
c            0.12334334261305        0.08653919164814        0.06076284158136
c            0.10435764074229       -0.02204350883827        1.50671994413305
c            1.39822088954704        0.45277958524465        1.98463845966411
c            2.18315526334741        0.78039116148512        0.83880297888874
c            1.41465946962436        0.52907300549247       -0.29063723555217
h           -0.73972228092873        0.54940959687947        2.10961066248392
h            1.70914767845584        0.38985605236415        3.03432332753093
h            3.25633768694415        1.02003385080437        0.81611878586493
h            1.85278384380306        0.47108571864511       -1.32844508875180
h           -0.21018948563437       -0.85559463884774       -0.56932464014201
10
 energy: -13.347499608632 gnorm: 0.104708610310 xtb: 6.7.1 (edcfbbe)
c            0.12759257465222        0.07397207827494        0.07043116724205
c            0.15078972952069        0.03213182132777        1.50739358879602
c            1.39187769149822        0.47768022807620        1.95157872098788
c            2.19311594128238        0.73557816515191        0.86775562942479
c            1.46223631781409        0.43794491825039       -0.31590626415283
h           -0.76080213429575        0.45462440895060        2.12694886016188
h            1.72306481031246        0.41714053282629        2.96051825674711
h            3.24590418150839        1.08986987345885        0.87810534634977
h            1.86799545918947        0.45579890079430       -1.31901618766906
h           -0.30968052296808       -0.77321091223380       -0.56523908218653
10
 energy: -13.362511815360 gnorm: 0.096427962927 xtb: 6.7.1 (edcfbbe)
c            0.18346288104588        0.02497057598688        0.08846156864411
c            0.15604811406490        0.06586734609170        1.50631363526238
c            1.34805378233394        0.54263530822180        1.97787171244115
c            2.24313021974309        0.62768057553098        0.85959449434070
c            1.47249059610789        0.38817463008587       -0.29779039684514
h           -0.76359294479287        0.32357711052609        2.08303564386350
h            1.71218773686997        0.51402832052105        2.95992157430882
h            3.24319956561484        1.02928579799219        0.86199275361797
h            1.81893036232613        0.56087425849670       -1.33487842817993
h           -0.32181626479971       -0.67556390857581       -0.54195252175249
10
 energy: -13.371558621153 gnorm: 0.094894660758 xtb: 6.7.1 (edcfbbe)
c            0.24645315702125        0.03218107325991        0.09818452316000
c            0.15055630253158        0.06038184169617        1.49189322712789
c            1.37155511364770        0.58864793179684        1.94655470676104
c            2.24068988000587        0.64483079455636        0.84883178644237
c            1.53147974247522        0.33576812346433       -0.28102526673087
h           -0.73971989334990        0.17230983798029        2.06008849113206
h            1.73962754499408        0.56440408165137        2.96732124597941
h            3.21573046715022        1.08976394450071        0.87717041305726
h            1.85084523813679        0.48152003401179       -1.25947321856636
h           -0.51512350409877       -0.56827764804031       -0.58697587266174
10
 energy: -13.377642501297 gnorm: 0.079737162919 xtb: 6.7.1 (edcfbbe)
c            0.22303110159798        0.03641154416390        0.08194925009062
c            0.15133415743435        0.10241147087508        1.47225754962897
c            1.40991338036020        0.57154550055147        1.91386245151491
c            2.25656902491112        0.67339439820967        0.85657386837222
c            1.55736013935128        0.30818685901172       -0.27531436753902
h           -0.81001838029071        0.10362231762153        2.09947396760166
h            1.72191731079951        0.59486679705407        2.96593171032933
h            3.23185797365899        1.05073156811265        0.88868730195806
h            1.85177655645645        0.48401424324732       -1.31477786949057
h           -0.50164721576512       -0.52365468396995       -0.52607382676511
10
 energy: -13.380769588016 gnorm: 0.068761138089 xtb: 6.7.1 (edcfbbe)
c            0.19698192826368        0.00047119896284        0.08707796677139
c            0.14499153088452        0.11424612397245        1.48800627053161
c            1.40745634995336        0.51498302048594        1.93600606138725
c            2.24867201096614        0.63878937565282        0.85130022719076
c            1.52869934852729        0.29765137219798       -0.30572404915058
h           -0.72752652062126        0.11488324226389        2.09027584491427
h            1.67882455003175        0.61486509589146        2.98596456637226
h            3.26993476200634        1.10944323136607        0.92405627004971
h            1.83716808831144        0.48636609759700       -1.35341630517695
h           -0.49310799980920       -0.49016874351299       -0.54097681718867
10
 energy: -13.382999234444 gnorm: 0.079766479966 xtb: 6.7.1 (edcfbbe)
c            0.23832808922966       -0.00074372789644        0.10218635062076
c            0.17617374302117        0.11813296303160        1.48923907775061
c            1.40178276354902        0.52729852302286        1.96484196855399
c            2.25808282618870        0.61769518400734        0.83581936402600
c            1.51689510324011        0.32812685058628       -0.32226739968950
h           -0.75591695521142        0.01855840391503        2.12867805295861
h            1.65117221739183        0.70394710616786        2.99660341856715
h            3.26905872199600        1.05393263941378        0.87126075536944
h            1.84749931580099        0.45931889261953       -1.30252680600476
h           -0.51098177669200       -0.42473681999040       -0.60126474645125
10
 energy: -13.386184799100 gnorm: 0.049473587722 xtb: 6.7.1 (edcfbbe)
c            0.23978500601927       -0.00815013442712        0.10430390415461
c            0.16389746377627        0.08947199943262        1.48768330864090
c            1.41232086664440        0.51975939889882        1.95374703028999
c            2.25581989906853        0.66114979539415        0.86569390993965
c            1.52730206718537        0.32515123127254       -0.28070046330298
h           -0.72277069955372        0.00339407148384        2.08491865475596
h            1.65435976686851        0.74042740940638        2.99108297874113
h            3.24693037454230        1.01266743902235        0.85745759761376
h            1.85534287241241        0.48200351732302       -1.30891015659037
h           -0.54089356844929       -0.42434471292914       -0.59270672854160
10
 energy: -13.386129295143 gnorm: 0.058464391647 xtb: 6.7.1 (edcfbbe)
c            0.21866268543799        0.01924275155709        0.08581286467724
c            0.13353133449887        0.09609394018633        1.47364861012359
c            1.39941235310085        0.52126897572825        1.92298811917257
c            2.25594019863430        0.67528654598778        0.84486270066626
c            1.53697677013333        0.32857154272810       -0.29127730611275
h           -0.74379683810099       -0.03000346869284        2.10977679343211
h            1.67139649919889        0.70930223613785        2.97621671898341
h            3.27158555414725        1.04207974807689        0.86949357552978
h            1.86664255103704        0.42438333378962       -1.29482219171720
h           -0.51825705957350       -0.38469559062161       -0.53412984905397
10
 energy: -13.387739282074 gnorm: 0.034084238737 xtb: 6.7.1 (edcfbbe)
c            0.23433340789157       -0.00419609933759        0.09492809612246
c            0.15784642370670        0.11446793892981        1.48062286691970
c            1.40406481841812        0.52587740403089        1.94305379879474
c            2.25586357182784        0.65460746931821        0.84278221668906
c            1.54211456741450        0.30702781743909       -0.29907410823796
h           -0.74318835643491       -0.05078383386732        2.10780257514342
h            1.66158173455927        0.72632067603175        2.99037786507862
h            3.28925578226008        1.06249922263312        0.90117067352629
h            1.86505294691758        0.44340558924909       -1.34148454554795
h           -0.57483084804672       -0.37769616954960       -0.55760940278735
10
 energy: -13.388452394501 gnorm: 0.030728089293 xtb: 6.7.1 (edcfbbe)
c            0.23389464700339       -0.01297975349822        0.09942848160925
c            0.17457594502852        0.10293373142042        1.48865521696645
c            1.41135097349457        0.52666016712481        1.96544079131679
c            2.23578583325079        0.67829182254825        0.85389833925816
c            1.51330170831981        0.33872706623616       -0.30157862179056
h           -0.71195837792402       -0.04335495718250        2.08529394894506
h            1.65707978488813        0.73766455787334        3.00329483852272
h            3.25376149413543        1.00992527656221        0.86727099414026
h            1.86831752461087        0.43309592183097       -1.30770970426688
h           -0.54401548429345       -0.36943381803798       -0.59142424900020
10
 energy: -13.389636523531 gnorm: 0.012887383964 xtb: 6.7.1 (edcfbbe)
c            0.23412298767643       -0.00365761342050        0.09956750425848
c            0.15633515952292        0.09972813723001        1.48555720126594
c            1.40163709225515        0.52840762576494        1.94617970274423
c            2.24800019013754        0.68313918828422        0.84934002953354
c            1.52617618178925        0.33686070883856       -0.29313838354407
h           -0.72708369156335       -0.06520349322163        2.09391685619467
h            1.65779289713661        0.73617473621386        2.98554673323871
h            3.27447533269617        1.02412167173114        0.87009814158046
h            1.87518879383525        0.42067742461137       -1.31084055602267
h           -0.55455089497191       -0.35871837115451       -0.56365719354823
10
 energy: -13.389864930787 gnorm: 0.008637332177 xtb: 6.7.1 (edcfbbe)
c            0.23243213516707       -0.00544476221052        0.09419947219525
c            0.15958490573154        0.10515739380643        1.48106998162552
c            1.40250707107927        0.53393503966682        1.94790733146464
c            2.24220114972331        0.68709839919453        0.84718319874029
c            1.52603666880605        0.33803680289875       -0.29570352756710
h           -0.72300999047315       -0.08108038992401        2.09720297838096
h            1.66071585933679        0.73674222520804        2.98833018295636
h            3.27670442127179        1.02474078216788        0.88182385857366
h            1.87688248099858        0.40846553686935       -1.31930744176981
h           -0.56196065312720       -0.34612101279982       -0.56013599889873
10
 energy: -13.390054740399 gnorm: 0.004946388094 xtb: 6.7.1 (edcfbbe)
c            0.23467862651879       -0.00900440625590        0.09735436386640
c            0.15841116495934        0.10662488290837        1.48446414904448
c            1.39865043536409        0.53911228248508        1.94824484687416
c            2.23911571922057        0.69584651603334        0.84655293317345
c            1.52443236359439        0.34502016687290       -0.29710546012742
h           -0.72006113345026       -0.09688679015208        2.09590008054521
h            1.66113492672991        0.73539784772324        2.98641514684202
h            3.27837303356250        1.02333458151662        0.88029596108170
h            1.88640441315778        0.39366581292700       -1.32023699891441
h           -0.56904550114307       -0.33158087918111       -0.55931498668456
10
 energy: -13.390105320296 gnorm: 0.003454251308 xtb: 6.7.1 (edcfbbe)
c            0.23342785208804       -0.01114153949719        0.09725138449175
c            0.15945431922493        0.10490308268184        1.48346893805141
c            1.39779727145716        0.54352047311929        1.94874395223898
c            2.23900884366327        0.70222697515180        0.84790601691714
c            1.51906437878204        0.35522853629918       -0.29292294676509
h           -0.71486481739090       -0.10750365987927        2.09288067596812
h            1.65989593563636        0.73741831080452        2.98447459451331
h            3.28057346281341        1.02022189032692        0.87677250473426
h            1.89045008151567        0.38002892951795       -1.31402003854587
h           -0.57271327927595       -0.32337298364758       -0.56198504590296
10
 energy: -13.390120826184 gnorm: 0.002211589570 xtb: 6.7.1 (edcfbbe)
c            0.23526831980117       -0.01013275550637        0.09775483457594
c            0.15775783159715        0.10570633906408        1.48465208161986
c            1.39665151256567        0.54397702470377        1.94852687923872
c            2.23643229717022        0.70289136284992        0.84763148240725
c            1.52014606751641        0.35748515311292       -0.29652757218699
h           -0.71454314575260       -0.10636594770321        2.09663904242449
h            1.66038290611717        0.73406591273775        2.98529988139646
h            3.27636766584094        1.01986713327310        0.87581041517879
h            1.89403457695729        0.37789845037583       -1.31692125637657
h           -0.57040398329938       -0.32386265803032       -0.56029575257691
10
 energy: -13.390129360566 gnorm: 0.001475971096 xtb: 6.7.1 (edcfbbe)
c            0.23403140248845       -0.00997337077248        0.09765978540919
c            0.15811884931941        0.10632576508736        1.48442518064269
c            1.39700517114683        0.54427534894110        1.94813412864573
c            2.23784346175867        0.70116472073570        0.84751709848653
c            1.51995691889638        0.35623911157991       -0.29626355042575
h           -0.71559459495129       -0.10450105895274        2.09632305623561
h            1.66126331979764        0.73265040911697        2.98570241693199
h            3.27656802007602        1.02248923533319        0.87650384172423
h            1.89372902984114        0.37836166600199       -1.31609416737840
h           -0.57082752985920       -0.32550181219354       -0.56133775457078
10
 energy: -13.390134395161 gnorm: 0.000973914947 xtb: 6.7.1 (edcfbbe)
c            0.23310222327556       -0.00883978789560        0.09739410372372
c            0.15836361803279        0.10648832068897        1.48405093838540
c            1.39759012795321        0.54405135760676        1.94761779753963
c            2.23907793353633        0.69823656073328        0.84763682971582
c            1.51912609566018        0.35744008816060       -0.29562680798262
h           -0.71526062604510       -0.10282194717204        2.09697828767869
h            1.66092701473709        0.73169281406291        2.98577366359002
h            3.27609654542230        1.02614257491767        0.87709776676229
h            1.89355640368090        0.37609758379915       -1.31581039156438
h           -0.57048528773920       -0.32695755002424       -0.56254215214753
10
 energy: -13.390134882254 gnorm: 0.000533382204 xtb: 6.7.1 (edcfbbe)
c            0.23244353240825       -0.00555987035549        0.09722132028761
c            0.15750734756735        0.10869685332493        1.48413569643521
c            1.39733932267272        0.54440452148790        1.94796079336802
c            2.23828749400532        0.69991739247076        0.84754242477362
c            1.51930254120667        0.35735001651281       -0.29602386065161
h           -0.71441031265326       -0.10610102573097        2.09712330584029
h            1.66202163504955        0.72932016769849        2.98614695880290
h            3.27431057532807        1.02807152176716        0.87659058886530
h            1.89587139783602        0.37081410388948       -1.31597925045200
h           -0.57057948490667       -0.32538366618761       -0.56214794156830
