 Entering Gaussian System, Link 0=/home/users/astar/bmsi/zhangx5/programs/g16/g16
 Input=/home/users/astar/bmsi/zhangx5/scratch/DBU_userjob/DBU_userjob.com
 Output=/home/users/astar/bmsi/zhangx5/scratch/DBU_userjob/DBU_userjob.log
 Initial command:
 /home/users/astar/bmsi/zhangx5/programs/g16/l1.exe "/scratch/users/astar/bmsi/zhangx5/DBU_userjob/Gau-2456617.inp" -scrdir="/scratch/users/astar/bmsi/zhangx5/DBU_userjob/"
 Entering Link 1 = /home/users/astar/bmsi/zhangx5/programs/g16/l1.exe PID=   2456618.
  
 Copyright (c) 1988-2017, Gaussian, Inc.  All Rights Reserved.
  
 This is part of the Gaussian(R) 16 program.  It is based on
 the Gaussian(R) 09 system (copyright 2009, Gaussian, Inc.),
 the Gaussian(R) 03 system (copyright 2003, Gaussian, Inc.),
 the Gaussian(R) 98 system (copyright 1998, Gaussian, Inc.),
 the Gaussian(R) 94 system (copyright 1995, Gaussian, Inc.),
 the Gaussian 92(TM) system (copyright 1992, Gaussian, Inc.),
 the Gaussian 90(TM) system (copyright 1990, Gaussian, Inc.),
 the Gaussian 88(TM) system (copyright 1988, Gaussian, Inc.),
 the Gaussian 86(TM) system (copyright 1986, Carnegie Mellon
 University), and the Gaussian 82(TM) system (copyright 1983,
 Carnegie Mellon University). Gaussian is a federally registered
 trademark of Gaussian, Inc.
  
 This software contains proprietary and confidential information,
 including trade secrets, belonging to Gaussian, Inc.
  
 This software is provided under written license and may be
 used, copied, transmitted, or stored only in accord with that
 written license.
  
 The following legend is applicable only to US Government
 contracts under FAR:
  
                    RESTRICTED RIGHTS LEGEND
  
 Use, reproduction and disclosure by the US Government is
 subject to restrictions as set forth in subparagraphs (a)
 and (c) of the Commercial Computer Software - Restricted
 Rights clause in FAR 52.227-19.
  
 Gaussian, Inc.
 340 Quinnipiac St., Bldg. 40, Wallingford CT 06492
  
  
 ---------------------------------------------------------------
 Warning -- This program may not be used in any manner that
 competes with the business of Gaussian, Inc. or will provide
 assistance to any competitor of Gaussian, Inc.  The licensee
 of this program is prohibited from giving any competitor of
 Gaussian, Inc. access to this program.  By using this program,
 the user acknowledges that Gaussian, Inc. is engaged in the
 business of creating and licensing software in the field of
 computational chemistry and represents and warrants to the
 licensee that it is not a competitor of Gaussian, Inc. and that
 it will not use this program in any manner prohibited above.
 ---------------------------------------------------------------
  

 Cite this work as:
 Gaussian 16, Revision B.01,
 M. J. Frisch, G. W. Trucks, H. B. Schlegel, G. E. Scuseria, 
 M. A. Robb, J. R. Cheeseman, G. Scalmani, V. Barone, 
 G. A. Petersson, H. Nakatsuji, X. Li, M. Caricato, A. V. Marenich, 
 J. Bloino, B. G. Janesko, R. Gomperts, B. Mennucci, H. P. Hratchian, 
 J. V. Ortiz, A. F. Izmaylov, J. L. Sonnenberg, D. Williams-Young, 
 F. Ding, F. Lipparini, F. Egidi, J. Goings, B. Peng, A. Petrone, 
 T. Henderson, D. Ranasinghe, V. G. Zakrzewski, J. Gao, N. Rega, 
 G. Zheng, W. Liang, M. Hada, M. Ehara, K. Toyota, R. Fukuda, 
 J. Hasegawa, M. Ishida, T. Nakajima, Y. Honda, O. Kitao, H. Nakai, 
 T. Vreven, K. Throssell, J. A. Montgomery, Jr., J. E. Peralta, 
 F. Ogliaro, M. J. Bearpark, J. J. Heyd, E. N. Brothers, K. N. Kudin, 
 V. N. Staroverov, T. A. Keith, R. Kobayashi, J. Normand, 
 K. Raghavachari, A. P. Rendell, J. C. Burant, S. S. Iyengar, 
 J. Tomasi, M. Cossi, J. M. Millam, M. Klene, C. Adamo, R. Cammi, 
 J. W. Ochterski, R. L. Martin, K. Morokuma, O. Farkas, 
 J. B. Foresman, and D. J. Fox, Gaussian, Inc., Wallingford CT, 2016.
 
 ******************************************
 Gaussian 16:  ES64L-G16RevB.01 20-Dec-2017
                 6-Jul-2025 
 ******************************************
 %chk=DBU_userjob.chk
 %nprocshared=64
 Will use up to   64 processors via shared memory.
 %mem=400GB
 --------------
 # OPT FREQ PM6
 --------------
 1/18=20,19=15,26=1,38=1/1,3;
 2/9=110,12=2,17=6,18=5,40=1/2;
 3/5=2,25=1,41=3900000,71=1/1,2,3;
 4/35=1/1;
 5/5=2,35=1,38=5/2;
 6/7=2,8=2,9=2,10=2,28=1/1;
 7//1,2,3,16;
 1/18=20,19=15,26=1/3(2);
 2/9=110/2;
 99//99;
 2/9=110/2;
 3/5=2,25=1,41=3900000,71=1,135=20/1,2,3;
 4/5=5,16=3,35=1/1;
 5/5=2,35=1,38=5/2;
 7//1,2,3,16;
 1/18=20,19=15,26=1/3(-5);
 2/9=110/2;
 6/7=2,8=2,9=2,10=2,19=2,28=1/1;
 99/9=1/99;
 ----------------------------------
 Gaussian job with default settings
 ----------------------------------
 Symbolic Z-matrix:
 Charge =  0 Multiplicity = 1
 N                    -0.31768   0.59604  -0.40598 
 N                    -1.47514  -1.44697  -0.14168 
 C                     0.90009   1.29981  -0.78308 
 C                     1.98083   1.30757   0.29901 
 C                    -0.39903  -0.77267  -0.35338 
 C                     2.76975   0.00296   0.37359 
 C                    -1.44643   1.43212  -0.01038 
 C                     0.89629  -1.53915  -0.50683 
 C                     1.92593  -1.25091   0.5969 
 C                    -2.47223   0.62012   0.75918 
 C                    -2.70506  -0.69518   0.0256 
 H                     0.60265   2.33104  -1.01842 
 H                     1.30894   0.87917  -1.71595 
 H                     1.50104   1.52544   1.26844 
 H                     2.67826   2.13503   0.09457 
 H                     3.52314   0.07799   1.17323 
 H                     3.32949  -0.11942  -0.5704 
 H                    -1.91021   1.8861   -0.90467 
 H                    -1.06564   2.25923   0.61029 
 H                     0.60827  -2.59664  -0.48651 
 H                     1.34595  -1.34066  -1.49395 
 H                     1.40511  -1.19158   1.56768 
 H                     2.60467  -2.11463   0.66376 
 H                    -3.402     1.19601   0.86601 
 H                    -2.09302   0.40236   1.77052 
 H                    -3.43254  -1.31736   0.56853 
 H                    -3.15517  -0.48364  -0.96313 
 

 GradGradGradGradGradGradGradGradGradGradGradGradGradGradGradGradGradGrad
 Berny optimization.
 Initialization pass.
                           ----------------------------
                           !    Initial Parameters    !
                           ! (Angstroms and Degrees)  !
 --------------------------                            --------------------------
 ! Name  Definition              Value          Derivative Info.                !
 --------------------------------------------------------------------------------
 ! R1    R(1,3)                  1.4562         estimate D2E/DX2                !
 ! R2    R(1,5)                  1.3721         estimate D2E/DX2                !
 ! R3    R(1,7)                  1.4593         estimate D2E/DX2                !
 ! R4    R(2,5)                  1.2875         estimate D2E/DX2                !
 ! R5    R(2,11)                 1.4512         estimate D2E/DX2                !
 ! R6    R(3,4)                  1.5294         estimate D2E/DX2                !
 ! R7    R(3,12)                 1.0988         estimate D2E/DX2                !
 ! R8    R(3,13)                 1.102          estimate D2E/DX2                !
 ! R9    R(4,6)                  1.5264         estimate D2E/DX2                !
 ! R10   R(4,14)                 1.1034         estimate D2E/DX2                !
 ! R11   R(4,15)                 1.1013         estimate D2E/DX2                !
 ! R12   R(5,8)                  1.5129         estimate D2E/DX2                !
 ! R13   R(6,9)                  1.5278         estimate D2E/DX2                !
 ! R14   R(6,16)                 1.1012         estimate D2E/DX2                !
 ! R15   R(6,17)                 1.1043         estimate D2E/DX2                !
 ! R16   R(7,10)                 1.5178         estimate D2E/DX2                !
 ! R17   R(7,18)                 1.105          estimate D2E/DX2                !
 ! R18   R(7,19)                 1.102          estimate D2E/DX2                !
 ! R19   R(8,9)                  1.5367         estimate D2E/DX2                !
 ! R20   R(8,20)                 1.0962         estimate D2E/DX2                !
 ! R21   R(8,21)                 1.1027         estimate D2E/DX2                !
 ! R22   R(9,22)                 1.1033         estimate D2E/DX2                !
 ! R23   R(9,23)                 1.1005         estimate D2E/DX2                !
 ! R24   R(10,11)                1.5239         estimate D2E/DX2                !
 ! R25   R(10,24)                1.0989         estimate D2E/DX2                !
 ! R26   R(10,25)                1.1018         estimate D2E/DX2                !
 ! R27   R(11,26)                1.1005         estimate D2E/DX2                !
 ! R28   R(11,27)                1.1068         estimate D2E/DX2                !
 ! A1    A(3,1,5)              122.793          estimate D2E/DX2                !
 ! A2    A(3,1,7)              116.1133         estimate D2E/DX2                !
 ! A3    A(5,1,7)              121.0137         estimate D2E/DX2                !
 ! A4    A(5,2,11)             117.1316         estimate D2E/DX2                !
 ! A5    A(1,3,4)              114.2166         estimate D2E/DX2                !
 ! A6    A(1,3,12)             106.4207         estimate D2E/DX2                !
 ! A7    A(1,3,13)             110.1824         estimate D2E/DX2                !
 ! A8    A(4,3,12)             109.7595         estimate D2E/DX2                !
 ! A9    A(4,3,13)             109.7985         estimate D2E/DX2                !
 ! A10   A(12,3,13)            106.1034         estimate D2E/DX2                !
 ! A11   A(3,4,6)              113.2951         estimate D2E/DX2                !
 ! A12   A(3,4,14)             108.3826         estimate D2E/DX2                !
 ! A13   A(3,4,15)             108.6617         estimate D2E/DX2                !
 ! A14   A(6,4,14)             110.5224         estimate D2E/DX2                !
 ! A15   A(6,4,15)             108.9002         estimate D2E/DX2                !
 ! A16   A(14,4,15)            106.8645         estimate D2E/DX2                !
 ! A17   A(1,5,2)              125.3312         estimate D2E/DX2                !
 ! A18   A(1,5,8)              116.7895         estimate D2E/DX2                !
 ! A19   A(2,5,8)              117.8378         estimate D2E/DX2                !
 ! A20   A(4,6,9)              115.0326         estimate D2E/DX2                !
 ! A21   A(4,6,16)             109.3205         estimate D2E/DX2                !
 ! A22   A(4,6,17)             108.3571         estimate D2E/DX2                !
 ! A23   A(9,6,16)             109.1259         estimate D2E/DX2                !
 ! A24   A(9,6,17)             108.2978         estimate D2E/DX2                !
 ! A25   A(16,6,17)            106.3507         estimate D2E/DX2                !
 ! A26   A(1,7,10)             110.7132         estimate D2E/DX2                !
 ! A27   A(1,7,18)             109.9154         estimate D2E/DX2                !
 ! A28   A(1,7,19)             108.3864         estimate D2E/DX2                !
 ! A29   A(10,7,18)            110.2719         estimate D2E/DX2                !
 ! A30   A(10,7,19)            110.4575         estimate D2E/DX2                !
 ! A31   A(18,7,19)            107.0079         estimate D2E/DX2                !
 ! A32   A(5,8,9)              113.9406         estimate D2E/DX2                !
 ! A33   A(5,8,20)             105.1826         estimate D2E/DX2                !
 ! A34   A(5,8,21)             110.4093         estimate D2E/DX2                !
 ! A35   A(9,8,20)             110.1016         estimate D2E/DX2                !
 ! A36   A(9,8,21)             109.6316         estimate D2E/DX2                !
 ! A37   A(20,8,21)            107.2997         estimate D2E/DX2                !
 ! A38   A(6,9,8)              114.7735         estimate D2E/DX2                !
 ! A39   A(6,9,22)             110.1948         estimate D2E/DX2                !
 ! A40   A(6,9,23)             108.2017         estimate D2E/DX2                !
 ! A41   A(8,9,22)             109.013          estimate D2E/DX2                !
 ! A42   A(8,9,23)             108.0388         estimate D2E/DX2                !
 ! A43   A(22,9,23)            106.2533         estimate D2E/DX2                !
 ! A44   A(7,10,11)            108.7189         estimate D2E/DX2                !
 ! A45   A(7,10,24)            109.9225         estimate D2E/DX2                !
 ! A46   A(7,10,25)            109.7855         estimate D2E/DX2                !
 ! A47   A(11,10,24)           111.7071         estimate D2E/DX2                !
 ! A48   A(11,10,25)           108.8954         estimate D2E/DX2                !
 ! A49   A(24,10,25)           107.7908         estimate D2E/DX2                !
 ! A50   A(2,11,10)            111.9095         estimate D2E/DX2                !
 ! A51   A(2,11,26)            108.9193         estimate D2E/DX2                !
 ! A52   A(2,11,27)            109.9212         estimate D2E/DX2                !
 ! A53   A(10,11,26)           110.5773         estimate D2E/DX2                !
 ! A54   A(10,11,27)           109.0988         estimate D2E/DX2                !
 ! A55   A(26,11,27)           106.2574         estimate D2E/DX2                !
 ! D1    D(5,1,3,4)            -74.6982         estimate D2E/DX2                !
 ! D2    D(5,1,3,12)           164.0362         estimate D2E/DX2                !
 ! D3    D(5,1,3,13)            49.4279         estimate D2E/DX2                !
 ! D4    D(7,1,3,4)            102.0767         estimate D2E/DX2                !
 ! D5    D(7,1,3,12)           -19.1889         estimate D2E/DX2                !
 ! D6    D(7,1,3,13)          -133.7972         estimate D2E/DX2                !
 ! D7    D(3,1,5,2)           -173.5773         estimate D2E/DX2                !
 ! D8    D(3,1,5,8)              8.8263         estimate D2E/DX2                !
 ! D9    D(7,1,5,2)              9.8019         estimate D2E/DX2                !
 ! D10   D(7,1,5,8)           -167.7946         estimate D2E/DX2                !
 ! D11   D(3,1,7,10)          -162.1278         estimate D2E/DX2                !
 ! D12   D(3,1,7,18)            75.8007         estimate D2E/DX2                !
 ! D13   D(3,1,7,19)           -40.832          estimate D2E/DX2                !
 ! D14   D(5,1,7,10)            14.7089         estimate D2E/DX2                !
 ! D15   D(5,1,7,18)          -107.3626         estimate D2E/DX2                !
 ! D16   D(5,1,7,19)           136.0047         estimate D2E/DX2                !
 ! D17   D(11,2,5,1)             1.4149         estimate D2E/DX2                !
 ! D18   D(11,2,5,8)           178.9885         estimate D2E/DX2                !
 ! D19   D(5,2,11,10)          -35.6723         estimate D2E/DX2                !
 ! D20   D(5,2,11,26)         -158.2416         estimate D2E/DX2                !
 ! D21   D(5,2,11,27)           85.7187         estimate D2E/DX2                !
 ! D22   D(1,3,4,6)             79.2865         estimate D2E/DX2                !
 ! D23   D(1,3,4,14)           -43.7584         estimate D2E/DX2                !
 ! D24   D(1,3,4,15)          -159.5381         estimate D2E/DX2                !
 ! D25   D(12,3,4,6)          -161.3122         estimate D2E/DX2                !
 ! D26   D(12,3,4,14)           75.6429         estimate D2E/DX2                !
 ! D27   D(12,3,4,15)          -40.1368         estimate D2E/DX2                !
 ! D28   D(13,3,4,6)           -45.0448         estimate D2E/DX2                !
 ! D29   D(13,3,4,14)         -168.0898         estimate D2E/DX2                !
 ! D30   D(13,3,4,15)           76.1306         estimate D2E/DX2                !
 ! D31   D(3,4,6,9)            -56.5777         estimate D2E/DX2                !
 ! D32   D(3,4,6,16)          -179.7338         estimate D2E/DX2                !
 ! D33   D(3,4,6,17)            64.7576         estimate D2E/DX2                !
 ! D34   D(14,4,6,9)            65.2786         estimate D2E/DX2                !
 ! D35   D(14,4,6,16)          -57.8775         estimate D2E/DX2                !
 ! D36   D(14,4,6,17)         -173.3861         estimate D2E/DX2                !
 ! D37   D(15,4,6,9)          -177.6187         estimate D2E/DX2                !
 ! D38   D(15,4,6,16)           59.2252         estimate D2E/DX2                !
 ! D39   D(15,4,6,17)          -56.2834         estimate D2E/DX2                !
 ! D40   D(1,5,8,9)             62.0665         estimate D2E/DX2                !
 ! D41   D(1,5,8,20)          -177.2617         estimate D2E/DX2                !
 ! D42   D(1,5,8,21)           -61.811          estimate D2E/DX2                !
 ! D43   D(2,5,8,9)           -115.7161         estimate D2E/DX2                !
 ! D44   D(2,5,8,20)             4.9557         estimate D2E/DX2                !
 ! D45   D(2,5,8,21)           120.4064         estimate D2E/DX2                !
 ! D46   D(4,6,9,8)             61.0365         estimate D2E/DX2                !
 ! D47   D(4,6,9,22)           -62.4718         estimate D2E/DX2                !
 ! D48   D(4,6,9,23)          -178.249          estimate D2E/DX2                !
 ! D49   D(16,6,9,8)          -175.7037         estimate D2E/DX2                !
 ! D50   D(16,6,9,22)           60.7879         estimate D2E/DX2                !
 ! D51   D(16,6,9,23)          -54.9893         estimate D2E/DX2                !
 ! D52   D(17,6,9,8)           -60.331          estimate D2E/DX2                !
 ! D53   D(17,6,9,22)          176.1606         estimate D2E/DX2                !
 ! D54   D(17,6,9,23)           60.3834         estimate D2E/DX2                !
 ! D55   D(1,7,10,11)          -45.555          estimate D2E/DX2                !
 ! D56   D(1,7,10,24)         -168.1154         estimate D2E/DX2                !
 ! D57   D(1,7,10,25)           73.4756         estimate D2E/DX2                !
 ! D58   D(18,7,10,11)          76.3075         estimate D2E/DX2                !
 ! D59   D(18,7,10,24)         -46.2529         estimate D2E/DX2                !
 ! D60   D(18,7,10,25)        -164.662          estimate D2E/DX2                !
 ! D61   D(19,7,10,11)        -165.6198         estimate D2E/DX2                !
 ! D62   D(19,7,10,24)          71.8198         estimate D2E/DX2                !
 ! D63   D(19,7,10,25)         -46.5893         estimate D2E/DX2                !
 ! D64   D(5,8,9,6)            -83.2092         estimate D2E/DX2                !
 ! D65   D(5,8,9,22)            40.9274         estimate D2E/DX2                !
 ! D66   D(5,8,9,23)           155.9868         estimate D2E/DX2                !
 ! D67   D(20,8,9,6)           158.9105         estimate D2E/DX2                !
 ! D68   D(20,8,9,22)          -76.9529         estimate D2E/DX2                !
 ! D69   D(20,8,9,23)           38.1065         estimate D2E/DX2                !
 ! D70   D(21,8,9,6)            41.087          estimate D2E/DX2                !
 ! D71   D(21,8,9,22)          165.2236         estimate D2E/DX2                !
 ! D72   D(21,8,9,23)          -79.717          estimate D2E/DX2                !
 ! D73   D(7,10,11,2)           57.3673         estimate D2E/DX2                !
 ! D74   D(7,10,11,26)         178.9874         estimate D2E/DX2                !
 ! D75   D(7,10,11,27)         -64.4968         estimate D2E/DX2                !
 ! D76   D(24,10,11,2)         178.8426         estimate D2E/DX2                !
 ! D77   D(24,10,11,26)        -59.5373         estimate D2E/DX2                !
 ! D78   D(24,10,11,27)         56.9785         estimate D2E/DX2                !
 ! D79   D(25,10,11,2)         -62.2198         estimate D2E/DX2                !
 ! D80   D(25,10,11,26)         59.4003         estimate D2E/DX2                !
 ! D81   D(25,10,11,27)        175.9161         estimate D2E/DX2                !
 --------------------------------------------------------------------------------
 Trust Radius=3.00D-01 FncErr=1.00D-07 GrdErr=1.00D-07 EigMax=2.50D+02 EigMin=1.00D-04
 Number of steps in this run=    162 maximum allowed number of steps=    162.
 GradGradGradGradGradGradGradGradGradGradGradGradGradGradGradGradGradGrad

                          Input orientation:                          
 ---------------------------------------------------------------------
 Center     Atomic      Atomic             Coordinates (Angstroms)
 Number     Number       Type             X           Y           Z
 ---------------------------------------------------------------------
      1          7           0       -0.317676    0.596039   -0.405980
      2          7           0       -1.475142   -1.446971   -0.141677
      3          6           0        0.900085    1.299814   -0.783076
      4          6           0        1.980826    1.307572    0.299006
      5          6           0       -0.399026   -0.772669   -0.353384
      6          6           0        2.769746    0.002964    0.373587
      7          6           0       -1.446430    1.432115   -0.010376
      8          6           0        0.896294   -1.539147   -0.506830
      9          6           0        1.925927   -1.250906    0.596895
     10          6           0       -2.472234    0.620117    0.759178
     11          6           0       -2.705058   -0.695179    0.025600
     12          1           0        0.602653    2.331044   -1.018416
     13          1           0        1.308939    0.879166   -1.715952
     14          1           0        1.501036    1.525439    1.268437
     15          1           0        2.678259    2.135027    0.094569
     16          1           0        3.523143    0.077987    1.173234
     17          1           0        3.329487   -0.119421   -0.570401
     18          1           0       -1.910206    1.886096   -0.904667
     19          1           0       -1.065637    2.259225    0.610285
     20          1           0        0.608268   -2.596641   -0.486513
     21          1           0        1.345949   -1.340662   -1.493952
     22          1           0        1.405107   -1.191577    1.567682
     23          1           0        2.604666   -2.114629    0.663761
     24          1           0       -3.401995    1.196013    0.866008
     25          1           0       -2.093023    0.402355    1.770518
     26          1           0       -3.432535   -1.317359    0.568527
     27          1           0       -3.155166   -0.483635   -0.963127
 ---------------------------------------------------------------------
                    Distance matrix (angstroms):
                    1          2          3          4          5
     1  N    0.000000
     2  N    2.362937   0.000000
     3  C    1.456174   3.687536   0.000000
     4  C    2.507269   4.441331   1.529367   0.000000
     5  C    1.372132   1.287450   2.483447   3.227493   0.000000
     6  C    3.239080   4.515184   2.552513   1.526420   3.342336
     7  C    1.459319   2.882221   2.474005   3.443445   2.464910
     8  C    2.458234   2.401154   2.852372   3.151094   1.512907
     9  C    3.074202   3.485857   3.076174   2.576347   2.556785
    10  C    2.449550   2.465479   3.770023   4.529249   2.734198
    11  C    2.748290   1.451160   4.198930   5.103261   2.338251
    12  H    2.057262   4.399921   1.098766   2.163898   3.328463
    13  H    2.107620   3.954790   1.101982   2.166799   2.739032
    14  H    2.641055   4.436359   2.149594   1.103386   3.394383
    15  H    3.405093   5.489741   2.151684   1.101312   4.257351
    16  H    4.184995   5.388631   3.492913   2.157521   4.293901
    17  H    3.720311   5.003064   2.821605   2.147339   3.791522
    18  H    2.109286   3.446849   2.873368   4.113836   3.107509
    19  H    2.087685   3.803818   2.593451   3.206786   3.250448
    20  H    3.325216   2.404423   3.918605   4.212343   2.087879
    21  H    2.775273   3.130256   2.770605   3.260508   2.160659
    22  H    3.171576   3.359013   3.462389   2.861247   2.668497
    23  H    4.127002   4.211809   4.081342   3.497668   3.443488
    24  H    3.389830   3.422507   4.608486   5.413751   3.792156
    25  H    2.815407   2.730984   4.035464   4.425044   2.959944
    26  H    3.783266   2.086283   5.239086   6.022241   3.216953
    27  H    3.086658   2.103634   4.433753   5.583889   2.837540
                    6          7          8          9         10
     6  C    0.000000
     7  C    4.468338   0.000000
     8  C    2.581291   3.816179   0.000000
     9  C    1.527772   4.352031   1.536696   0.000000
    10  C    5.292250   1.517837   4.196687   4.782351   0.000000
    11  C    5.530097   2.472007   3.737044   4.699067   1.523925
    12  H    3.471876   2.454172   3.914885   4.146161   3.942340
    13  H    2.695897   3.287370   2.735048   3.204238   4.526659
    14  H    2.174468   3.214285   3.592906   2.887835   4.106803
    15  H    2.152188   4.185470   4.127546   3.504694   5.409643
    16  H    1.101213   5.285002   3.512559   2.156206   6.034061
    17  H    1.104265   5.052749   2.817817   2.147747   5.997888
    18  H    5.204044   1.104963   4.446010   5.177971   2.164938
    19  H    4.456108   1.101968   4.418682   4.612012   2.165031
    20  H    3.488510   4.547457   1.096205   2.172786   4.624800
    21  H    2.705592   4.205552   1.102722   2.171652   4.847656
    22  H    2.171412   4.183932   2.164092   1.103268   4.355420
    23  H    2.143747   5.426346   2.149418   1.100534   5.767396
    24  H    6.305254   2.155928   5.276464   5.869122   1.098874
    25  H    5.075180   2.156402   4.229865   4.501402   1.101830
    26  H    6.344253   3.440836   4.465909   5.358949   2.170792
    27  H    6.093289   2.738177   4.211489   5.370277   2.156618
                   11         12         13         14         15
    11  C    0.000000
    12  H    4.603145   0.000000
    13  H    4.650133   1.758791   0.000000
    14  H    4.915996   2.585689   3.059599   0.000000
    15  H    6.082345   2.363324   2.594265   1.770711   0.000000
    16  H    6.380073   4.290554   3.727195   2.488594   2.471591
    17  H    6.091178   3.693389   2.528256   3.070850   2.439020
    18  H    2.856601   2.554482   3.469148   4.060668   4.702600
    19  H    3.429003   2.332599   3.599243   2.749439   3.781289
    20  H    3.854341   4.956312   3.752825   4.568197   5.197230
    21  H    4.374511   3.776248   2.231208   3.983639   4.047081
    22  H    4.417905   4.443050   3.883230   2.735128   3.854513
    23  H    5.533106   5.157692   4.037914   3.851458   4.288236
    24  H    2.183716   4.569087   5.381432   4.930536   6.200512
    25  H    2.150327   4.331820   4.894504   3.798771   5.345661
    26  H    1.100500   5.666743   5.703082   5.736854   7.034587
    27  H    1.106765   4.695389   4.727812   5.540440   6.481123
                   16         17         18         19         20
    16  H    0.000000
    17  H    1.765428   0.000000
    18  H    6.091651   5.620339   0.000000
    19  H    5.111909   5.135084   1.774148   0.000000
    20  H    4.290092   3.680854   5.158730   5.252081   0.000000
    21  H    3.723791   2.505753   4.621879   4.816923   1.771042
    22  H    2.500692   3.069879   5.155180   4.350772   2.613211
    23  H    2.431199   2.455479   6.232964   5.710042   2.353948
    24  H    7.021532   7.007602   2.415976   2.579609   5.682935
    25  H    5.657144   5.929230   3.064559   2.418601   4.624407
    26  H    7.119980   6.961117   3.840561   4.289045   4.367810
    27  H    7.034150   6.506736   2.677493   3.790124   4.342279
                   21         22         23         24         25
    21  H    0.000000
    22  H    3.065832   0.000000
    23  H    2.615171   1.762963   0.000000
    24  H    5.877678   5.413055   6.861576   0.000000
    25  H    5.051871   3.849503   5.443198   1.778044   0.000000
    26  H    5.204639   4.941347   6.090362   2.531100   2.489275
    27  H    4.612625   5.263294   6.203432   2.495571   3.063648
                   26         27
    26  H    0.000000
    27  H    1.765784   0.000000
 Stoichiometry    C9H16N2
 Framework group  C1[X(C9H16N2)]
 Deg. of freedom    75
 Full point group                 C1      NOp   1
 Largest Abelian subgroup         C1      NOp   1
 Largest concise Abelian subgroup C1      NOp   1
                         Standard orientation:                         
 ---------------------------------------------------------------------
 Center     Atomic      Atomic             Coordinates (Angstroms)
 Number     Number       Type             X           Y           Z
 ---------------------------------------------------------------------
      1          7           0       -0.317676    0.596039   -0.405980
      2          7           0       -1.475142   -1.446971   -0.141677
      3          6           0        0.900085    1.299814   -0.783076
      4          6           0        1.980826    1.307572    0.299006
      5          6           0       -0.399026   -0.772669   -0.353384
      6          6           0        2.769746    0.002964    0.373587
      7          6           0       -1.446430    1.432115   -0.010376
      8          6           0        0.896294   -1.539147   -0.506830
      9          6           0        1.925927   -1.250906    0.596895
     10          6           0       -2.472234    0.620117    0.759178
     11          6           0       -2.705058   -0.695179    0.025600
     12          1           0        0.602653    2.331044   -1.018416
     13          1           0        1.308939    0.879166   -1.715952
     14          1           0        1.501036    1.525439    1.268437
     15          1           0        2.678259    2.135027    0.094569
     16          1           0        3.523143    0.077987    1.173234
     17          1           0        3.329487   -0.119421   -0.570401
     18          1           0       -1.910206    1.886096   -0.904667
     19          1           0       -1.065637    2.259225    0.610285
     20          1           0        0.608268   -2.596641   -0.486513
     21          1           0        1.345949   -1.340662   -1.493952
     22          1           0        1.405107   -1.191577    1.567682
     23          1           0        2.604666   -2.114629    0.663761
     24          1           0       -3.401995    1.196013    0.866008
     25          1           0       -2.093023    0.402355    1.770518
     26          1           0       -3.432535   -1.317359    0.568527
     27          1           0       -3.155166   -0.483635   -0.963127
 ---------------------------------------------------------------------
 Rotational constants (GHZ):           2.0054528           0.9028450           0.7052846
 Standard basis: VSTO-6G (5D, 7F)
 There are    60 symmetry adapted cartesian basis functions of A   symmetry.
 There are    60 symmetry adapted basis functions of A   symmetry.
    60 basis functions,   360 primitive gaussians,    60 cartesian basis functions
    31 alpha electrons       31 beta electrons
       nuclear repulsion energy       387.1513525330 Hartrees.
 Integral buffers will be    131072 words long.
 Regular integral format.
 Two-electron integral symmetry is turned off.
 Do NDO integrals.
 One-electron integrals computed using PRISM.
 NBasis=    60 RedAO= F EigKep=  0.00D+00  NBF=    60
 NBsUse=    60 1.00D-04 EigRej=  0.00D+00 NBFU=    60
 Simple Huckel Guess.
 Keep J ints in memory in canonical form, NReq=867819.
 Overlap will be assumed to be unity.
 Requested convergence on RMS density matrix=1.00D-08 within 128 cycles.
 Requested convergence on MAX density matrix=1.00D-06.
 Requested convergence on             energy=1.00D-06.
 No special actions if energy rises.
 SCF Done:  E(RPM6) =  0.504930490689E-02 A.U. after   14 cycles
            NFock= 13  Conv=0.89D-08     -V/T= 1.0001

 **********************************************************************

            Population analysis using the SCF Density.

 **********************************************************************

 Orbital symmetries:
       Occupied  (A) (A) (A) (A) (A) (A) (A) (A) (A) (A) (A) (A)
                 (A) (A) (A) (A) (A) (A) (A) (A) (A) (A) (A) (A)
                 (A) (A) (A) (A) (A) (A) (A)
       Virtual   (A) (A) (A) (A) (A) (A) (A) (A) (A) (A) (A) (A)
                 (A) (A) (A) (A) (A) (A) (A) (A) (A) (A) (A) (A)
                 (A) (A) (A) (A) (A)
 The electronic state is 1-A.
 Alpha  occ. eigenvalues --   -1.21348  -1.11586  -1.06429  -1.01049  -0.96690
 Alpha  occ. eigenvalues --   -0.88544  -0.86731  -0.83622  -0.75267  -0.73304
 Alpha  occ. eigenvalues --   -0.65944  -0.63687  -0.62092  -0.58140  -0.56437
 Alpha  occ. eigenvalues --   -0.55084  -0.54549  -0.52756  -0.51388  -0.50443
 Alpha  occ. eigenvalues --   -0.48842  -0.47918  -0.46448  -0.46084  -0.43532
 Alpha  occ. eigenvalues --   -0.42773  -0.42575  -0.42046  -0.39387  -0.34900
 Alpha  occ. eigenvalues --   -0.30314
 Alpha virt. eigenvalues --    0.06780   0.07297   0.12920   0.13506   0.14207
 Alpha virt. eigenvalues --    0.14906   0.15165   0.16241   0.16341   0.16466
 Alpha virt. eigenvalues --    0.17848   0.19165   0.20070   0.20368   0.20726
 Alpha virt. eigenvalues --    0.21021   0.21294   0.21335   0.21675   0.21780
 Alpha virt. eigenvalues --    0.22057   0.22715   0.23160   0.23224   0.23381
 Alpha virt. eigenvalues --    0.23522   0.24014   0.24457   0.25599
          Condensed to atoms (all electrons):
               1          2          3          4          5          6
     1  N    5.398089   0.000000   0.000000   0.000000   0.000000   0.000000
     2  N    0.000000   5.487278   0.000000   0.000000   0.000000   0.000000
     3  C    0.000000   0.000000   4.069577   0.000000   0.000000   0.000000
     4  C    0.000000   0.000000   0.000000   4.300100   0.000000   0.000000
     5  C    0.000000   0.000000   0.000000   0.000000   3.632642   0.000000
     6  C    0.000000   0.000000   0.000000   0.000000   0.000000   4.251620
     7  C    0.000000   0.000000   0.000000   0.000000   0.000000   0.000000
     8  C    0.000000   0.000000   0.000000   0.000000   0.000000   0.000000
     9  C    0.000000   0.000000   0.000000   0.000000   0.000000   0.000000
    10  C    0.000000   0.000000   0.000000   0.000000   0.000000   0.000000
    11  C    0.000000   0.000000   0.000000   0.000000   0.000000   0.000000
    12  H    0.000000   0.000000   0.000000   0.000000   0.000000   0.000000
    13  H    0.000000   0.000000   0.000000   0.000000   0.000000   0.000000
    14  H    0.000000   0.000000   0.000000   0.000000   0.000000   0.000000
    15  H    0.000000   0.000000   0.000000   0.000000   0.000000   0.000000
    16  H    0.000000   0.000000   0.000000   0.000000   0.000000   0.000000
    17  H    0.000000   0.000000   0.000000   0.000000   0.000000   0.000000
    18  H    0.000000   0.000000   0.000000   0.000000   0.000000   0.000000
    19  H    0.000000   0.000000   0.000000   0.000000   0.000000   0.000000
    20  H    0.000000   0.000000   0.000000   0.000000   0.000000   0.000000
    21  H    0.000000   0.000000   0.000000   0.000000   0.000000   0.000000
    22  H    0.000000   0.000000   0.000000   0.000000   0.000000   0.000000
    23  H    0.000000   0.000000   0.000000   0.000000   0.000000   0.000000
    24  H    0.000000   0.000000   0.000000   0.000000   0.000000   0.000000
    25  H    0.000000   0.000000   0.000000   0.000000   0.000000   0.000000
    26  H    0.000000   0.000000   0.000000   0.000000   0.000000   0.000000
    27  H    0.000000   0.000000   0.000000   0.000000   0.000000   0.000000
               7          8          9         10         11         12
     1  N    0.000000   0.000000   0.000000   0.000000   0.000000   0.000000
     2  N    0.000000   0.000000   0.000000   0.000000   0.000000   0.000000
     3  C    0.000000   0.000000   0.000000   0.000000   0.000000   0.000000
     4  C    0.000000   0.000000   0.000000   0.000000   0.000000   0.000000
     5  C    0.000000   0.000000   0.000000   0.000000   0.000000   0.000000
     6  C    0.000000   0.000000   0.000000   0.000000   0.000000   0.000000
     7  C    4.076904   0.000000   0.000000   0.000000   0.000000   0.000000
     8  C    0.000000   4.311918   0.000000   0.000000   0.000000   0.000000
     9  C    0.000000   0.000000   4.234649   0.000000   0.000000   0.000000
    10  C    0.000000   0.000000   0.000000   4.349737   0.000000   0.000000
    11  C    0.000000   0.000000   0.000000   0.000000   4.095132   0.000000
    12  H    0.000000   0.000000   0.000000   0.000000   0.000000   0.878357
    13  H    0.000000   0.000000   0.000000   0.000000   0.000000   0.000000
    14  H    0.000000   0.000000   0.000000   0.000000   0.000000   0.000000
    15  H    0.000000   0.000000   0.000000   0.000000   0.000000   0.000000
    16  H    0.000000   0.000000   0.000000   0.000000   0.000000   0.000000
    17  H    0.000000   0.000000   0.000000   0.000000   0.000000   0.000000
    18  H    0.000000   0.000000   0.000000   0.000000   0.000000   0.000000
    19  H    0.000000   0.000000   0.000000   0.000000   0.000000   0.000000
    20  H    0.000000   0.000000   0.000000   0.000000   0.000000   0.000000
    21  H    0.000000   0.000000   0.000000   0.000000   0.000000   0.000000
    22  H    0.000000   0.000000   0.000000   0.000000   0.000000   0.000000
    23  H    0.000000   0.000000   0.000000   0.000000   0.000000   0.000000
    24  H    0.000000   0.000000   0.000000   0.000000   0.000000   0.000000
    25  H    0.000000   0.000000   0.000000   0.000000   0.000000   0.000000
    26  H    0.000000   0.000000   0.000000   0.000000   0.000000   0.000000
    27  H    0.000000   0.000000   0.000000   0.000000   0.000000   0.000000
              13         14         15         16         17         18
     1  N    0.000000   0.000000   0.000000   0.000000   0.000000   0.000000
     2  N    0.000000   0.000000   0.000000   0.000000   0.000000   0.000000
     3  C    0.000000   0.000000   0.000000   0.000000   0.000000   0.000000
     4  C    0.000000   0.000000   0.000000   0.000000   0.000000   0.000000
     5  C    0.000000   0.000000   0.000000   0.000000   0.000000   0.000000
     6  C    0.000000   0.000000   0.000000   0.000000   0.000000   0.000000
     7  C    0.000000   0.000000   0.000000   0.000000   0.000000   0.000000
     8  C    0.000000   0.000000   0.000000   0.000000   0.000000   0.000000
     9  C    0.000000   0.000000   0.000000   0.000000   0.000000   0.000000
    10  C    0.000000   0.000000   0.000000   0.000000   0.000000   0.000000
    11  C    0.000000   0.000000   0.000000   0.000000   0.000000   0.000000
    12  H    0.000000   0.000000   0.000000   0.000000   0.000000   0.000000
    13  H    0.867623   0.000000   0.000000   0.000000   0.000000   0.000000
    14  H    0.000000   0.852558   0.000000   0.000000   0.000000   0.000000
    15  H    0.000000   0.000000   0.867367   0.000000   0.000000   0.000000
    16  H    0.000000   0.000000   0.000000   0.870633   0.000000   0.000000
    17  H    0.000000   0.000000   0.000000   0.000000   0.870716   0.000000
    18  H    0.000000   0.000000   0.000000   0.000000   0.000000   0.877339
    19  H    0.000000   0.000000   0.000000   0.000000   0.000000   0.000000
    20  H    0.000000   0.000000   0.000000   0.000000   0.000000   0.000000
    21  H    0.000000   0.000000   0.000000   0.000000   0.000000   0.000000
    22  H    0.000000   0.000000   0.000000   0.000000   0.000000   0.000000
    23  H    0.000000   0.000000   0.000000   0.000000   0.000000   0.000000
    24  H    0.000000   0.000000   0.000000   0.000000   0.000000   0.000000
    25  H    0.000000   0.000000   0.000000   0.000000   0.000000   0.000000
    26  H    0.000000   0.000000   0.000000   0.000000   0.000000   0.000000
    27  H    0.000000   0.000000   0.000000   0.000000   0.000000   0.000000
              19         20         21         22         23         24
     1  N    0.000000   0.000000   0.000000   0.000000   0.000000   0.000000
     2  N    0.000000   0.000000   0.000000   0.000000   0.000000   0.000000
     3  C    0.000000   0.000000   0.000000   0.000000   0.000000   0.000000
     4  C    0.000000   0.000000   0.000000   0.000000   0.000000   0.000000
     5  C    0.000000   0.000000   0.000000   0.000000   0.000000   0.000000
     6  C    0.000000   0.000000   0.000000   0.000000   0.000000   0.000000
     7  C    0.000000   0.000000   0.000000   0.000000   0.000000   0.000000
     8  C    0.000000   0.000000   0.000000   0.000000   0.000000   0.000000
     9  C    0.000000   0.000000   0.000000   0.000000   0.000000   0.000000
    10  C    0.000000   0.000000   0.000000   0.000000   0.000000   0.000000
    11  C    0.000000   0.000000   0.000000   0.000000   0.000000   0.000000
    12  H    0.000000   0.000000   0.000000   0.000000   0.000000   0.000000
    13  H    0.000000   0.000000   0.000000   0.000000   0.000000   0.000000
    14  H    0.000000   0.000000   0.000000   0.000000   0.000000   0.000000
    15  H    0.000000   0.000000   0.000000   0.000000   0.000000   0.000000
    16  H    0.000000   0.000000   0.000000   0.000000   0.000000   0.000000
    17  H    0.000000   0.000000   0.000000   0.000000   0.000000   0.000000
    18  H    0.000000   0.000000   0.000000   0.000000   0.000000   0.000000
    19  H    0.876938   0.000000   0.000000   0.000000   0.000000   0.000000
    20  H    0.000000   0.826427   0.000000   0.000000   0.000000   0.000000
    21  H    0.000000   0.000000   0.847597   0.000000   0.000000   0.000000
    22  H    0.000000   0.000000   0.000000   0.856194   0.000000   0.000000
    23  H    0.000000   0.000000   0.000000   0.000000   0.870881   0.000000
    24  H    0.000000   0.000000   0.000000   0.000000   0.000000   0.855199
    25  H    0.000000   0.000000   0.000000   0.000000   0.000000   0.000000
    26  H    0.000000   0.000000   0.000000   0.000000   0.000000   0.000000
    27  H    0.000000   0.000000   0.000000   0.000000   0.000000   0.000000
              25         26         27
     1  N    0.000000   0.000000   0.000000
     2  N    0.000000   0.000000   0.000000
     3  C    0.000000   0.000000   0.000000
     4  C    0.000000   0.000000   0.000000
     5  C    0.000000   0.000000   0.000000
     6  C    0.000000   0.000000   0.000000
     7  C    0.000000   0.000000   0.000000
     8  C    0.000000   0.000000   0.000000
     9  C    0.000000   0.000000   0.000000
    10  C    0.000000   0.000000   0.000000
    11  C    0.000000   0.000000   0.000000
    12  H    0.000000   0.000000   0.000000
    13  H    0.000000   0.000000   0.000000
    14  H    0.000000   0.000000   0.000000
    15  H    0.000000   0.000000   0.000000
    16  H    0.000000   0.000000   0.000000
    17  H    0.000000   0.000000   0.000000
    18  H    0.000000   0.000000   0.000000
    19  H    0.000000   0.000000   0.000000
    20  H    0.000000   0.000000   0.000000
    21  H    0.000000   0.000000   0.000000
    22  H    0.000000   0.000000   0.000000
    23  H    0.000000   0.000000   0.000000
    24  H    0.000000   0.000000   0.000000
    25  H    0.841687   0.000000   0.000000
    26  H    0.000000   0.859438   0.000000
    27  H    0.000000   0.000000   0.873400
 Mulliken charges:
               1
     1  N   -0.398089
     2  N   -0.487278
     3  C   -0.069577
     4  C   -0.300100
     5  C    0.367358
     6  C   -0.251620
     7  C   -0.076904
     8  C   -0.311918
     9  C   -0.234649
    10  C   -0.349737
    11  C   -0.095132
    12  H    0.121643
    13  H    0.132377
    14  H    0.147442
    15  H    0.132633
    16  H    0.129367
    17  H    0.129284
    18  H    0.122661
    19  H    0.123062
    20  H    0.173573
    21  H    0.152403
    22  H    0.143806
    23  H    0.129119
    24  H    0.144801
    25  H    0.158313
    26  H    0.140562
    27  H    0.126600
 Sum of Mulliken charges =   0.00000
 Mulliken charges with hydrogens summed into heavy atoms:
               1
     1  N   -0.398089
     2  N   -0.487278
     3  C    0.184442
     4  C   -0.020025
     5  C    0.367358
     6  C    0.007031
     7  C    0.168819
     8  C    0.014058
     9  C    0.038276
    10  C   -0.046623
    11  C    0.172030
 Charge=              0.0000 electrons
 Dipole moment (field-independent basis, Debye):
    X=              1.6461    Y=              3.5371    Z=             -0.0298  Tot=              3.9015
 N-N= 3.871513525330D+02 E-N=-6.368288051817D+02  KE=-9.786564532837D+01
 Calling FoFJK, ICntrl=      2127 FMM=F ISym2X=0 I1Cent= 0 IOpClX= 0 NMat=1 NMatS=1 NMatT=0.
 ***** Axes restored to original set *****
 -------------------------------------------------------------------
 Center     Atomic                   Forces (Hartrees/Bohr)
 Number     Number              X              Y              Z
 -------------------------------------------------------------------
      1        7           0.007475783    0.014406635   -0.009815810
      2        7          -0.017774572   -0.025860530    0.001687071
      3        6           0.009543554    0.008384371   -0.004874227
      4        6          -0.001306810    0.000096698    0.005343614
      5        6           0.031624159   -0.016643395    0.003153277
      6        6          -0.000071359   -0.000586704   -0.005691826
      7        6          -0.007742965    0.014664656    0.003640772
      8        6           0.004687823    0.002991847   -0.001174219
      9        6          -0.006556393   -0.000739815    0.000787122
     10        6          -0.006307540    0.004841210    0.008626618
     11        6          -0.018906094   -0.000297384   -0.002136299
     12        1           0.003010361    0.011295073   -0.004165978
     13        1           0.002315938   -0.003455700   -0.006354146
     14        1           0.000908418    0.000259284    0.004003964
     15        1           0.002282454    0.003262496    0.000928152
     16        1           0.002531984    0.000287942    0.002582286
     17        1           0.003702407   -0.000317922   -0.002239953
     18        1          -0.002485686    0.002410600   -0.005348988
     19        1          -0.000511061    0.007600882    0.005101693
     20        1           0.003412143   -0.012106328   -0.000913060
     21        1          -0.000121616   -0.001010008   -0.003444212
     22        1          -0.001190475    0.000391076    0.002869761
     23        1           0.002291918   -0.004257342    0.001438350
     24        1          -0.003139709    0.000519883    0.002146656
     25        1          -0.000910617    0.000522432    0.005742697
     26        1          -0.003000753   -0.005617018    0.003460478
     27        1          -0.003761290   -0.001042940   -0.005353791
 -------------------------------------------------------------------
 Cartesian Forces:  Max     0.031624159 RMS     0.007454702

 GradGradGradGradGradGradGradGradGradGradGradGradGradGradGradGradGradGrad
 Berny optimization.
 FormGI is forming the generalized inverse of G from B-inverse, IUseBI=4.
 Internal  Forces:  Max     0.039513227 RMS     0.006873177
 Search for a local minimum.
 Step number   1 out of a maximum of  162
 All quantities printed in internal units (Hartrees-Bohrs-Radians)
 Mixed Optimization -- RFO/linear search
 Second derivative matrix not updated -- first step.
 ITU=  0
     Eigenvalues ---    0.00606   0.00637   0.00778   0.00910   0.00996
     Eigenvalues ---    0.01284   0.01395   0.01737   0.02594   0.03013
     Eigenvalues ---    0.03650   0.03731   0.03834   0.04505   0.04691
     Eigenvalues ---    0.04786   0.04828   0.05007   0.05323   0.05375
     Eigenvalues ---    0.05870   0.05917   0.06367   0.06422   0.07189
     Eigenvalues ---    0.07720   0.07926   0.08417   0.08449   0.08689
     Eigenvalues ---    0.08751   0.09261   0.09547   0.09730   0.10037
     Eigenvalues ---    0.11315   0.11521   0.12479   0.12659   0.12698
     Eigenvalues ---    0.14126   0.16668   0.19820   0.20638   0.22242
     Eigenvalues ---    0.23353   0.24880   0.27614   0.28842   0.29021
     Eigenvalues ---    0.29154   0.29287   0.29799   0.30566   0.32945
     Eigenvalues ---    0.33139   0.33215   0.33310   0.33323   0.33383
     Eigenvalues ---    0.33464   0.33465   0.33481   0.33537   0.33548
     Eigenvalues ---    0.33623   0.33627   0.33807   0.33819   0.34105
     Eigenvalues ---    0.35376   0.36358   0.37612   0.46870   0.67899
 RFO step:  Lambda=-2.01550968D-02 EMin= 6.05871406D-03
 Linear search not attempted -- first point.
 Iteration  1 RMS(Cart)=  0.04951360 RMS(Int)=  0.00054836
 Iteration  2 RMS(Cart)=  0.00060739 RMS(Int)=  0.00014285
 Iteration  3 RMS(Cart)=  0.00000042 RMS(Int)=  0.00014285
 Variable       Old X    -DE/DX   Delta X   Delta X   Delta X     New X
                                 (Linear)    (Quad)   (Total)
    R1        2.75177   0.02378   0.00000   0.06466   0.06467   2.81644
    R2        2.59295   0.03951   0.00000   0.08431   0.08448   2.67743
    R3        2.75771   0.03289   0.00000   0.08468   0.08475   2.84247
    R4        2.43293   0.03912   0.00000   0.05710   0.05720   2.49013
    R5        2.74230   0.02123   0.00000   0.05328   0.05325   2.79555
    R6        2.89008   0.00867   0.00000   0.03013   0.03038   2.92046
    R7        2.07637   0.01068   0.00000   0.02980   0.02980   2.10616
    R8        2.08244   0.00756   0.00000   0.02130   0.02130   2.10374
    R9        2.88452   0.00801   0.00000   0.01992   0.01994   2.90445
   R10        2.08510   0.00317   0.00000   0.00899   0.00899   2.09408
   R11        2.08118   0.00372   0.00000   0.01048   0.01048   2.09165
   R12        2.85898   0.00936   0.00000   0.03018   0.03016   2.88914
   R13        2.88707   0.00851   0.00000   0.01933   0.01930   2.90637
   R14        2.08099   0.00363   0.00000   0.01020   0.01020   2.09119
   R15        2.08676   0.00383   0.00000   0.01086   0.01086   2.09762
   R16        2.86830   0.02240   0.00000   0.06246   0.06242   2.93072
   R17        2.08808   0.00636   0.00000   0.01810   0.01810   2.10618
   R18        2.08242   0.00840   0.00000   0.02368   0.02368   2.10610
   R19        2.90394   0.00084   0.00000  -0.00132  -0.00157   2.90237
   R20        2.07153   0.01077   0.00000   0.02980   0.02980   2.10133
   R21        2.08384   0.00285   0.00000   0.00806   0.00806   2.09190
   R22        2.08487   0.00311   0.00000   0.00880   0.00880   2.09367
   R23        2.07971   0.00484   0.00000   0.01359   0.01359   2.09329
   R24        2.87980   0.02004   0.00000   0.05491   0.05470   2.93450
   R25        2.07657   0.00314   0.00000   0.00876   0.00876   2.08533
   R26        2.08216   0.00485   0.00000   0.01368   0.01368   2.09583
   R27        2.07964   0.00687   0.00000   0.01926   0.01926   2.09891
   R28        2.09148   0.00611   0.00000   0.01749   0.01749   2.10897
    A1        2.14314  -0.00382   0.00000  -0.00276  -0.00289   2.14025
    A2        2.02656   0.00962   0.00000   0.02075   0.02057   2.04713
    A3        2.11209  -0.00586   0.00000  -0.01899  -0.01886   2.09323
    A4        2.04433   0.00425   0.00000   0.03270   0.03265   2.07698
    A5        1.99345  -0.00781   0.00000  -0.02048  -0.02051   1.97295
    A6        1.85739   0.00683   0.00000   0.05134   0.05146   1.90885
    A7        1.92305   0.00145   0.00000  -0.00818  -0.00862   1.91442
    A8        1.91567   0.00020   0.00000  -0.00543  -0.00551   1.91016
    A9        1.91635   0.00152   0.00000  -0.00623  -0.00643   1.90991
   A10        1.85185  -0.00167   0.00000  -0.00877  -0.00882   1.84303
   A11        1.97737   0.00113   0.00000   0.00317   0.00357   1.98094
   A12        1.89163   0.00168   0.00000   0.01971   0.01966   1.91129
   A13        1.89651  -0.00031   0.00000   0.00003  -0.00014   1.89636
   A14        1.92898  -0.00140   0.00000  -0.00733  -0.00765   1.92133
   A15        1.90067  -0.00067   0.00000  -0.00635  -0.00643   1.89424
   A16        1.86514  -0.00052   0.00000  -0.00992  -0.00994   1.85520
   A17        2.18744  -0.00640   0.00000  -0.01289  -0.01283   2.17462
   A18        2.03836   0.00262   0.00000   0.01599   0.01583   2.05420
   A19        2.05666   0.00378   0.00000  -0.00233  -0.00244   2.05421
   A20        2.00770   0.00615   0.00000   0.00762   0.00736   2.01505
   A21        1.90800  -0.00287   0.00000  -0.01420  -0.01412   1.89388
   A22        1.89119  -0.00058   0.00000   0.01380   0.01354   1.90473
   A23        1.90461  -0.00241   0.00000  -0.01302  -0.01306   1.89154
   A24        1.89015  -0.00097   0.00000   0.01345   0.01330   1.90345
   A25        1.85617   0.00032   0.00000  -0.00838  -0.00826   1.84791
   A26        1.93231   0.00424   0.00000   0.01471   0.01470   1.94701
   A27        1.91839  -0.00161   0.00000  -0.01192  -0.01195   1.90643
   A28        1.89170   0.00094   0.00000   0.02477   0.02492   1.91662
   A29        1.92461  -0.00173   0.00000  -0.00715  -0.00705   1.91756
   A30        1.92785  -0.00222   0.00000  -0.01401  -0.01445   1.91340
   A31        1.86764   0.00026   0.00000  -0.00674  -0.00681   1.86083
   A32        1.98864  -0.00583   0.00000  -0.02192  -0.02190   1.96674
   A33        1.83578   0.00616   0.00000   0.04499   0.04491   1.88069
   A34        1.92701   0.00078   0.00000   0.00091   0.00095   1.92796
   A35        1.92163  -0.00222   0.00000  -0.02063  -0.02027   1.90137
   A36        1.91343   0.00335   0.00000   0.01430   0.01422   1.92766
   A37        1.87273  -0.00211   0.00000  -0.01739  -0.01752   1.85522
   A38        2.00318   0.00388   0.00000   0.00260   0.00228   2.00546
   A39        1.92326  -0.00119   0.00000  -0.00032  -0.00022   1.92305
   A40        1.88848  -0.00096   0.00000   0.00135   0.00142   1.88990
   A41        1.90264  -0.00045   0.00000   0.00405   0.00410   1.90673
   A42        1.88563  -0.00175   0.00000  -0.00307  -0.00293   1.88270
   A43        1.85447   0.00021   0.00000  -0.00537  -0.00541   1.84906
   A44        1.89750   0.00517   0.00000   0.01499   0.01479   1.91230
   A45        1.91851   0.00006   0.00000   0.01341   0.01344   1.93194
   A46        1.91612  -0.00169   0.00000  -0.00366  -0.00364   1.91248
   A47        1.94966  -0.00316   0.00000  -0.00847  -0.00851   1.94115
   A48        1.90058   0.00009   0.00000   0.00297   0.00285   1.90343
   A49        1.88130  -0.00057   0.00000  -0.01963  -0.01966   1.86165
   A50        1.95319   0.00068   0.00000  -0.00713  -0.00753   1.94565
   A51        1.90100  -0.00170   0.00000  -0.01033  -0.01018   1.89082
   A52        1.91849  -0.00097   0.00000  -0.00376  -0.00358   1.91491
   A53        1.92994   0.00160   0.00000   0.01053   0.01055   1.94049
   A54        1.90413   0.00114   0.00000   0.01547   0.01554   1.91967
   A55        1.85454  -0.00084   0.00000  -0.00471  -0.00490   1.84964
    D1       -1.30373   0.00298   0.00000   0.04424   0.04394  -1.25979
    D2        2.86297   0.00275   0.00000   0.02752   0.02752   2.89049
    D3        0.86268   0.00031   0.00000   0.01415   0.01417   0.87685
    D4        1.78157   0.00149   0.00000   0.02346   0.02302   1.80460
    D5       -0.33491   0.00126   0.00000   0.00674   0.00660  -0.32831
    D6       -2.33520  -0.00118   0.00000  -0.00663  -0.00675  -2.34195
    D7       -3.02949  -0.00168   0.00000  -0.01144  -0.01140  -3.04089
    D8        0.15405  -0.00152   0.00000  -0.03361  -0.03366   0.12039
    D9        0.17107  -0.00061   0.00000   0.00906   0.00880   0.17988
   D10       -2.92857  -0.00045   0.00000  -0.01311  -0.01346  -2.94203
   D11       -2.82966  -0.00044   0.00000   0.00668   0.00672  -2.82294
   D12        1.32297   0.00000   0.00000   0.01393   0.01400   1.33697
   D13       -0.71265   0.00005   0.00000   0.01445   0.01471  -0.69795
   D14        0.25672  -0.00184   0.00000  -0.01317  -0.01309   0.24363
   D15       -1.87383  -0.00140   0.00000  -0.00592  -0.00582  -1.87965
   D16        2.37373  -0.00135   0.00000  -0.00540  -0.00511   2.36862
   D17        0.02469   0.00013   0.00000  -0.01387  -0.01382   0.01088
   D18        3.12394  -0.00007   0.00000   0.00890   0.00884   3.13278
   D19       -0.62260   0.00154   0.00000   0.02367   0.02366  -0.59894
   D20       -2.76184   0.00024   0.00000   0.02226   0.02230  -2.73953
   D21        1.49607   0.00276   0.00000   0.03592   0.03584   1.53191
   D22        1.38381  -0.00141   0.00000  -0.00370  -0.00367   1.38014
   D23       -0.76373  -0.00161   0.00000  -0.01083  -0.01085  -0.77458
   D24       -2.78446  -0.00173   0.00000  -0.00967  -0.00960  -2.79407
   D25       -2.81543   0.00229   0.00000   0.04463   0.04456  -2.77086
   D26        1.32022   0.00209   0.00000   0.03750   0.03738   1.35759
   D27       -0.70052   0.00197   0.00000   0.03866   0.03863  -0.66189
   D28       -0.78618   0.00126   0.00000   0.02728   0.02717  -0.75901
   D29       -2.93372   0.00107   0.00000   0.02015   0.01998  -2.91374
   D30        1.32873   0.00094   0.00000   0.02130   0.02123   1.34996
   D31       -0.98747  -0.00206   0.00000  -0.03589  -0.03603  -1.02350
   D32       -3.13695  -0.00108   0.00000  -0.01304  -0.01311   3.13313
   D33        1.13023   0.00039   0.00000  -0.00304  -0.00303   1.12720
   D34        1.13933  -0.00011   0.00000  -0.01347  -0.01360   1.12573
   D35       -1.01015   0.00087   0.00000   0.00938   0.00932  -1.00083
   D36       -3.02616   0.00234   0.00000   0.01938   0.01940  -3.00676
   D37       -3.10003  -0.00194   0.00000  -0.03352  -0.03364  -3.13367
   D38        1.03367  -0.00096   0.00000  -0.01067  -0.01071   1.02296
   D39       -0.98233   0.00051   0.00000  -0.00067  -0.00064  -0.98297
   D40        1.08326   0.00049   0.00000   0.01498   0.01505   1.09831
   D41       -3.09380  -0.00146   0.00000   0.00722   0.00708  -3.08672
   D42       -1.07880  -0.00022   0.00000   0.01168   0.01178  -1.06702
   D43       -2.01963   0.00089   0.00000  -0.00516  -0.00535  -2.02498
   D44        0.08649  -0.00106   0.00000  -0.01292  -0.01331   0.07318
   D45        2.10149   0.00019   0.00000  -0.00846  -0.00861   2.09288
   D46        1.06529   0.00243   0.00000   0.03361   0.03358   1.09886
   D47       -1.09034   0.00108   0.00000   0.02654   0.02657  -1.06377
   D48       -3.11103   0.00203   0.00000   0.03237   0.03236  -3.07868
   D49       -3.06661   0.00120   0.00000   0.01015   0.01010  -3.05651
   D50        1.06095  -0.00015   0.00000   0.00307   0.00309   1.06404
   D51       -0.95974   0.00079   0.00000   0.00890   0.00888  -0.95087
   D52       -1.05297  -0.00022   0.00000   0.00059   0.00047  -1.05251
   D53        3.07458  -0.00157   0.00000  -0.00649  -0.00654   3.06805
   D54        1.05389  -0.00063   0.00000  -0.00066  -0.00075   1.05314
   D55       -0.79508  -0.00051   0.00000   0.01201   0.01225  -0.78284
   D56       -2.93417   0.00002   0.00000   0.00432   0.00430  -2.92986
   D57        1.28239   0.00170   0.00000   0.02246   0.02250   1.30489
   D58        1.33182  -0.00087   0.00000   0.00201   0.00217   1.33399
   D59       -0.80727  -0.00035   0.00000  -0.00569  -0.00577  -0.81304
   D60       -2.87389   0.00134   0.00000   0.01245   0.01242  -2.86147
   D61       -2.89061  -0.00299   0.00000  -0.01939  -0.01908  -2.90970
   D62        1.25349  -0.00247   0.00000  -0.02708  -0.02703   1.22646
   D63       -0.81314  -0.00078   0.00000  -0.00895  -0.00883  -0.82197
   D64       -1.45227   0.00026   0.00000  -0.00498  -0.00490  -1.45717
   D65        0.71432   0.00117   0.00000  -0.00031  -0.00025   0.71407
   D66        2.72248   0.00024   0.00000  -0.00617  -0.00606   2.71642
   D67        2.77351  -0.00225   0.00000  -0.03363  -0.03372   2.73979
   D68       -1.34308  -0.00134   0.00000  -0.02896  -0.02906  -1.37215
   D69        0.66508  -0.00227   0.00000  -0.03482  -0.03488   0.63020
   D70        0.71710  -0.00037   0.00000  -0.00872  -0.00878   0.70833
   D71        2.88370   0.00054   0.00000  -0.00405  -0.00412   2.87957
   D72       -1.39132  -0.00039   0.00000  -0.00991  -0.00994  -1.40127
   D73        1.00125  -0.00057   0.00000  -0.02963  -0.02958   0.97167
   D74        3.12392  -0.00115   0.00000  -0.04034  -0.04041   3.08351
   D75       -1.12568  -0.00058   0.00000  -0.03084  -0.03075  -1.15643
   D76        3.12139   0.00097   0.00000  -0.00816  -0.00816   3.11324
   D77       -1.03912   0.00039   0.00000  -0.01887  -0.01899  -1.05811
   D78        0.99446   0.00097   0.00000  -0.00937  -0.00932   0.98514
   D79       -1.08594  -0.00161   0.00000  -0.03572  -0.03566  -1.12160
   D80        1.03673  -0.00219   0.00000  -0.04643  -0.04649   0.99024
   D81        3.07031  -0.00161   0.00000  -0.03694  -0.03683   3.03349
         Item               Value     Threshold  Converged?
 Maximum Force            0.039513     0.000450     NO 
 RMS     Force            0.006873     0.000300     NO 
 Maximum Displacement     0.180982     0.001800     NO 
 RMS     Displacement     0.049411     0.001200     NO 
 Predicted change in Energy=-1.095981D-02
 GradGradGradGradGradGradGradGradGradGradGradGradGradGradGradGradGradGrad

                          Input orientation:                          
 ---------------------------------------------------------------------
 Center     Atomic      Atomic             Coordinates (Angstroms)
 Number     Number       Type             X           Y           Z
 ---------------------------------------------------------------------
      1          7           0       -0.307312    0.634438   -0.424462
      2          7           0       -1.488297   -1.459195   -0.131364
      3          6           0        0.941918    1.355155   -0.800319
      4          6           0        2.020121    1.314158    0.306110
      5          6           0       -0.381822   -0.778605   -0.352490
      6          6           0        2.794270   -0.012575    0.358570
      7          6           0       -1.489563    1.470135   -0.016523
      8          6           0        0.916866   -1.568059   -0.518643
      9          6           0        1.937743   -1.268990    0.589170
     10          6           0       -2.535930    0.633856    0.765112
     11          6           0       -2.759646   -0.723674    0.045059
     12          1           0        0.698424    2.415582   -1.041966
     13          1           0        1.357027    0.922150   -1.738149
     14          1           0        1.550309    1.519700    1.288457
     15          1           0        2.740864    2.135240    0.128670
     16          1           0        3.545688    0.050886    1.168464
     17          1           0        3.371050   -0.134682   -0.581932
     18          1           0       -1.959479    1.910198   -0.926316
     19          1           0       -1.148914    2.325380    0.611667
     20          1           0        0.661774   -2.650049   -0.491863
     21          1           0        1.360509   -1.378081   -1.514889
     22          1           0        1.411563   -1.199690    1.561705
     23          1           0        2.615487   -2.141318    0.671384
     24          1           0       -3.482365    1.191765    0.868700
     25          1           0       -2.165710    0.442006    1.792808
     26          1           0       -3.460782   -1.369543    0.615064
     27          1           0       -3.237538   -0.554010   -0.949089
 ---------------------------------------------------------------------
                    Distance matrix (angstroms):
                    1          2          3          4          5
     1  N    0.000000
     2  N    2.421555   0.000000
     3  C    1.490396   3.778097   0.000000
     4  C    2.532331   4.493537   1.545441   0.000000
     5  C    1.416835   1.317721   2.550641   3.253113   0.000000
     6  C    3.263675   4.546771   2.577773   1.536971   3.343646
     7  C    1.504168   2.931581   2.557275   3.527931   2.529188
     8  C    2.521601   2.438575   2.936860   3.194459   1.528867
     9  C    3.112999   3.506152   3.131850   2.599916   2.550997
    10  C    2.526227   2.506405   3.881530   4.629373   2.807893
    11  C    2.842333   1.479339   4.328715   5.202603   2.411454
    12  H    2.136654   4.541458   1.114534   2.185709   3.441676
    13  H    2.139762   4.043320   1.113254   2.184573   2.799324
    14  H    2.677412   4.485848   2.181788   1.108141   3.421701
    15  H    3.442345   5.556382   2.169737   1.106856   4.298043
    16  H    4.209935   5.413955   3.515230   2.160293   4.292633
    17  H    3.761209   5.056739   2.857969   2.170891   3.814621
    18  H    2.146876   3.493819   2.956696   4.208486   3.169848
    19  H    2.154331   3.871730   2.703076   3.340467   3.339574
    20  H    3.425131   2.484129   4.026821   4.265772   2.147282
    21  H    2.832118   3.168031   2.855942   3.316516   2.178591
    22  H    3.203656   3.367940   3.510977   2.875116   2.656631
    23  H    4.177134   4.236832   4.146331   3.525365   3.448067
    24  H    3.473304   3.464683   4.731449   5.532526   3.871309
    25  H    2.899476   2.788529   4.149157   4.526820   3.045399
    26  H    3.878262   2.110897   5.367593   6.110483   3.281061
    27  H    3.205287   2.132575   4.597271   5.719140   2.926002
                    6          7          8          9         10
     6  C    0.000000
     7  C    4.548664   0.000000
     8  C    2.591077   3.908151   0.000000
     9  C    1.537984   4.429006   1.535866   0.000000
    10  C    5.384624   1.550870   4.291650   4.864723   0.000000
    11  C    5.608024   2.535685   3.814117   4.760135   1.552872
    12  H    3.500002   2.594743   4.023801   4.215754   4.111097
    13  H    2.708433   3.371552   2.807504   3.248806   4.637299
    14  H    2.181741   3.308511   3.633334   2.901017   4.213781
    15  H    2.160744   4.284852   4.178565   3.527867   5.523021
    16  H    1.106610   5.363973   3.518242   2.159431   6.122795
    17  H    1.110013   5.149824   2.842815   2.170831   6.107175
    18  H    5.286408   1.114541   4.531868   5.252835   2.195967
    19  H    4.591164   1.114499   4.550156   4.737875   2.192855
    20  H    3.496719   4.672271   1.111976   2.168883   4.752823
    21  H    2.725825   4.298877   1.106985   2.184529   4.942523
    22  H    2.183725   4.246798   2.169855   1.107923   4.424834
    23  H    2.159019   5.510648   2.151768   1.107724   5.852134
    24  H    6.411460   2.198265   5.375368   5.959113   1.103509
    25  H    5.183154   2.188128   4.345739   4.605929   1.109067
    26  H    6.405686   3.514025   4.526422   5.399523   2.211667
    27  H    6.195630   2.832359   4.297982   5.446189   2.200401
                   11         12         13         14         15
    11  C    0.000000
    12  H    4.795289   0.000000
    13  H    4.778658   1.774477   0.000000
    14  H    5.015423   2.638026   3.091079   0.000000
    15  H    6.199676   2.370768   2.621374   1.772405   0.000000
    16  H    6.451296   4.310997   3.741355   2.480595   2.464436
    17  H    6.190757   3.722688   2.551474   3.090377   2.460616
    18  H    2.919096   2.707995   3.554508   4.168491   4.822537
    19  H    3.494601   2.480987   3.710854   2.897062   3.924259
    20  H    3.962994   5.095544   3.846715   4.620156   5.254205
    21  H    4.453916   3.879934   2.311043   4.036323   4.117048
    22  H    4.463831   4.511968   3.923547   2.736602   3.865538
    23  H    5.594109   5.232211   4.095657   3.862439   4.312679
    24  H    2.206720   4.756824   5.503460   5.060785   6.337694
    25  H    2.183162   4.487116   5.010776   3.901870   5.450767
    26  H    1.110695   5.862756   5.831016   5.823419   7.140062
    27  H    1.116018   4.931420   4.889959   5.677179   6.643412
                   16         17         18         19         20
    16  H    0.000000
    17  H    1.768847   0.000000
    18  H    6.176731   5.719674   0.000000
    19  H    5.246202   5.282676   1.787396   0.000000
    20  H    4.285872   3.698022   5.277838   5.408444   0.000000
    21  H    3.743974   2.541403   4.709726   4.953289   1.775589
    22  H    2.504610   3.093382   5.217813   4.459230   2.623522
    23  H    2.432719   2.483599   6.316466   5.841719   2.330010
    24  H    7.126359   7.129733   2.461181   2.606941   5.812449
    25  H    5.758719   6.052080   3.097056   2.444600   4.772336
    26  H    7.170390   7.044970   3.922558   4.358578   4.456506
    27  H    7.131766   6.632050   2.776018   3.884482   4.450514
                   21         22         23         24         25
    21  H    0.000000
    22  H    3.082185   0.000000
    23  H    2.633873   1.768833   0.000000
    24  H    5.978213   5.490887   6.952135   0.000000
    25  H    5.166023   3.942772   5.548964   1.774738   0.000000
    26  H    5.270827   4.966359   6.125345   2.573926   2.519127
    27  H    4.705450   5.323075   6.277212   2.532198   3.107871
                   26         27
    26  H    0.000000
    27  H    1.778062   0.000000
 Stoichiometry    C9H16N2
 Framework group  C1[X(C9H16N2)]
 Deg. of freedom    75
 Full point group                 C1      NOp   1
 Largest Abelian subgroup         C1      NOp   1
 Largest concise Abelian subgroup C1      NOp   1
                         Standard orientation:                         
 ---------------------------------------------------------------------
 Center     Atomic      Atomic             Coordinates (Angstroms)
 Number     Number       Type             X           Y           Z
 ---------------------------------------------------------------------
      1          7           0       -0.304761    0.633757   -0.420578
      2          7           0       -1.485125   -1.462963   -0.147743
      3          6           0        0.946013    1.358164   -0.784001
      4          6           0        2.017095    1.311733    0.329109
      5          6           0       -0.378055   -0.779779   -0.357605
      6          6           0        2.792466   -0.014402    0.378577
      7          6           0       -1.490614    1.465618   -0.015262
      8          6           0        0.922617   -1.566723   -0.520112
      9          6           0        1.935962   -1.273169    0.596061
     10          6           0       -2.541013    0.623436    0.754537
     11          6           0       -2.758460   -0.729981    0.024886
     12          1           0        0.702824    2.419749   -1.020822
     13          1           0        1.367685    0.931303   -1.721720
     14          1           0        1.540705    1.510803    1.309619
     15          1           0        2.737993    2.134698    0.161283
     16          1           0        3.538562    0.045036    1.193681
     17          1           0        3.375453   -0.130169   -0.558894
     18          1           0       -1.955168    1.910622   -0.925407
     19          1           0       -1.155047    2.317449    0.620258
     20          1           0        0.668643   -2.649147   -0.501502
     21          1           0        1.372459   -1.370228   -1.512306
     22          1           0        1.403430   -1.210343    1.565573
     23          1           0        2.614197   -2.145197    0.677396
     24          1           0       -3.488760    1.179621    0.855364
     25          1           0       -2.177210    0.425815    1.783431
     26          1           0       -3.462494   -1.380083    0.586443
     27          1           0       -3.230123   -0.554872   -0.971290
 ---------------------------------------------------------------------
 Rotational constants (GHZ):           1.9325284           0.8732591           0.6800964
 Standard basis: VSTO-6G (5D, 7F)
 There are    60 symmetry adapted cartesian basis functions of A   symmetry.
 There are    60 symmetry adapted basis functions of A   symmetry.
    60 basis functions,   360 primitive gaussians,    60 cartesian basis functions
    31 alpha electrons       31 beta electrons
       nuclear repulsion energy       382.4119713996 Hartrees.
 Integral buffers will be    131072 words long.
 Regular integral format.
 Two-electron integral symmetry is turned off.
 Do NDO integrals.
 One-electron integrals computed using PRISM.
 NBasis=    60 RedAO= F EigKep=  0.00D+00  NBF=    60
 NBsUse=    60 1.00D-04 EigRej=  0.00D+00 NBFU=    60
 Initial guess from the checkpoint file:  "DBU_userjob.chk"
 B after Tr=     0.000000   -0.000000    0.000000
         Rot=    0.999991   -0.003219    0.002749   -0.000257 Ang=  -0.49 deg.
 Keep J ints in memory in canonical form, NReq=867819.
 Overlap will be assumed to be unity.
 Requested convergence on RMS density matrix=1.00D-08 within 128 cycles.
 Requested convergence on MAX density matrix=1.00D-06.
 Requested convergence on             energy=1.00D-06.
 No special actions if energy rises.
 SCF Done:  E(RPM6) = -0.156985250277E-02 A.U. after   12 cycles
            NFock= 11  Conv=0.74D-08     -V/T= 1.0000
 Calling FoFJK, ICntrl=      2127 FMM=F ISym2X=0 I1Cent= 0 IOpClX= 0 NMat=1 NMatS=1 NMatT=0.
 ***** Axes restored to original set *****
 -------------------------------------------------------------------
 Center     Atomic                   Forces (Hartrees/Bohr)
 Number     Number              X              Y              Z
 -------------------------------------------------------------------
      1        7          -0.003187246    0.003952601   -0.004468278
      2        7           0.004660026    0.009868878   -0.002943404
      3        6          -0.002795351   -0.003274867    0.006500439
      4        6          -0.003565214   -0.003503541   -0.000978632
      5        6          -0.000908322   -0.002090475    0.005718860
      6        6          -0.003181882   -0.000301332   -0.003524406
      7        6           0.001911075   -0.007463817    0.002548105
      8        6          -0.005614131    0.007407899    0.000956909
      9        6          -0.001716901    0.002818558   -0.000614697
     10        6           0.006125169   -0.003160147   -0.006649695
     11        6           0.004985730    0.006237715    0.000425779
     12        1          -0.001127173   -0.001941851    0.001258170
     13        1          -0.001926798   -0.001705727    0.000380728
     14        1           0.000215772   -0.000887562   -0.000592643
     15        1          -0.000254457    0.000545163    0.000624343
     16        1           0.000910988    0.000067437    0.000532545
     17        1          -0.000515308    0.000094597    0.000724357
     18        1           0.001662082   -0.002523062    0.000142556
     19        1           0.000584370   -0.002642772   -0.000794739
     20        1          -0.000053563   -0.000999617   -0.000878372
     21        1          -0.001628701    0.000069576   -0.000129278
     22        1           0.000061693    0.000822365    0.000151859
     23        1           0.000607920   -0.000529962    0.001095534
     24        1           0.001640655   -0.000479928   -0.001028511
     25        1          -0.000939566    0.000228553   -0.001075074
     26        1           0.002820257   -0.000253208    0.001133052
     27        1           0.001228875   -0.000355475    0.001484492
 -------------------------------------------------------------------
 Cartesian Forces:  Max     0.009868878 RMS     0.002942803

 GradGradGradGradGradGradGradGradGradGradGradGradGradGradGradGradGradGrad
 Berny optimization.
 Using GEDIIS/GDIIS optimizer.
 FormGI is forming the generalized inverse of G from B-inverse, IUseBI=4.
 Internal  Forces:  Max     0.014325798 RMS     0.002771705
 Search for a local minimum.
 Step number   2 out of a maximum of  162
 All quantities printed in internal units (Hartrees-Bohrs-Radians)
 Mixed Optimization -- RFO/linear search
 Update second derivatives using D2CorX and points    1    2
 DE= -6.62D-03 DEPred=-1.10D-02 R= 6.04D-01
 TightC=F SS=  1.41D+00  RLast= 2.98D-01 DXNew= 5.0454D-01 8.9277D-01
 Trust test= 6.04D-01 RLast= 2.98D-01 DXMaxT set to 5.05D-01
 ITU=  1  0
 Use linear search instead of GDIIS.
     Eigenvalues ---    0.00611   0.00639   0.00768   0.00917   0.00992
     Eigenvalues ---    0.01280   0.01388   0.01732   0.02612   0.03007
     Eigenvalues ---    0.03557   0.03698   0.03876   0.04495   0.04668
     Eigenvalues ---    0.04756   0.04781   0.05040   0.05302   0.05367
     Eigenvalues ---    0.05895   0.05981   0.06285   0.06507   0.07217
     Eigenvalues ---    0.07874   0.07977   0.08464   0.08506   0.08721
     Eigenvalues ---    0.08837   0.09352   0.09402   0.09651   0.09916
     Eigenvalues ---    0.11340   0.11540   0.12516   0.12657   0.12684
     Eigenvalues ---    0.14165   0.16468   0.19921   0.20737   0.22109
     Eigenvalues ---    0.23278   0.24880   0.27643   0.28983   0.29116
     Eigenvalues ---    0.29156   0.29361   0.30103   0.30931   0.32966
     Eigenvalues ---    0.33158   0.33219   0.33269   0.33314   0.33367
     Eigenvalues ---    0.33389   0.33475   0.33490   0.33523   0.33544
     Eigenvalues ---    0.33594   0.33638   0.33793   0.33849   0.33999
     Eigenvalues ---    0.35827   0.36859   0.42556   0.52341   0.73377
 RFO step:  Lambda=-1.40048467D-03 EMin= 6.11145609D-03
 Quartic linear search produced a step of -0.24968.
 Iteration  1 RMS(Cart)=  0.02891427 RMS(Int)=  0.00031022
 Iteration  2 RMS(Cart)=  0.00041962 RMS(Int)=  0.00008062
 Iteration  3 RMS(Cart)=  0.00000005 RMS(Int)=  0.00008062
 Variable       Old X    -DE/DX   Delta X   Delta X   Delta X     New X
                                 (Linear)    (Quad)   (Total)
    R1        2.81644  -0.01341  -0.01615  -0.00758  -0.02373   2.79271
    R2        2.67743  -0.00938  -0.02109   0.00945  -0.01166   2.66577
    R3        2.84247  -0.01433  -0.02116  -0.00481  -0.02595   2.81651
    R4        2.49013  -0.01427  -0.01428   0.00095  -0.01337   2.47676
    R5        2.79555  -0.00846  -0.01330  -0.00029  -0.01361   2.78193
    R6        2.92046  -0.00512  -0.00758  -0.00396  -0.01162   2.90884
    R7        2.10616  -0.00187  -0.00744   0.00461  -0.00283   2.10334
    R8        2.10374  -0.00038  -0.00532   0.00541   0.00009   2.10384
    R9        2.90445  -0.00429  -0.00498  -0.00497  -0.00995   2.89450
   R10        2.09408  -0.00078  -0.00224   0.00089  -0.00136   2.09273
   R11        2.09165   0.00014  -0.00262   0.00338   0.00077   2.09242
   R12        2.88914  -0.01118  -0.00753  -0.01799  -0.02551   2.86363
   R13        2.90637  -0.00443  -0.00482  -0.00565  -0.01046   2.89591
   R14        2.09119   0.00101  -0.00255   0.00524   0.00269   2.09388
   R15        2.09762  -0.00089  -0.00271   0.00119  -0.00153   2.09609
   R16        2.93072  -0.01108  -0.01559  -0.00701  -0.02258   2.90814
   R17        2.10618  -0.00181  -0.00452   0.00123  -0.00329   2.10289
   R18        2.10610  -0.00230  -0.00591   0.00183  -0.00408   2.10202
   R19        2.90237  -0.00209   0.00039  -0.00604  -0.00557   2.89680
   R20        2.10133   0.00096  -0.00744   0.01085   0.00341   2.10474
   R21        2.09190  -0.00052  -0.00201   0.00119  -0.00082   2.09108
   R22        2.09367   0.00016  -0.00220   0.00293   0.00073   2.09440
   R23        2.09329   0.00087  -0.00339   0.00591   0.00252   2.09582
   R24        2.93450  -0.00999  -0.01366  -0.00625  -0.01986   2.91464
   R25        2.08533  -0.00175  -0.00219  -0.00128  -0.00347   2.08186
   R26        2.09583  -0.00135  -0.00341   0.00101  -0.00241   2.09343
   R27        2.09891  -0.00105  -0.00481   0.00332  -0.00149   2.09742
   R28        2.10897  -0.00190  -0.00437   0.00083  -0.00354   2.10543
    A1        2.14025   0.00092   0.00072  -0.00188  -0.00160   2.13864
    A2        2.04713  -0.00239  -0.00514   0.00221  -0.00301   2.04413
    A3        2.09323   0.00142   0.00471  -0.00337   0.00119   2.09442
[...]
 0012071,-0.00000262,0.00000572,-0.00003142,-0.00003893,-0.00002558,-0.
 00001953,-0.00001735,-0.00006579,0.00002571,-0.00005699,-0.00008240,-0
 .00001332,0.00000661,0.00004118,-0.00003663,0.00001987,0.00002285,-0.0
 0002548,-0.00000219,0.04336522,0.24537643,0.00068104,0.00000302,-0.000
 31812,0.00141360,-0.00016158,-0.00091287,0.00004198,0.00018665,-0.0000
 1305,0.00012090,0.00019128,0.00000269,0.00207214,-0.01110664,0.0029428
 5,-0.00154230,-0.00015097,-0.00182282,-0.00002395,-0.00003684,0.000139
 86,-0.00502446,-0.02197790,-0.03749104,-0.01407629,-0.02028862,-0.0094
 3530,-0.00011553,0.00007016,-0.00000087,0.00000540,0.00007747,0.000011
 64,-0.00000206,-0.00000392,0.00002372,-0.00001517,0.00003508,0.0000756
 8,-0.00002192,-0.00005331,0.00000055,-0.00001855,0.00000887,0.00000248
 ,-0.00024203,-0.00035339,-0.00000139,0.00005262,0.00010717,0.00001844,
 0.00002926,0.00000027,0.00002916,-0.00000037,-0.00000573,0.00000723,0.
 01096673,0.03739263,0.04683872,-0.00086580,0.00086306,0.00008861,-0.00
 156668,0.00149747,0.00077220,0.00038026,0.00038189,0.00031004,-0.00013
 979,-0.00009062,0.00002420,-0.02198232,0.00105142,0.02469845,0.0000854
 6,-0.00015698,-0.00026910,-0.00019272,-0.00028321,0.00008937,-0.065341
 80,-0.02286742,0.06463593,0.00544568,0.00414345,-0.01455341,0.00005122
 ,-0.00009922,-0.00007051,-0.00066671,-0.00037780,-0.00068114,-0.000015
 41,-0.00001592,-0.00000224,0.00019570,0.00006167,0.00000151,-0.0000016
 6,0.00002894,-0.00000334,0.00001978,-0.00000212,-0.00003820,0.00005385
 ,0.00004636,-0.00003630,-0.00035667,-0.00028256,-0.00024671,0.00000090
 ,0.00001320,-0.00001323,0.00008917,-0.00000699,-0.00000317,-0.00108157
 ,-0.00753044,0.00657167,0.08718495,0.00160462,-0.00231797,0.00017220,0
 .00120049,-0.00154385,-0.00054304,0.00036591,-0.00117647,-0.00103694,-
 0.00019019,-0.00011138,0.00009564,0.00913867,0.00679979,-0.01125998,-0
 .00011614,-0.00002924,-0.00053776,-0.00000967,-0.00004976,0.00001398,-
 0.02457902,-0.05132579,0.04943591,0.00096657,0.00342062,0.00166520,-0.
 00006931,0.00000176,0.00001640,0.00036898,0.00038914,0.00045292,-0.000
 02111,-0.00004955,0.00004042,-0.00024764,-0.00049071,0.00031086,0.0000
 5126,-0.00000464,-0.00003150,0.00000844,-0.00003177,-0.00005642,-0.000
 02883,-0.00002479,-0.00000517,-0.00037425,-0.00002260,-0.00018846,0.00
 000131,0.00004439,0.00002330,0.00000480,0.00000457,-0.00000844,-0.0117
 8014,-0.01353063,0.01681627,0.02366198,0.05985280,0.00032333,-0.000335
 58,-0.00056169,0.00012824,-0.00013422,-0.00021062,0.00003127,-0.000483
 55,-0.00007105,0.00011921,0.00006737,-0.00006454,0.01656172,-0.0030962
 0,-0.00899056,-0.00000801,-0.00061645,-0.00044324,0.00012176,0.0002263
 2,-0.00006366,0.06368930,0.04672350,-0.16106845,-0.00238441,0.00730703
 ,-0.03377777,-0.00012737,0.00009827,0.00002500,-0.00003472,0.00002464,
 0.00007902,-0.00000791,0.00000427,0.00004754,-0.00005080,-0.00036480,0
 .00030246,-0.00001453,-0.00004422,-0.00007151,-0.00002518,-0.00001813,
 -0.00000276,0.00005682,0.00020395,-0.00001057,-0.00047271,-0.00025859,
 -0.00003609,0.00000718,0.00000631,0.00008776,-0.00006374,-0.00000456,0
 .00002579,0.00320199,0.00567307,0.00024374,-0.07927935,-0.05543570,0.2
 0693620,-0.00022080,-0.00042799,0.00044233,-0.00036393,-0.00025793,0.0
 0068675,0.00006221,0.00009936,-0.00008170,0.00004224,0.00010047,0.0000
 4467,0.00011212,0.00147643,-0.00255543,-0.01090564,-0.01362033,0.01240
 648,-0.00001805,-0.00001625,-0.00009176,0.00576053,0.00126698,-0.01468
 482,-0.07704843,-0.01342227,0.07644453,0.00012961,-0.00008660,0.000034
 44,-0.00010007,-0.00001838,-0.00000574,-0.00001931,-0.00000221,-0.0000
 2526,0.00002542,-0.00003063,-0.00002369,0.00017955,0.00012314,-0.00001
 070,-0.00006388,0.00007023,-0.00001307,-0.00059373,-0.00056593,0.00010
 034,-0.00062415,-0.00145245,0.00011707,-0.00002496,0.00001487,-0.00001
 085,0.00000855,0.00001417,-0.00000746,0.00018028,0.00012958,-0.0003634
 3,-0.00127838,-0.00023322,-0.00153593,0.09645886,-0.00007099,-0.000204
 49,-0.00008448,-0.00003311,-0.00044114,0.00021835,0.00010994,-0.000004
 94,0.00006824,0.00006878,-0.00020525,0.00027494,0.00116005,0.00046315,
 0.00082940,-0.02031481,-0.01381484,0.01936910,0.00001004,-0.00001757,0
 .00000170,0.00050024,0.00333876,0.00141363,-0.01212814,-0.03794904,0.0
 2139670,-0.00011011,0.00003559,-0.00000373,-0.00008451,-0.00003781,0.0
 0002010,-0.00001921,-0.00002053,0.00001885,-0.00004166,-0.00002149,0.0
 0001115,0.00017547,-0.00077206,-0.00013149,-0.00010552,0.00005488,0.00
 001208,-0.00047239,0.00006084,0.00024476,-0.00165402,-0.00241302,-0.00
 015426,0.00000780,0.00000049,0.00002158,0.00000787,-0.00001346,0.00001
 463,-0.00003576,0.00016558,-0.00046389,-0.00015482,0.00030246,0.000029
 33,0.02246149,0.05004404,0.00018682,-0.00010780,-0.00006650,0.00012097
 ,0.00003800,-0.00040182,0.00001498,-0.00010297,0.00000059,-0.00012482,
 0.00014578,-0.00024232,-0.00184144,0.00128331,-0.00082360,0.00728082,0
 .00831752,-0.00178230,-0.00007662,-0.00005308,0.00002832,-0.00082377,0
 .00211898,-0.03603693,0.07500292,0.02341451,-0.16270670,0.00003576,-0.
 00005314,-0.00011397,0.00004364,0.00003826,-0.00013344,-0.00000145,0.0
 0001435,0.00000620,0.00000103,0.00002424,-0.00003605,-0.00003042,0.000
 06235,0.00020372,0.00004170,-0.00004152,0.00007466,-0.00005687,-0.0001
 9891,0.00058773,0.00009035,-0.00005860,0.00006310,0.00000206,0.0000022
 8,-0.00002169,0.00001684,0.00000548,0.00000442,-0.00021564,-0.00042469
 ,-0.00068082,-0.00155855,-0.00017191,-0.00197401,-0.08694352,-0.030996
 39,0.20868866,0.00004152,0.00004374,0.00008367,-0.00002622,-0.00006286
 ,0.00002369,-0.00012421,-0.00003414,-0.00003777,-0.00049678,-0.0016477
 4,-0.00013077,-0.00117080,0.00015862,-0.00166799,0.00688979,-0.0048250
 5,-0.00057114,0.00000689,0.00003477,0.00005324,-0.02301279,0.01402474,
 -0.01154324,-0.11302207,0.08879220,0.00876473,0.00003581,-0.00001846,-
 0.00000108,0.00003500,-0.00000610,0.00017672,0.00000658,0.00002166,0.0
 0000085,0.00003050,-0.00000072,-0.00002239,-0.00009670,0.00007643,0.00
 005569,0.00021393,-0.00018370,-0.00000244,0.00034842,-0.00048705,-0.00
 000841,0.00039976,-0.00045746,-0.00010490,0.00000402,-0.00000449,-0.00
 001170,-0.00001326,0.00000961,-0.00000315,-0.00070622,-0.00007445,-0.0
 0057257,0.00010917,0.00017015,-0.00033640,-0.01155145,0.01061854,0.008
 79527,0.14213749,-0.00012747,0.00013099,0.00003962,-0.00017108,-0.0001
 0470,0.00007469,-0.00011484,0.00013477,-0.00005301,-0.00140248,-0.0024
 6650,-0.00016250,0.00021126,0.00002257,-0.00027794,0.00861474,-0.03725
 415,-0.00394400,0.00004531,0.00004911,-0.00001080,0.00829339,-0.000487
 90,0.00457604,0.08707930,-0.12978336,-0.00900143,-0.00005867,0.0000434
 2,0.00002856,-0.00004945,-0.00003277,0.00002611,0.00000074,-0.00000310
 ,-0.00000262,0.00001779,-0.00004716,0.00001347,-0.00012723,0.00006585,
 0.00004617,0.00027495,-0.00041713,-0.00004032,-0.00020549,-0.00063601,
 -0.00050000,-0.00004704,-0.00056683,0.00040928,0.00000629,-0.00000398,
 0.00001974,-0.00001369,-0.00000741,0.00000194,-0.00046892,0.00077804,-
 0.00027779,0.00006213,-0.00005809,0.00038090,0.00429776,0.00139764,-0.
 00315505,-0.10616344,0.16920513,0.00004866,0.00028986,-0.00004093,-0.0
 0014106,0.00013586,-0.00006817,-0.00005348,-0.00004334,-0.00004330,0.0
 0006045,-0.00017374,0.00017652,-0.00142114,-0.00076067,-0.00192142,0.0
 0005553,-0.00128045,0.00307878,0.00001571,0.00006644,0.00005228,-0.021
 36033,0.01309608,-0.00445000,0.01080060,-0.01146454,-0.03439422,-0.000
 00376,0.00001721,-0.00000563,0.00005074,-0.00000769,0.00021267,0.00001
 339,0.00000952,0.00000626,-0.00003757,0.00006162,0.00001489,-0.0000082
 6,-0.00000940,0.00006297,0.00000653,-0.00000649,0.00002749,-0.00010793
 ,-0.00063303,0.00002828,0.00009595,0.00060097,0.00022113,0.00001122,-0
 .00001045,0.00000253,-0.00001683,0.00000273,0.00000231,-0.00068364,0.0
 0011181,0.00026860,-0.00054565,0.00025899,-0.00039789,0.01614237,-0.01
 209340,-0.00476814,-0.00292792,0.01182868,0.04191791,-0.00079480,-0.00
 053553,0.00094696,0.00081003,-0.00136094,-0.00043118,-0.00007873,0.000
 01320,0.00013253,0.00010744,0.00004422,-0.00001053,-0.00023209,-0.0000
 5382,0.00025433,0.00003802,0.00000445,0.00001253,-0.02236955,0.0032381
 2,0.01453275,0.00003750,-0.00009299,-0.00004266,0.00004109,-0.00004939
 ,-0.00001148,-0.17071888,0.07463794,0.01852559,0.00115481,0.00899206,0
 .00163366,-0.00002338,-0.00000565,0.00002713,-0.00005331,-0.00002307,0
 .00002304,-0.00005754,0.00000390,0.00000149,-0.00002243,-0.00001616,0.
 00000861,-0.00001532,0.00000073,-0.00000767,-0.00001763,-0.00000257,0.
 00000436,0.00042122,0.00020766,0.00030689,-0.00048301,-0.00049880,0.00
 028804,0.00000909,0.00003673,0.00001644,-0.00001268,0.00000174,0.00003
 262,-0.00001717,0.00002053,-0.00001187,-0.00000972,0.00001670,0.000003
 08,0.20909621,-0.00151777,0.00005391,0.00091260,0.00094885,-0.00415638
 ,-0.00076645,0.00003151,0.00016736,0.00039581,-0.00001671,-0.00004179,
 -0.00004276,-0.00065505,-0.00042365,0.00015165,-0.00001911,-0.00000523
 ,-0.00001331,-0.00449666,0.00552546,0.00028326,-0.00002820,0.00003385,
 0.00011373,-0.00000335,0.00001189,0.00000471,0.07392631,-0.07464258,-0
 .00944855,0.02147751,-0.02737956,-0.00566929,-0.00000869,0.00006030,-0
 .00000358,-0.00008511,-0.00005239,-0.00003489,0.00001049,0.00002856,0.
 00001354,0.00000029,0.00002241,0.00001116,0.00000682,0.00000286,0.0000
 0418,0.00001122,0.00000089,0.00000188,-0.00011756,0.00028991,-0.000098
 87,-0.00048907,0.00010505,0.00037652,-0.00001188,-0.00000884,0.0000039
 0,-0.00000974,0.00000243,-0.00000620,0.00000886,-0.00000825,-0.0000014
 9,0.00000522,-0.00000535,0.00000142,-0.09174691,0.09836554,0.00205344,
 0.00075575,-0.00197783,0.00006939,-0.00085492,0.00003900,0.00010478,-0
 .00014642,-0.00032119,-0.00005008,-0.00003253,-0.00003833,-0.00004568,
 0.00049140,0.00003053,-0.00000977,-0.00000109,-0.00001987,0.02438944,-
 0.00491654,-0.00857712,-0.00002164,0.00006526,0.00004734,0.00000714,0.
 00001005,-0.00000586,0.01568284,-0.00842233,-0.03563067,0.00366368,-0.
 00606282,0.00204372,0.00000367,-0.00002625,0.00001424,0.00007564,0.000
 03542,0.00001059,0.00000102,0.00000883,0.00002438,-0.00000632,0.000005
 07,0.00000366,0.00000019,-0.00000015,0.00000738,0.00000371,0.00000055,
 0.00000348,0.00062066,-0.00005493,-0.00064136,0.00036457,0.00024537,-0
 .00003824,-0.00001107,-0.00000430,0.00001016,0.00000014,0.00001127,0.0
 0000082,-0.00000411,-0.00000450,0.00001437,0.00000016,-0.00000394,0.00
 000300,-0.02940271,0.01279056,0.04510203,-0.00038467,0.00018291,0.0000
 4239,-0.00032497,0.00044589,0.00021065,0.00027051,0.00002535,0.0002004
 8,0.00021823,0.00006371,-0.00021015,-0.00003879,0.00022824,0.00037228,
 0.00002518,0.00002487,-0.00007984,0.00715248,-0.00058074,0.00936893,-0
 .00004560,-0.00006685,-0.00007822,0.00007256,-0.00004974,-0.00002646,-
 0.08325964,-0.01124593,-0.07951303,-0.00145592,-0.00950955,-0.00793517
 ,-0.00000314,-0.00002230,0.00007032,-0.00003520,-0.00002868,0.00000574
 ,-0.00035280,-0.00002599,0.00005067,-0.00006058,-0.00002841,0.00001795
 ,-0.00003454,0.00000091,0.00000584,-0.00000488,-0.00001222,0.00001612,
 -0.00067930,-0.00088680,0.00131376,0.00041376,0.00009386,0.00030865,0.
 00001795,0.00001106,0.00001766,0.00001459,0.00001189,0.00001956,-0.000
 05369,0.00005906,0.00003153,-0.00001427,0.00000926,-0.00000547,-0.0175
 6183,0.00254546,-0.01749183,0.09604772,0.00008070,-0.00009100,-0.00005
 109,-0.00024397,-0.00038681,0.00017950,0.00020255,-0.00005670,-0.00013
 707,-0.00006715,-0.00014086,-0.00004745,0.00050421,0.00018443,-0.00067
 895,-0.00001981,-0.00000916,-0.00000294,0.00191947,0.00248361,0.010475
 86,-0.00007819,-0.00004909,0.00008872,-0.00005043,0.00003440,0.0000437
 3,-0.01101768,-0.03663487,-0.01909376,-0.01653723,-0.01638431,-0.02390
 340,-0.00005352,0.00003189,0.00003703,0.00002572,0.00001724,-0.0000101
 0,0.00002532,0.00013087,0.00001249,-0.00002515,0.00003109,0.00001541,0
 .00001342,0.00000350,-0.00000016,0.00001180,-0.00000096,0.00000069,-0.
 00068127,-0.00030409,0.00107163,0.00001410,-0.00007232,0.00081692,0.00
 000631,-0.00002433,-0.00002657,-0.00000189,0.00001689,-0.00002297,0.00
 006114,-0.00002031,-0.00001800,0.00000810,-0.00001167,-0.00000428,0.00
 752186,0.00321735,0.00666346,0.01966662,0.05141088,-0.00028760,-0.0001
 5566,-0.00000618,-0.00049867,0.00004433,-0.00027541,0.00015679,0.00023
 225,0.00018469,-0.00006140,-0.00008178,-0.00018510,0.00051054,-0.00053
 185,-0.00039820,-0.00004902,0.00000389,-0.00009222,-0.00271366,0.00524
 043,-0.03564747,-0.00007028,0.00006460,-0.00001985,-0.00001118,0.00005
 760,-0.00002124,-0.07737816,-0.01951550,-0.16085096,-0.00727142,-0.013
 48678,-0.00777296,0.00001069,0.00003736,-0.00002641,-0.00004334,-0.000
 02764,-0.00005127,0.00002618,0.00001446,0.00016512,-0.00001373,0.00001
 813,0.00002902,-0.00000332,0.00000353,0.00003206,0.00002354,-0.0000000
 3,0.00000894,0.00106492,0.00107373,-0.00199618,-0.00007647,0.00051450,
 -0.00015404,-0.00000845,-0.00004434,-0.00000273,0.00001539,0.00000175,
 -0.00003077,-0.00001409,-0.00000500,0.00006863,-0.00000045,-0.00001525
 ,0.00000434,-0.00671879,0.00133170,-0.00032416,0.09357322,0.02551716,0
 .20662732,0.00055724,0.00058360,-0.00016520,-0.02365524,-0.00316436,0.
 03040177,-0.00004970,0.00010555,-0.00006005,0.00005734,0.00004311,-0.0
 0001471,-0.00319690,0.00189034,0.00272608,0.00001834,0.00000809,-0.000
 01486,0.00001371,-0.00029785,0.00025791,-0.00075691,-0.00042901,-0.000
 88924,-0.00013203,0.00007240,0.00001574,0.00019035,-0.00876225,0.00469
 782,-0.04809054,-0.02346287,0.04257439,0.00003506,-0.00000288,0.000011
 15,-0.00001167,0.00000552,0.00002109,-0.00004285,-0.00003030,0.0000083
 0,-0.00000999,-0.00001576,0.00000107,-0.00001375,-0.00000339,-0.000000
 60,-0.00000941,0.00000181,0.00000256,0.00008174,-0.00002483,-0.0000181
 9,-0.00005871,-0.00001165,0.00003850,0.00002101,-0.00004465,0.00001602
 ,0.00003890,-0.00000937,0.00000938,-0.00005277,0.00001500,0.00003899,-
 0.00003230,0.00000602,-0.00002729,0.00017180,0.00005100,-0.00008315,-0
 .00000977,-0.00069968,0.00004489,0.07093288,0.00014073,0.00014710,-0.0
 0047531,0.00377482,0.00794171,-0.00741308,-0.00013335,0.00002085,0.000
 08511,0.00007151,0.00006666,0.00003285,0.00166749,-0.00137985,-0.00092
 201,0.00004129,-0.00000354,0.00004286,-0.00046683,-0.00298943,-0.00027
 417,0.00047456,0.00031033,0.00033887,0.00015075,-0.00014917,-0.0000101
 1,-0.01072909,-0.02777661,0.01976412,-0.02481880,-0.06816453,0.0638459
 7,0.00003654,-0.00002074,0.00000338,-0.00002474,-0.00002115,0.00002496
 ,-0.00001786,-0.00002486,-0.00002429,-0.00000379,-0.00001539,-0.000002
 93,-0.00001128,0.00000696,-0.00001240,-0.00002193,-0.00000340,-0.00000
 087,0.00001339,0.00002304,-0.00012621,-0.00025708,-0.00022695,0.000412
 11,0.00000144,0.00014649,0.00000632,-0.00001535,-0.00001396,0.00004582
 ,0.00000677,0.00004560,-0.00005665,0.00001433,0.00003310,0.00001840,-0
 .00004155,-0.00097094,0.00011107,-0.00045134,-0.00032676,0.00018000,0.
 03003823,0.08969834,-0.00017067,-0.00038040,0.00015818,0.02095348,-0.0
 0198048,-0.01519147,0.00011051,0.00004051,0.00008833,-0.00003529,-0.00
 002199,-0.00007603,0.00099055,0.00035740,-0.00093865,-0.00003602,-0.00
 000094,-0.00005950,-0.00005104,-0.00076941,0.00005582,0.00001776,-0.00
 000259,0.00029556,0.00004882,0.00003053,-0.00003832,0.00143574,0.00605
 732,0.00135691,0.04602702,0.06647491,-0.15516707,-0.00000438,0.0000088
 5,-0.00001197,-0.00000222,-0.00000754,-0.00002544,-0.00000872,-0.00001
 188,0.00005417,0.00000397,0.00001095,0.00000914,0.00000102,-0.00000410
 ,0.00002012,0.00001711,0.00000160,0.00000569,-0.00001397,0.00002957,-0
 .00006437,-0.00004292,0.00001430,0.00012679,0.00001545,-0.00004256,0.0
 0000378,-0.00002095,0.00003023,-0.00002131,-0.00003170,-0.00001882,0.0
 0006115,0.00000387,-0.00001537,0.00001297,-0.00022911,0.00022966,0.000
 17467,-0.00000002,-0.00037882,0.00072648,-0.06754633,-0.07774184,0.190
 63146,0.00004678,0.00019392,-0.00064937,-0.04252165,0.00894196,-0.0124
 5472,-0.00008025,-0.00013963,-0.00007939,0.00007251,0.00003212,0.00002
 574,-0.00199618,0.00177447,-0.00153379,0.00002602,0.00000152,0.0000102
 2,-0.00049600,-0.00037514,-0.00012884,0.00020999,0.00012293,0.00145131
 ,0.00027171,-0.00014227,-0.00004732,-0.00466596,-0.01020098,-0.0084362
 4,-0.11375716,-0.01884826,-0.08312698,-0.00001618,-0.00002503,0.000019
 94,0.00001410,0.00002075,0.00003253,-0.00002607,-0.00001101,-0.0000114
 8,-0.00001121,-0.00001448,-0.00000036,-0.00001169,-0.00000080,-0.00000
 483,-0.00001273,-0.00000044,0.00000401,0.00000019,-0.00025433,0.000185
 85,0.00009381,-0.00004377,-0.00004087,-0.00000316,0.00004780,0.0000130
 5,-0.00016729,0.00010248,0.00003844,-0.00002275,0.00000999,-0.00001888
 ,0.00001795,0.00001393,0.00003602,0.00058092,0.00018217,0.00008610,0.0
 0008667,-0.00058539,-0.00020613,0.00400409,0.00056112,-0.00143215,0.15
 836353,-0.00000973,0.00053223,-0.00010293,0.01384878,0.00307331,0.0042
 6064,-0.00014332,0.00001160,0.00014044,0.00006711,0.00006736,0.0000581
 5,0.00026568,-0.00130086,0.00122533,0.00003616,-0.00000175,0.00003951,
 0.00016424,-0.00020519,-0.00028971,-0.00007600,-0.00012561,-0.00086131
 ,-0.00007208,-0.00002278,0.00001985,-0.01981116,-0.01762263,-0.0208551
 0,-0.01617159,-0.03566109,-0.01509485,0.00001654,-0.00001375,-0.000000
 13,-0.00003341,-0.00001690,0.00002927,0.00000949,-0.00002241,-0.000036
 69,0.00000121,-0.00001751,-0.00000194,-0.00000971,0.00000248,-0.000011
 16,-0.00002144,-0.00000049,-0.00000226,-0.00016911,-0.00037608,0.00022
 471,-0.00002163,0.00006755,-0.00008418,0.00005486,0.00008970,0.0000079
 3,0.00008360,-0.00005369,0.00003020,0.00000272,0.00003514,-0.00002475,
 -0.00001251,0.00002551,-0.00001209,-0.00031276,-0.00019300,-0.00066335
 ,-0.00046059,-0.00304875,-0.00047164,0.00413820,0.00364700,0.00809081,
 0.01863637,0.05113042,0.00005094,0.00031081,-0.00032115,-0.00211880,0.
 00350877,0.00598656,-0.00003749,0.00008931,0.00001928,0.00003372,0.000
 04102,0.00000196,0.00096945,-0.00185093,0.00098536,0.00002824,0.000002
 15,0.00001033,-0.00007013,0.00027708,0.00035201,0.00009857,0.00016427,
 -0.00080262,-0.00005145,-0.00001123,-0.00000930,-0.00725051,-0.0098469
 2,-0.00468011,-0.08593160,-0.01840785,-0.11970605,0.00002244,-0.000001
 46,0.00001663,-0.00001768,-0.00002076,0.00002472,-0.00000851,-0.000015
 69,-0.00001265,-0.00000570,-0.00000933,0.00000044,-0.00000898,0.000002
 49,-0.00000451,-0.00001384,-0.00000143,0.00000435,0.00019149,0.0002669
 9,0.00006165,-0.00001020,0.00003401,-0.00004173,-0.00000545,0.00006680
 ,0.00005962,0.00011441,-0.00007011,0.00004832,-0.00001568,0.00001141,-
 0.00001311,-0.00001584,0.00001485,-0.00000323,0.00011610,-0.00054068,0
 .00004509,-0.00028555,-0.00054697,0.00000860,-0.01204605,0.00214819,-0
 .02218687,0.10626835,0.02438510,0.14015640\\0.00000146,-0.00000767,0.0
 0000413,0.00000123,0.00000032,-0.00000047,0.00000045,-0.00000359,-0.00
 000040,-0.00000138,0.00000018,0.00000122,0.00000248,0.00000786,0.00000
 249,-0.00000013,-0.00000047,0.00000200,-0.00000344,-0.00000102,0.00000
 108,0.00000004,-0.00000299,-0.00000683,-0.00000161,0.00000054,0.000001
 59,0.00000295,0.00000471,0.00000120,0.00000028,-0.00000082,-0.00000185
 ,0.00000090,0.00000104,-0.00000034,-0.00000089,0.00000092,0.00000087,-
 0.00000012,-0.00000025,-0.00000117,0.00000057,0.00000032,-0.00000069,-
 0.00000023,0.00000003,-0.00000110,-0.00000006,-0.00000006,-0.00000156,
 -0.00000035,-0.00000007,-0.00000061,-0.00000177,-0.00000009,-0.0000005
 7,0.00000076,0.00000274,0.00000213,-0.00000009,0.00000124,0.00000297,0
 .00000031,-0.00000015,-0.00000236,-0.00000116,-0.00000032,0.00000022,0
 .00000071,-0.00000028,-0.00000102,0.00000109,-0.00000082,-0.00000098,-
 0.00000119,-0.00000095,-0.00000009,-0.00000082,-0.00000035,0.00000013\
 \\@


 TIME IS NATURE'S WAY OF MAKING SURE EVERYTHING
 DOESN'T HAPPEN AT ONCE.
                     - WOODY ALLEN
 Job cpu time:       0 days  0 hours  1 minutes 27.0 seconds.
 Elapsed time:       0 days  0 hours  0 minutes  1.7 seconds.
 File lengths (MBytes):  RWF=     42 Int=      0 D2E=      0 Chk=      3 Scr=      1
 Normal termination of Gaussian 16 at Sun Jul  6 22:40:55 2025.
