3
 energy: -10.297398913536 gnorm: 0.145777905409 xtb: 6.7.1 (edcfbbe)
O           -1.19700000000000        0.00000000000000        0.00000000000000
O            1.19700000000000        0.00000000000000        0.00000000000000
C            0.00000000000000        0.00000000000000        0.00000000000000
3
 energy: -10.308447045753 gnorm: 0.003599317921 xtb: 6.7.1 (edcfbbe)
O           -1.14255971278545       -0.00000000000000        0.00000000000000
O            1.14255971278545       -0.00000000000000        0.00000000000000
C           -0.00000000000000        0.00000000000000       -0.00000000000000
3
 energy: -10.308452076582 gnorm: 0.000722526470 xtb: 6.7.1 (edcfbbe)
O           -1.14387146220063       -0.00000000000000        0.00000000000000
O            1.14387146220063       -0.00000000000000        0.00000000000000
C           -0.00000000000000        0.00000000000000       -0.00000000000000
3
 energy: -10.308452237200 gnorm: 0.000357524805 xtb: 6.7.1 (edcfbbe)
O           -1.14354251473622        0.00000000000000        0.00000000000000
O            1.14354251473622        0.00000000000000        0.00000000000000
C           -0.00000000000000       -0.00000000000000       -0.00000000000000
3
 energy: -10.308452289174 gnorm: 0.000000306459 xtb: 6.7.1 (edcfbbe)
O           -1.14365140482700        0.00000000000000        0.00000000000000
O            1.14365140482700        0.00000000000000        0.00000000000000
C           -0.00000000000000       -0.00000000000000       -0.00000000000000
