8
gallium_arsenide_3d.xyz    Empirical formula: As4Ga4    Energy(Hartree): -16624.992212    
Ga      -2.1187500000   -2.1187500000   -2.1187500000
Ga      -2.1187500000    0.7062500000    0.7062500000
Ga       0.7062500000   -2.1187500000    0.7062500000
Ga       0.7062500000    0.7062500000   -2.1187500000
As      -0.7062500000   -0.7062500000   -0.7062500000
As      -0.7062500000    2.1187500000    2.1187500000
As       2.1187500000   -0.7062500000    2.1187500000
As       2.1187500000    2.1187500000   -0.7062500000
