2
graphite_2d_opt.xyz    Empirical formula: C2    Energy(Hartree): -76.149064    
C       -0.0017240000   -0.7146210000   -0.0000000000
C        0.0017240000    0.7146210000    0.0000000000
