89
RR_T4_from_lowest_opt_c5.xyz    Empirical formula: C34H48Cl2N2O2Ti    Energy(Hartree): -3353.414134    
O       -1.4935510000   -0.9593840000    0.2844870000
O        1.4934870000   -0.9595180000   -0.2829280000
N       -1.2994880000    1.7703040000    0.3438960000
N        1.2993090000    1.7702210000   -0.3435020000
C       -0.5845140000    3.0383150000    0.5073460000
C        0.5843140000    3.0381870000   -0.5072090000
C       -1.4289550000    4.3069090000    0.3910080000
C        1.4287330000    4.3068270000   -0.3912100000
C       -0.5627450000    5.5630310000    0.5167910000
C        0.5624970000    5.5628980000   -0.5173460000
C       -3.0351670000   -3.3431980000   -0.0704030000
C        3.0354140000   -3.3432460000    0.0707770000
C       -7.1531100000   -0.3705870000   -0.0298850000
C        7.1531750000   -0.3704020000    0.0285440000
C       -3.6311130000   -1.9503130000    0.0487490000
C        3.6312230000   -1.9503040000   -0.0483960000
C       -5.6239930000   -0.4818310000    0.0492170000
C        5.6240270000   -0.4817240000   -0.0498270000
C       -2.5840160000    1.6875250000    0.3714350000
C        2.5838400000    1.6874740000   -0.3710170000
C       -3.3803830000    0.4822500000    0.2433560000
C        3.3802710000    0.4822460000   -0.2429560000
C       -5.0080160000   -1.7507910000   -0.0192200000
C        5.0081480000   -1.7507180000    0.0188860000
C       -2.8022490000   -0.8120330000    0.1938880000
C        2.8022190000   -0.8120610000   -0.1930890000
C       -4.7846440000    0.6184170000    0.1811200000
C        4.7845600000    0.6184740000   -0.1813630000
C       -2.2058030000   -3.4895870000   -1.3583770000
C       -2.2343990000   -3.7576150000    1.1749400000
C        2.2060970000   -3.4899610000    1.3587270000
C        2.2346670000   -3.7575150000   -1.1746500000
C       -7.6294700000    1.0867480000    0.0648750000
C       -7.7836610000   -1.1639430000    1.1339420000
C       -7.6382900000   -0.9534260000   -1.3739880000
C        7.6294120000    1.0869630000   -0.0663690000
C        7.7832030000   -1.1636660000   -1.1356280000
C        7.6390420000   -0.9532830000    1.3723810000
H       -0.1297490000    2.9923750000    1.5127010000
H        0.1295220000    2.9919940000   -1.5125440000
H       -2.2068470000    4.3155410000    1.1703250000
H       -1.9465840000    4.3102230000   -0.5847390000
H        2.2066430000    4.3152640000   -1.1705100000
H        1.9463380000    4.3104140000    0.5845480000
H       -1.1906210000    6.4613180000    0.4062500000
H       -0.1277940000    5.6058790000    1.5310630000
H        1.1903520000    6.4612310000   -0.4070600000
H        0.1275440000    5.6054490000   -1.5316300000
H       -3.1759180000    2.6039010000    0.4991450000
H        3.1757090000    2.6038530000   -0.4988570000
H       -5.6347940000   -2.6385460000   -0.1354940000
H        5.6350270000   -2.6384460000    0.1348190000
H       -5.1967010000    1.6266540000    0.2320640000
H        5.1965450000    1.6267270000   -0.2325650000
H       -1.8170730000   -4.5166650000   -1.4496990000
H       -2.8176440000   -3.2736710000   -2.2477990000
H       -1.3529400000   -2.7968580000   -1.3661420000
H       -2.8436700000   -3.6638610000    2.0876070000
H       -1.9130340000   -4.8079520000    1.0862740000
H       -1.3383090000   -3.1345350000    1.2986510000
H        1.3528180000   -2.7977480000    1.3663910000
H        2.8177700000   -3.2735910000    2.2481580000
H        1.8179970000   -4.5172660000    1.4501340000
H        2.8441420000   -3.6641120000   -2.0872140000
H        1.3388510000   -3.1340710000   -1.2985500000
H        1.9128430000   -4.8077090000   -1.0859300000
H       -8.7281210000    1.1244500000    0.0069790000
H       -7.2328030000    1.7002500000   -0.7588420000
H       -7.3311100000    1.5524860000    1.0169460000
H       -8.8831650000   -1.1006970000    1.0924960000
H       -7.4524930000   -0.7642320000    2.1051170000
H       -7.5087640000   -2.2287000000    1.0984120000
H       -7.3602160000   -2.0122570000   -1.4839630000
H       -7.2002920000   -0.4020750000   -2.2205350000
H       -8.7357440000   -0.8860600000   -1.4496250000
H        8.7280860000    1.1247240000   -0.0089660000
H        7.3306040000    1.5527250000   -1.0182880000
H        7.2330750000    1.7004080000    0.7575490000
H        7.5083590000   -2.2284350000   -1.1000260000
H        7.4515560000   -0.7639140000   -2.1066220000
H        8.8827250000   -1.1003830000   -1.0947050000
H        7.3610880000   -2.0121370000    1.4824380000
H        8.7365280000   -0.8858560000    1.4474840000
H        7.2014260000   -0.4020030000    2.2191710000
Ti      -0.0000330000    0.0693160000    0.0005800000
Cl       0.5726000000    0.3669080000    2.2430940000
Cl      -0.5726510000    0.3658350000   -2.2420910000
H       -3.8921010000   -4.0342650000   -0.1516430000
H        3.8924170000   -4.0342420000    0.1518940000
