89
RR_T4_from_lowest_opt_c1.xyz    Empirical formula: C34H48Cl2N2O2Ti    Energy(Hartree): -3353.414134    
O        1.4935130000   -0.9594320000   -0.2840040000
O       -1.4935110000   -0.9594450000    0.2838950000
N        1.2992960000    1.7701860000   -0.3440910000
N       -1.2992840000    1.7701800000    0.3440630000
C        0.5842630000    3.0381660000   -0.5074870000
C       -0.5842470000    3.0381540000    0.5074840000
C        1.4287130000    4.3067900000   -0.3916310000
C       -1.4286920000    4.3067850000    0.3916680000
C        0.5624150000    5.5628750000   -0.5172810000
C       -0.5623880000    5.5628620000    0.5173560000
C        3.0352350000   -3.3431460000    0.0707810000
C       -3.0352530000   -3.3431480000   -0.0707830000
C        7.1530930000   -0.3704310000    0.0292040000
C       -7.1530990000   -0.3704170000   -0.0291250000
C        3.6311430000   -1.9502720000   -0.0486540000
C       -3.6311550000   -1.9502710000    0.0486420000
C        5.6239670000   -0.4817030000   -0.0496350000
C       -5.6239720000   -0.4816940000    0.0496690000
C        2.5838360000    1.6874750000   -0.3716190000
C       -2.5838250000    1.6874730000    0.3715720000
C        3.3802840000    0.4822640000   -0.2434740000
C       -3.3802770000    0.4822640000    0.2434330000
C        5.0080400000   -1.7506930000    0.0190330000
C       -5.0080520000   -1.7506880000   -0.0190040000
C        2.8022020000   -0.8120290000   -0.1937360000
C       -2.8022010000   -0.8120310000    0.1936820000
C        4.7845590000    0.6184960000   -0.1814970000
C       -4.7845540000    0.6185010000    0.1814950000
C        2.2061500000   -3.4894130000    1.3589630000
C        2.2341540000   -3.7577390000   -1.1743140000
C       -2.2061730000   -3.4894360000   -1.3589650000
C       -2.2341630000   -3.7577190000    1.1743140000
C        7.6385260000   -0.9532970000    1.3732050000
C        7.6294110000    1.0869210000   -0.0655970000
C        7.7834560000   -1.1637480000   -1.1347560000
C       -7.7834290000   -1.1637170000    1.1348650000
C       -7.6385750000   -0.9533010000   -1.3731020000
C       -7.6294110000    1.0869380000    0.0656700000
H        0.1291220000    2.9920750000   -1.5126650000
H       -0.1291020000    2.9920340000    1.5126590000
H        2.2063470000    4.3153120000   -1.1712080000
H        1.9466540000    4.3102870000    0.5839470000
H       -2.2063250000    4.3152850000    1.1712460000
H       -1.9466330000    4.3103160000   -0.5839100000
H        1.1903010000    6.4612050000   -0.4071670000
H        0.1270080000    5.6055190000   -1.5313650000
H       -1.1902700000    6.4611990000    0.4072680000
H       -0.1269810000    5.6054750000    1.5314420000
H        3.1756740000    2.6038720000   -0.4994660000
H       -3.1756610000    2.6038720000    0.4994130000
H        5.6348870000   -2.6384060000    0.1352720000
H       -5.6349070000   -2.6384000000   -0.1352110000
H        5.1965460000    1.6267540000   -0.2326230000
H       -5.1965350000    1.6267620000    0.2326260000
H        1.3532740000   -2.7966950000    1.3668290000
H        1.8174780000   -4.5164930000    1.4504780000
H        2.8181690000   -3.2733660000    2.2482350000
H        1.9128310000   -4.8080710000   -1.0854090000
H        1.3380170000   -3.1346950000   -1.2978740000
H        2.8431890000   -3.6641090000   -2.0871510000
H       -1.8175230000   -4.5165250000   -1.4504750000
H       -1.3532830000   -2.7967360000   -1.3668330000
H       -2.8181890000   -3.2733820000   -2.2482360000
H       -2.8432000000   -3.6640950000    2.0871510000
H       -1.3380380000   -3.1346560000    1.2978700000
H       -1.9128190000   -4.8080450000    1.0854150000
H        7.3605180000   -2.0121460000    1.4831900000
H        7.2006530000   -0.4019910000    2.2198470000
H        8.7359910000   -0.8858890000    1.4486490000
H        7.2328490000    1.7003900000    0.7581970000
H        7.3308960000    1.5526740000   -1.0176120000
H        8.7280710000    1.1246430000   -0.0078720000
H        7.4521080000   -0.7640190000   -2.1058620000
H        7.5085790000   -2.2285110000   -1.0991950000
H        8.8829680000   -1.1004830000   -1.0935010000
H       -7.4520490000   -0.7639740000    2.1059550000
H       -8.8829420000   -1.1004490000    1.0936430000
H       -7.5085560000   -2.2284810000    1.0993110000
H       -8.7360430000   -0.8858920000   -1.4485120000
H       -7.2007290000   -0.4020080000   -2.2197670000
H       -7.3605720000   -2.0121520000   -1.4830820000
H       -8.7280720000    1.1246610000    0.0079740000
H       -7.3308680000    1.5527020000    1.0176710000
H       -7.2328700000    1.7003950000   -0.7581420000
Ti      -0.0000000000    0.0692470000   -0.0000470000
Cl      -0.5732390000    0.3662510000   -2.2425240000
Cl       0.5732430000    0.3661730000    2.2424460000
H        3.8921920000   -4.0341970000    0.1518940000
H       -3.8922120000   -4.0341980000   -0.1518800000
