89
RR_T4_from_lowest_opt_c3.xyz    Empirical formula: C34H48Cl2N2O2Ti    Energy(Hartree): -3353.414134    
O        1.4934400000   -0.9594520000   -0.2830140000
O       -1.4935730000   -0.9594100000    0.2848940000
N        1.2992010000    1.7701650000   -0.3436090000
N       -1.2993760000    1.7701770000    0.3445840000
C        0.5841240000    3.0381300000   -0.5070510000
C       -0.5843500000    3.0381490000    0.5079590000
C        1.4285840000    4.3067580000   -0.3912000000
C       -1.4287970000    4.3067710000    0.3921600000
C        0.5623010000    5.5628630000   -0.5167400000
C       -0.5624730000    5.5628230000    0.5179280000
C        3.0352800000   -3.3430690000    0.0718030000
C       -3.0351680000   -3.3431750000   -0.0703560000
C        7.1531540000   -0.3704020000    0.0275530000
C       -7.1530410000   -0.3704630000   -0.0306720000
C        3.6311600000   -1.9502450000   -0.0483000000
C       -3.6311130000   -1.9502850000    0.0487040000
C        5.6239930000   -0.4816930000   -0.0505830000
C       -5.6239440000   -0.4817180000    0.0487850000
C        2.5837170000    1.6874190000   -0.3718330000
C       -2.5839260000    1.6874970000    0.3716600000
C        3.3802340000    0.4822340000   -0.2437510000
C       -3.3803380000    0.4822750000    0.2433900000
C        5.0080930000   -1.7506550000    0.0187320000
C       -5.0079870000   -1.7507090000   -0.0195320000
C        2.8021800000   -0.8120430000   -0.1933740000
C       -2.8022440000   -0.8120270000    0.1940160000
C        4.7845310000    0.6184790000   -0.1824330000
C       -4.7845870000    0.6185020000    0.1808640000
C        2.2067620000   -3.4888980000    1.3604010000
C        2.2336250000   -3.7580130000   -1.1728010000
C       -2.2054280000   -3.4896030000   -1.3580970000
C       -2.2347250000   -3.7576820000    1.1751840000
C        7.6391850000   -0.9528930000    1.3715030000
C        7.6294350000    1.0869220000   -0.0678620000
C        7.7830010000   -1.1640440000   -1.1364650000
C       -7.6294260000    1.0868820000    0.0639060000
C       -7.7838780000   -1.1637620000    1.1330440000
C       -7.6379160000   -0.9533660000   -1.3748600000
H        0.1289690000    2.9920220000   -1.5122240000
H       -0.1291690000    2.9920480000    1.5131190000
H        2.2061560000    4.3153450000   -1.1708360000
H        1.9466050000    4.3101650000    0.5843370000
H       -2.2064580000    4.3152290000    1.1717120000
H       -1.9467080000    4.3103560000   -0.5834360000
H        1.1902150000    6.4611700000   -0.4066080000
H        0.1268570000    5.6055680000   -1.5308080000
H       -1.1903330000    6.4611820000    0.4079110000
H       -0.1270400000    5.6053530000    1.5320060000
H        3.1755060000    2.6037690000   -0.5002540000
H       -3.1757950000    2.6039230000    0.4991590000
H        5.6349850000   -2.6383380000    0.1349570000
H       -5.6347870000   -2.6384320000   -0.1359470000
H        5.1965110000    1.6267130000   -0.2340570000
H       -5.1965980000    1.6267620000    0.2317260000
H        2.8192330000   -3.2727450000    2.2493330000
H        1.3540020000   -2.7960360000    1.3684920000
H        1.8179600000   -4.5158930000    1.4523430000
H        1.3374090000   -3.1350360000   -1.2961150000
H        2.8422260000   -3.6646090000   -2.0859500000
H        1.9123770000   -4.8083310000   -1.0834590000
H       -1.3523890000   -2.7970860000   -1.3654920000
H       -2.8169070000   -3.2733880000   -2.2476970000
H       -1.8169510000   -4.5167740000   -1.4494140000
H       -1.9132190000   -4.8079750000    1.0864620000
H       -2.8442730000   -3.6641260000    2.0876850000
H       -1.3387320000   -3.1345230000    1.2992240000
H        7.3612290000   -2.0117120000    1.4819080000
H        7.2016920000   -0.4013530000    2.2181880000
H        8.7366840000   -0.8854640000    1.4464380000
H        7.2332630000    1.7006160000    0.7559510000
H        7.3304770000    1.5524210000   -1.0198630000
H        8.7281210000    1.1246500000   -0.0106630000
H        7.4512190000   -0.7645910000   -2.1075360000
H        7.5081450000   -2.2287980000   -1.1004820000
H        8.8825310000   -1.1007620000   -1.0957170000
H       -8.7280670000    1.1245730000    0.0058090000
H       -7.3312350000    1.5526800000    1.0160000000
H       -7.2326090000    1.7003270000   -0.7597820000
H       -8.8833730000   -1.1005060000    1.0913290000
H       -7.5089840000   -2.2285240000    1.0976210000
H       -7.4529390000   -0.7640100000    2.1042800000
H       -8.7353520000   -0.8859830000   -1.4507570000
H       -7.1997070000   -0.4020730000   -2.2213360000
H       -7.3598390000   -2.0122120000   -1.4847050000
Ti      -0.0000450000    0.0692200000    0.0008460000
Cl      -0.5732060000    0.3658860000   -2.2417190000
Cl       0.5733300000    0.3666230000    2.2432290000
H        3.8922540000   -4.0341190000    0.1527450000
H       -3.8920990000   -4.0342120000   -0.1518560000
