45
udc3_mCF3_c8_ts_ircr_dias_p14_f1.log    Empirical formula: C20H10F12O3    Energy(Hartree): -2189.629235
O         0.042525       -1.443338        0.141856
O        -1.283217       -3.272617       -0.020593
O         1.284319       -3.106532        1.042337
C        -1.154045       -2.085214        0.019784
C         1.228211       -2.083643        0.432838
C         2.382917       -1.275418       -0.036757
C         2.224765       -0.236533       -0.954831
C         3.648364       -1.583688        0.459801
C         3.327979        0.510935       -1.344893
H         1.239935       -0.026697       -1.370006
C         4.744829       -0.814872        0.082289
H         3.763439       -2.419525        1.150017
C         4.596925        0.252949       -0.818146
H         3.205617        1.327452       -2.057458
C        -2.259603       -1.094110       -0.123274
C        -3.549087       -1.568821       -0.374364
C        -2.031790        0.279619       -0.012529
C        -4.605705       -0.672128       -0.499713
H        -3.715496       -2.643271       -0.466225
C        -3.092443        1.167622       -0.142085
H        -1.025814        0.649041        0.182905
C        -4.392579        0.712172       -0.378739
H        -2.915754        2.239426       -0.044713
C        -5.509851        1.726577       -0.450642
H        -5.204831        2.580121       -1.071862
H        -6.432573        1.319023       -0.875949
C        -5.854376        2.289195        0.913968
C         5.732528        1.176942       -1.187304
H         6.717080        0.774068       -0.928942
H         5.726214        1.380995       -2.266949
C         5.594680        2.515704       -0.490736
F        -4.825079        2.965628        1.438224
F        -6.182964        1.335429        1.778922
F        -6.879552        3.134946        0.823670
F         6.653801        3.286144       -0.733141
F         4.513651        3.179634       -0.919842
F         5.477666        2.381247        0.827020
C         6.102314       -1.142620        0.656576
C        -5.996162       -1.202102       -0.765783
F         6.616911       -0.104076        1.320883
F         6.051820       -2.170986        1.497686
F         6.978288       -1.456046       -0.305689
F        -6.852733       -0.815459        0.183141
F        -6.477321       -0.744511       -1.927146
F        -6.022717       -2.529299       -0.813993
