90
udc3_mCF3_c8_ts_ircr_dias_p14.log    Empirical formula: C20H10F12O3    Energy(Hartree): -4379.2871
O        -0.227657        1.518181       -0.762760
O         0.441792       -0.645505       -0.739543
O        -2.155885        0.342460       -0.899663
C         0.673387        0.510088       -0.937553
C        -1.570486        1.312223       -0.528445
O        -1.474231       -1.539072        1.542978
O        -0.677030        0.556174        1.831295
O        -3.373693       -0.353470        1.905359
C        -0.528219       -0.629687        1.881844
C        -2.801572       -1.207111        1.309686
C        -3.385272       -2.144462        0.313653
C        -2.583870       -2.749987       -0.656592
C        -4.752397       -2.407518        0.363296
C        -3.151600       -3.651580       -1.549961
H        -1.526346       -2.491512       -0.722853
C        -5.306704       -3.328977       -0.519516
H        -5.366384       -1.902197        1.110316
C        -4.517768       -3.976337       -1.474390
H        -6.369430       -3.567741       -0.459300
C        -2.164906        2.491185        0.152590
C        -1.370632        3.456084        0.773279
C        -3.553342        2.613769        0.165882
C        -1.967770        4.556395        1.373846
H        -0.288548        3.333918        0.794733
C        -4.142737        3.731143        0.748906
H        -4.163736        1.835667       -0.292638
C        -3.355230        4.725822        1.351687
H        -1.348546        5.314983        1.853978
C         0.754466       -1.295649        2.239701
C         1.920938       -0.548665        2.078152
C         0.824461       -2.616766        2.674977
C         3.157586       -1.124969        2.332809
H         1.850525        0.480460        1.724295
C         2.064213       -3.171150        2.981955
H        -0.087912       -3.204580        2.776081
C         3.245550       -2.444916        2.810931
H         2.122291       -4.194751        3.354727
C         1.997360        1.065165       -1.342523
C         3.078492        0.188148       -1.457233
C         2.172753        2.425930       -1.604917
C         4.324316        0.670713       -1.846163
H         2.932920       -0.871844       -1.243227
C         3.421044        2.899168       -1.989798
H         1.329208        3.109286       -1.514852
C         4.512012        2.035818       -2.124740
H         3.554746        3.959949       -2.205041
C         5.826938        2.605166       -2.603585
H         6.048350        3.541249       -2.072346
H         6.671101        1.926171       -2.446248
C         5.793788        2.946086       -4.080092
C        -5.146652       -5.048190       -2.332192
H        -6.148181       -4.739746       -2.661980
H        -4.557881       -5.283412       -3.225014
C        -5.326553       -6.337734       -1.555740
C        -3.935038        6.001735        1.913383
H        -5.017236        5.950633        2.070346
H        -3.467200        6.244419        2.877511
C        -3.666547        7.174606        0.992091
C         4.556384       -3.082563        3.202192
H         4.571238       -4.140899        2.908530
H         5.423570       -2.595224        2.743060
C         4.756799       -3.047637        4.704699
F         3.821944       -3.767813        5.334520
F         4.694656       -1.810007        5.187556
F         5.942351       -3.557733        5.033026
F         4.900883        3.908955       -4.339827
F         5.472282        1.895836       -4.828018
F         6.983568        3.389997       -4.482335
F        -6.198443       -6.182767       -0.552456
F        -4.185569       -6.766568       -1.023908
F        -5.797518       -7.301769       -2.346044
F        -4.272782        8.273926        1.437123
F        -2.357195        7.445641        0.916627
F        -4.093346        6.942835       -0.245801
C        -5.646698        3.863335        0.724070
C        -2.279542       -4.262827       -2.622085
C         4.402882       -0.337812        2.002142
C         5.482886       -0.292170       -1.971096
F        -6.029970        4.981279        0.101182
F        -6.226087        2.840196        0.103547
F        -6.153742        3.919231        1.961528
F        -2.737485       -3.964827       -3.845202
F        -1.025903       -3.828370       -2.552132
F        -2.248089       -5.595614       -2.539936
F         4.116215        0.889582        1.569636
F         5.093667       -0.946007        1.026676
F         5.225709       -0.216120        3.042132
F         6.000041       -0.272082       -3.202278
F         6.474713        0.028557       -1.132597
F         5.121740       -1.543046       -1.707725
