45
udc3_mCF3_c8_ts_ircr_dias_p14_f2.log    Empirical formula: C20H10F12O3    Energy(Hartree): -2189.626315
O         0.254152        1.654390       -0.868703
O        -1.183237        3.338529       -0.414502
O         1.285717        3.431698       -1.828897
C        -0.966173        2.175898       -0.593774
C         1.358170        2.429524       -1.195455
C         2.599914        1.752455       -0.736039
C         2.584774        0.900951        0.370755
C         3.785079        1.985279       -1.430207
C         3.753662        0.252154        0.752930
H         1.664349        0.772254        0.941554
C         4.943979        1.313212       -1.054739
H         3.782231        2.676444       -2.274394
C         4.944668        0.426950        0.025917
H         5.865517        1.462170       -1.619187
C        -1.989970        1.104043       -0.453003
C        -3.104957        1.394358        0.332656
C        -1.848904       -0.156237       -1.028773
C        -4.069315        0.422229        0.559044
H        -3.194721        2.381605        0.787143
C        -2.847371       -1.108731       -0.843356
H        -0.963730       -0.386729       -1.621658
C        -3.963762       -0.843093       -0.046280
H        -2.758099       -2.086412       -1.319026
C         6.199377       -0.359754        0.320857
H         7.087565        0.278841        0.219475
H         6.209335       -0.789645        1.327935
C         6.375080       -1.501645       -0.660660
C        -5.035319       -1.898168        0.082354
H        -4.583548       -2.895689        0.168299
H        -5.682523       -1.747266        0.953370
C        -5.924233       -1.930147       -1.145539
F        -5.230740       -2.274786       -2.236214
F        -6.481755       -0.747433       -1.388639
F        -6.901696       -2.822093       -0.995441
F         6.570938       -1.047313       -1.904045
F         5.312908       -2.301116       -0.695703
F         7.434389       -2.242450       -0.336893
C         3.730315       -0.629842        1.979754
C        -5.181430        0.721929        1.535311
F         4.597019       -0.194782        2.903916
F         2.529459       -0.661927        2.547357
F         4.074297       -1.888846        1.695777
F        -5.116280        1.970356        1.996745
F        -5.102004       -0.093337        2.597220
F        -6.391082        0.551428        1.005118
