 Entering Gaussian System, Link 0=/project/xlzhang/shared/bin/g16/g16
 Input=/users/s1155246976/scratch/5PQ_Me_ts1_no_pd_opt/5PQ_Me_ts1_no_pd_opt.com
 Output=/users/s1155246976/scratch/5PQ_Me_ts1_no_pd_opt/5PQ_Me_ts1_no_pd_opt.log
 Initial command:
 /project/xlzhang/shared/bin/g16/l1.exe "/lustre/scratch/xlzhang/jingyi/5PQ_Me_ts1_no_pd_opt/Gau-1168779.inp" -scrdir="/lustre/scratch/xlzhang/jingyi/5PQ_Me_ts1_no_pd_opt/"
 Entering Link 1 = /project/xlzhang/shared/bin/g16/l1.exe PID=   1168780.
  
 Copyright (c) 1988-2017, Gaussian, Inc.  All Rights Reserved.
  
 This is part of the Gaussian(R) 16 program.  It is based on
 the Gaussian(R) 09 system (copyright 2009, Gaussian, Inc.),
 the Gaussian(R) 03 system (copyright 2003, Gaussian, Inc.),
 the Gaussian(R) 98 system (copyright 1998, Gaussian, Inc.),
 the Gaussian(R) 94 system (copyright 1995, Gaussian, Inc.),
 the Gaussian 92(TM) system (copyright 1992, Gaussian, Inc.),
 the Gaussian 90(TM) system (copyright 1990, Gaussian, Inc.),
 the Gaussian 88(TM) system (copyright 1988, Gaussian, Inc.),
 the Gaussian 86(TM) system (copyright 1986, Carnegie Mellon
 University), and the Gaussian 82(TM) system (copyright 1983,
 Carnegie Mellon University). Gaussian is a federally registered
 trademark of Gaussian, Inc.
  
 This software contains proprietary and confidential information,
 including trade secrets, belonging to Gaussian, Inc.
  
 This software is provided under written license and may be
 used, copied, transmitted, or stored only in accord with that
 written license.
  
 The following legend is applicable only to US Government
 contracts under FAR:
  
                    RESTRICTED RIGHTS LEGEND
  
 Use, reproduction and disclosure by the US Government is
 subject to restrictions as set forth in subparagraphs (a)
 and (c) of the Commercial Computer Software - Restricted
 Rights clause in FAR 52.227-19.
  
 Gaussian, Inc.
 340 Quinnipiac St., Bldg. 40, Wallingford CT 06492
  
  
 ---------------------------------------------------------------
 Warning -- This program may not be used in any manner that
 competes with the business of Gaussian, Inc. or will provide
 assistance to any competitor of Gaussian, Inc.  The licensee
 of this program is prohibited from giving any competitor of
 Gaussian, Inc. access to this program.  By using this program,
 the user acknowledges that Gaussian, Inc. is engaged in the
 business of creating and licensing software in the field of
 computational chemistry and represents and warrants to the
 licensee that it is not a competitor of Gaussian, Inc. and that
 it will not use this program in any manner prohibited above.
 ---------------------------------------------------------------
  

 Cite this work as:
 Gaussian 16, Revision B.01,
 M. J. Frisch, G. W. Trucks, H. B. Schlegel, G. E. Scuseria, 
 M. A. Robb, J. R. Cheeseman, G. Scalmani, V. Barone, 
 G. A. Petersson, H. Nakatsuji, X. Li, M. Caricato, A. V. Marenich, 
 J. Bloino, B. G. Janesko, R. Gomperts, B. Mennucci, H. P. Hratchian, 
 J. V. Ortiz, A. F. Izmaylov, J. L. Sonnenberg, D. Williams-Young, 
 F. Ding, F. Lipparini, F. Egidi, J. Goings, B. Peng, A. Petrone, 
 T. Henderson, D. Ranasinghe, V. G. Zakrzewski, J. Gao, N. Rega, 
 G. Zheng, W. Liang, M. Hada, M. Ehara, K. Toyota, R. Fukuda, 
 J. Hasegawa, M. Ishida, T. Nakajima, Y. Honda, O. Kitao, H. Nakai, 
 T. Vreven, K. Throssell, J. A. Montgomery, Jr., J. E. Peralta, 
 F. Ogliaro, M. J. Bearpark, J. J. Heyd, E. N. Brothers, K. N. Kudin, 
 V. N. Staroverov, T. A. Keith, R. Kobayashi, J. Normand, 
 K. Raghavachari, A. P. Rendell, J. C. Burant, S. S. Iyengar, 
 J. Tomasi, M. Cossi, J. M. Millam, M. Klene, C. Adamo, R. Cammi, 
 J. W. Ochterski, R. L. Martin, K. Morokuma, O. Farkas, 
 J. B. Foresman, and D. J. Fox, Gaussian, Inc., Wallingford CT, 2016.
 
 ******************************************
 Gaussian 16:  ES64L-G16RevB.01 20-Dec-2017
                 2-Jan-2026 
 ******************************************
 %chk=5PQ_Me_ts1_no_pd_opt.chk
 %nprocshared=64
 Will use up to   64 processors via shared memory.
 %mem=180GB
 -----------------------
 # opt freq mn15 def2svp
 -----------------------
 1/18=20,19=15,26=3,38=1/1,3;
 2/9=110,12=2,17=6,18=5,40=1/2;
 3/5=43,7=101,11=2,25=1,30=1,71=1,74=-73/1,2,3;
 4//1;
 5/5=2,38=5/2;
 6/7=2,8=2,9=2,10=2,28=1/1;
 7//1,2,3,16;
 1/18=20,19=15,26=3/3(2);
 2/9=110/2;
 99//99;
 2/9=110/2;
 3/5=43,7=101,11=2,25=1,30=1,71=1,74=-73/1,2,3;
 4/5=5,16=3,69=1/1;
 5/5=2,38=5/2;
 7//1,2,3,16;
 1/18=20,19=15,26=3/3(-5);
 2/9=110/2;
 6/7=2,8=2,9=2,10=2,19=2,28=1/1;
 99/9=1/99;
 ----------------------------------
 Gaussian job with default settings
 ----------------------------------
 Symbolic Z-matrix:
 Charge = -1 Multiplicity = 1
 O                    -0.99602   2.33309   0.83838 
 C                    -0.20129   3.35839   0.83642 
 C                     1.1895    3.15575   1.39823 
 O                    -0.56384   4.45309   0.41554 
 H                     1.87355   3.84068   0.87657 
 H                     1.17156   3.47067   2.45549 
 C                     3.14191   1.48047   1.61528 
 C                     3.71195   0.262     0.89236 
 H                     3.72102   2.37221   1.32881 
 H                     3.25632   1.36541   2.70031 
 H                     4.47454  -0.18569   1.4948 
 H                     2.93056  -0.44839   0.7201 
 C                     1.67506   1.72898   1.26246 
 H                     1.17157   1.05589   2.05775 
 H                     1.51188   1.39167   0.22758 
 H                     4.13015   0.56635  -0.04432 
 

 GradGradGradGradGradGradGradGradGradGradGradGradGradGradGradGradGradGrad
 Berny optimization.
 Initialization pass.
                           ----------------------------
                           !    Initial Parameters    !
                           ! (Angstroms and Degrees)  !
 --------------------------                            --------------------------
 ! Name  Definition              Value          Derivative Info.                !
 --------------------------------------------------------------------------------
 ! R1    R(1,2)                  1.2972         estimate D2E/DX2                !
 ! R2    R(2,3)                  1.5136         estimate D2E/DX2                !
 ! R3    R(2,4)                  1.2276         estimate D2E/DX2                !
 ! R4    R(3,5)                  1.0996         estimate D2E/DX2                !
 ! R5    R(3,6)                  1.1033         estimate D2E/DX2                !
 ! R6    R(3,13)                 1.5132         estimate D2E/DX2                !
 ! R7    R(7,8)                  1.5272         estimate D2E/DX2                !
 ! R8    R(7,9)                  1.1012         estimate D2E/DX2                !
 ! R9    R(7,10)                 1.0971         estimate D2E/DX2                !
 ! R10   R(7,13)                 1.529          estimate D2E/DX2                !
 ! R11   R(8,11)                 1.07           estimate D2E/DX2                !
 ! R12   R(8,12)                 1.07           estimate D2E/DX2                !
 ! R13   R(8,16)                 1.07           estimate D2E/DX2                !
 ! R14   R(13,14)                1.1572         estimate D2E/DX2                !
 ! R15   R(13,15)                1.1006         estimate D2E/DX2                !
 ! A1    A(1,2,3)              117.165          estimate D2E/DX2                !
 ! A2    A(1,2,4)              121.6276         estimate D2E/DX2                !
 ! A3    A(3,2,4)              121.1993         estimate D2E/DX2                !
 ! A4    A(2,3,5)              108.1876         estimate D2E/DX2                !
 ! A5    A(2,3,6)              107.6095         estimate D2E/DX2                !
 ! A6    A(2,3,13)             112.815          estimate D2E/DX2                !
 ! A7    A(5,3,6)              106.6743         estimate D2E/DX2                !
 ! A8    A(5,3,13)             110.1887         estimate D2E/DX2                !
 ! A9    A(6,3,13)             111.1195         estimate D2E/DX2                !
 ! A10   A(8,7,9)              109.0661         estimate D2E/DX2                !
 ! A11   A(8,7,10)             110.2161         estimate D2E/DX2                !
 ! A12   A(8,7,13)             112.2432         estimate D2E/DX2                !
 ! A13   A(9,7,10)             106.7007         estimate D2E/DX2                !
 ! A14   A(9,7,13)             108.232          estimate D2E/DX2                !
 ! A15   A(10,7,13)            110.2004         estimate D2E/DX2                !
 ! A16   A(7,8,11)             109.4712         estimate D2E/DX2                !
 ! A17   A(7,8,12)             109.4712         estimate D2E/DX2                !
 ! A18   A(7,8,16)             109.4712         estimate D2E/DX2                !
 ! A19   A(11,8,12)            109.4712         estimate D2E/DX2                !
 ! A20   A(11,8,16)            109.4712         estimate D2E/DX2                !
 ! A21   A(12,8,16)            109.4712         estimate D2E/DX2                !
 ! A22   A(3,13,7)             116.1272         estimate D2E/DX2                !
 ! A23   A(3,13,14)            110.3138         estimate D2E/DX2                !
 ! A24   A(3,13,15)            109.011          estimate D2E/DX2                !
 ! A25   A(7,13,14)             99.4559         estimate D2E/DX2                !
 ! A26   A(7,13,15)            108.0222         estimate D2E/DX2                !
 ! A27   A(14,13,15)           113.7936         estimate D2E/DX2                !
 ! D1    D(1,2,3,5)            149.9469         estimate D2E/DX2                !
 ! D2    D(1,2,3,6)            -95.146          estimate D2E/DX2                !
 ! D3    D(1,2,3,13)            27.7856         estimate D2E/DX2                !
 ! D4    D(4,2,3,5)            -31.0687         estimate D2E/DX2                !
 ! D5    D(4,2,3,6)             83.8384         estimate D2E/DX2                !
 ! D6    D(4,2,3,13)          -153.23           estimate D2E/DX2                !
 ! D7    D(2,3,13,7)           171.3472         estimate D2E/DX2                !
 ! D8    D(2,3,13,14)          -76.524          estimate D2E/DX2                !
 ! D9    D(2,3,13,15)           49.107          estimate D2E/DX2                !
 ! D10   D(5,3,13,7)            50.3182         estimate D2E/DX2                !
 ! D11   D(5,3,13,14)          162.4471         estimate D2E/DX2                !
 ! D12   D(5,3,13,15)          -71.922          estimate D2E/DX2                !
 ! D13   D(6,3,13,7)           -67.7003         estimate D2E/DX2                !
 ! D14   D(6,3,13,14)           44.4285         estimate D2E/DX2                !
 ! D15   D(6,3,13,15)          170.0595         estimate D2E/DX2                !
 ! D16   D(9,7,8,11)            90.1025         estimate D2E/DX2                !
 ! D17   D(9,7,8,12)          -149.8975         estimate D2E/DX2                !
 ! D18   D(9,7,8,16)           -29.8975         estimate D2E/DX2                !
 ! D19   D(10,7,8,11)          -26.7237         estimate D2E/DX2                !
 ! D20   D(10,7,8,12)           93.2763         estimate D2E/DX2                !
 ! D21   D(10,7,8,16)         -146.7237         estimate D2E/DX2                !
 ! D22   D(13,7,8,11)         -149.9646         estimate D2E/DX2                !
 ! D23   D(13,7,8,12)          -29.9646         estimate D2E/DX2                !
 ! D24   D(13,7,8,16)           90.0354         estimate D2E/DX2                !
 ! D25   D(8,7,13,3)          -154.145          estimate D2E/DX2                !
 ! D26   D(8,7,13,14)           87.5809         estimate D2E/DX2                !
 ! D27   D(8,7,13,15)          -31.3851         estimate D2E/DX2                !
 ! D28   D(9,7,13,3)           -33.728          estimate D2E/DX2                !
 ! D29   D(9,7,13,14)         -152.002          estimate D2E/DX2                !
 ! D30   D(9,7,13,15)           89.032          estimate D2E/DX2                !
 ! D31   D(10,7,13,3)           82.6053         estimate D2E/DX2                !
 ! D32   D(10,7,13,14)         -35.6688         estimate D2E/DX2                !
 ! D33   D(10,7,13,15)        -154.6348         estimate D2E/DX2                !
 --------------------------------------------------------------------------------
 Trust Radius=3.00D-01 FncErr=1.00D-07 GrdErr=1.00D-06 EigMax=2.50D+02 EigMin=1.00D-04
 Number of steps in this run=     85 maximum allowed number of steps=    100.
 GradGradGradGradGradGradGradGradGradGradGradGradGradGradGradGradGradGrad

                          Input orientation:                          
 ---------------------------------------------------------------------
 Center     Atomic      Atomic             Coordinates (Angstroms)
 Number     Number       Type             X           Y           Z
 ---------------------------------------------------------------------
      1          8           0       -0.996019    2.333086    0.838376
      2          6           0       -0.201285    3.358385    0.836417
      3          6           0        1.189503    3.155754    1.398230
      4          8           0       -0.563839    4.453091    0.415535
      5          1           0        1.873550    3.840676    0.876571
      6          1           0        1.171558    3.470670    2.455491
      7          6           0        3.141909    1.480468    1.615283
      8          6           0        3.711951    0.261997    0.892364
      9          1           0        3.721020    2.372208    1.328809
     10          1           0        3.256322    1.365407    2.700312
     11          1           0        4.474544   -0.185689    1.494801
     12          1           0        2.930556   -0.448389    0.720102
     13          6           0        1.675055    1.728980    1.262462
     14          1           0        1.171568    1.055892    2.057747
     15          1           0        1.511877    1.391668    0.227576
     16          1           0        4.130150    0.566353   -0.044320
 ---------------------------------------------------------------------
                    Distance matrix (angstroms):
                    1          2          3          4          5
     1  O    0.000000
     2  C    1.297245   0.000000
     3  C    2.401401   1.513600   0.000000
     4  O    2.204540   1.227586   2.392275   0.000000
     5  H    3.241714   2.130530   1.099621   2.555087   0.000000
     6  H    2.933862   2.125725   1.103311   2.852749   1.767112
     7  C    4.295694   3.912819   2.581779   4.899842   2.779391
     8  C    5.143667   4.990407   3.872012   6.006248   4.023296
     9  H    4.742627   4.074245   2.650913   4.850171   2.402928
    10  H    4.741900   4.404669   3.028614   5.417345   3.371208
    11  H    6.058232   5.904007   4.686796   6.933137   4.833114
    12  H    4.813376   4.930871   4.059676   6.027277   4.420161
    13  C    2.771178   2.521334   1.513234   3.626391   2.155823
    14  H    2.795805   2.945818   2.201069   4.153247   3.105314
    15  H    2.747524   2.678355   2.141578   3.703544   2.559227
    16  H    5.493460   5.228046   4.175327   6.111606   4.081847
                    6          7          8          9         10
     6  H    0.000000
     7  C    2.923891   0.000000
     8  C    4.380930   1.527164   0.000000
     9  H    2.995962   1.101198   2.154891   0.000000
    10  H    2.972930   1.097095   2.166515   1.763693   0.000000
    11  H    5.020119   2.136939   1.070000   2.671738   2.311540
    12  H    4.632998   2.136939   1.070000   2.991843   2.705035
    13  C    2.170325   1.529020   2.537313   2.145721   2.167949
    14  H    2.447315   2.063561   2.905500   2.960362   2.203381
    15  H    3.066215   2.142573   2.560942   2.656028   3.026252
    16  H    4.841217   2.136939   1.070000   2.305208   2.989158
                   11         12         13         14         15
    11  H    0.000000
    12  H    1.747303   0.000000
    13  C    3.399570   2.571259   0.000000
    14  H    3.573245   2.673237   1.157162   0.000000
    15  H    3.587660   2.375088   1.100634   1.891582   0.000000
    16  H    1.747303   1.747303   3.014444   3.662177   2.758700
                   16
    16  H    0.000000
 Stoichiometry    C5H9O2(1-)
 Framework group  C1[X(C5H9O2)]
 Deg. of freedom    42
 Full point group                 C1      NOp   1
 Largest Abelian subgroup         C1      NOp   1
 Largest concise Abelian subgroup C1      NOp   1
                         Standard orientation:                         
 ---------------------------------------------------------------------
 Center     Atomic      Atomic             Coordinates (Angstroms)
 Number     Number       Type             X           Y           Z
 ---------------------------------------------------------------------
      1          8           0        1.846106    1.287700    0.183431
      2          6           0        1.798515    0.009825   -0.034775
      3          6           0        0.500365   -0.698448    0.287935
      4          8           0        2.768720   -0.606106   -0.466398
      5          1           0        0.396889   -1.553660   -0.395491
      6          1           0        0.591622   -1.115462    1.305317
      7          6           0       -2.071440   -0.471756    0.284102
      8          6           0       -3.166593    0.313692   -0.434188
      9          1           0       -1.993684   -1.473953   -0.165555
     10          1           0       -2.339360   -0.618870    1.337759
     11          1           0       -4.103102    0.150554    0.056971
     12          1           0       -2.929678    1.356918   -0.412954
     13          6           0       -0.706120    0.208107    0.176450
     14          1           0       -0.769158    0.907847    1.095915
     15          1           0       -0.666185    0.741421   -0.785516
     16          1           0       -3.234314   -0.016075   -1.449849
 ---------------------------------------------------------------------
 Rotational constants (GHZ):           7.3725547           1.1029839           1.0230347
 Standard basis: def2SVP (5D, 7F)
 There are   150 symmetry adapted cartesian basis functions of A   symmetry.
 There are   143 symmetry adapted basis functions of A   symmetry.
   143 basis functions,   238 primitive gaussians,   150 cartesian basis functions
    28 alpha electrons       28 beta electrons
       nuclear repulsion energy       292.9423544924 Hartrees.
 NAtoms=   16 NActive=   16 NUniq=   16 SFac= 1.00D+00 NAtFMM=   60 NAOKFM=F Big=F
 Integral buffers will be    131072 words long.
 Raffenetti 2 integral format.
 Two-electron integral symmetry is turned on.
 One-electron integrals computed using PRISM.
   1 Symmetry operations used in ECPInt.
 ECPInt:  NShTT=    2415 NPrTT=    8503 LenC2=    2366 LenP2D=    6781.
 LDataN:  DoStor=T MaxTD1= 4 Len=   56
 NBasis=   143 RedAO= T EigKep=  1.21D-03  NBF=   143
 NBsUse=   143 1.00D-06 EigRej= -1.00D+00 NBFU=   143
 ExpMin= 1.22D-01 ExpMax= 2.27D+03 ExpMxC= 3.41D+02 IAcc=3 IRadAn=         5 AccDes= 0.00D+00
 Harris functional with IExCor= 1009 and IRadAn=       5 diagonalized for initial guess.
 HarFok:  IExCor= 1009 AccDes= 0.00D+00 IRadAn=         5 IDoV= 1 UseB2=F ITyADJ=14
 ICtDFT=  3500011 ScaDFX=  1.000000  1.000000  1.000000  1.000000
 FoFCou: FMM=F IPFlag=           0 FMFlag=      100000 FMFlg1=           0
         NFxFlg=           0 DoJE=T BraDBF=F KetDBF=T FulRan=T
         wScrn=  0.000000 ICntrl=       500 IOpCl=  0 I1Cent=   200000004 NGrid=           0
         NMat0=    1 NMatS0=      1 NMatT0=    0 NMatD0=    1 NMtDS0=    0 NMtDT0=    0
 Petite list used in FoFCou.
 Requested convergence on RMS density matrix=1.00D-08 within 128 cycles.
 Requested convergence on MAX density matrix=1.00D-06.
 Requested convergence on             energy=1.00D-06.
 No special actions if energy rises.
 Integral accuracy reduced to 1.0D-05 until final iterations.
 Initial convergence to 1.0D-05 achieved.  Increase integral accuracy.
 SCF Done:  E(RMN15) =  -345.718448316     A.U. after   15 cycles
            NFock= 15  Conv=0.37D-08     -V/T= 2.0106

 **********************************************************************

            Population analysis using the SCF Density.

 **********************************************************************

 Orbital symmetries:
       Occupied  (A) (A) (A) (A) (A) (A) (A) (A) (A) (A) (A) (A)
                 (A) (A) (A) (A) (A) (A) (A) (A) (A) (A) (A) (A)
                 (A) (A) (A) (A)
       Virtual   (A) (A) (A) (A) (A) (A) (A) (A) (A) (A) (A) (A)
                 (A) (A) (A) (A) (A) (A) (A) (A) (A) (A) (A) (A)
                 (A) (A) (A) (A) (A) (A) (A) (A) (A) (A) (A) (A)
                 (A) (A) (A) (A) (A) (A) (A) (A) (A) (A) (A) (A)
                 (A) (A) (A) (A) (A) (A) (A) (A) (A) (A) (A) (A)
                 (A) (A) (A) (A) (A) (A) (A) (A) (A) (A) (A) (A)
                 (A) (A) (A) (A) (A) (A) (A) (A) (A) (A) (A) (A)
                 (A) (A) (A) (A) (A) (A) (A) (A) (A) (A) (A) (A)
                 (A) (A) (A) (A) (A) (A) (A) (A) (A) (A) (A) (A)
                 (A) (A) (A) (A) (A) (A) (A)
 The electronic state is 1-A.
 Alpha  occ. eigenvalues --  -18.52022 -18.50678  -9.92524  -9.91734  -9.90904
 Alpha  occ. eigenvalues --   -9.89761  -9.86899  -0.81940  -0.71156  -0.70050
 Alpha  occ. eigenvalues --   -0.62324  -0.53646  -0.46829  -0.38732  -0.35165
 Alpha  occ. eigenvalues --   -0.34287  -0.32491  -0.28793  -0.26732  -0.25758
 Alpha  occ. eigenvalues --   -0.23822  -0.22475  -0.21046  -0.18962  -0.17962
 Alpha  occ. eigenvalues --   -0.06037  -0.04822  -0.03322
 Alpha virt. eigenvalues --    0.21233   0.24658   0.25157   0.26821   0.29627
 Alpha virt. eigenvalues --    0.29783   0.30737   0.31469   0.34508   0.35867
 Alpha virt. eigenvalues --    0.39239   0.41269   0.45053   0.47840   0.52999
 Alpha virt. eigenvalues --    0.56771   0.58212   0.61987   0.62799   0.65064
 Alpha virt. eigenvalues --    0.66106   0.73778   0.74417   0.77719   0.79259
 Alpha virt. eigenvalues --    0.80386   0.80618   0.82482   0.83232   0.83663
 Alpha virt. eigenvalues --    0.84062   0.84541   0.85854   0.86204   0.87009
 Alpha virt. eigenvalues --    0.88407   0.88737   0.90333   0.92545   0.95881
 Alpha virt. eigenvalues --    0.98822   1.03484   1.07900   1.13703   1.17897
 Alpha virt. eigenvalues --    1.20646   1.25558   1.28199   1.31723   1.37636
 Alpha virt. eigenvalues --    1.40580   1.43616   1.48340   1.50937   1.52324
 Alpha virt. eigenvalues --    1.55664   1.58603   1.67042   1.68880   1.70839
 Alpha virt. eigenvalues --    1.79419   1.83493   1.84841   1.85730   1.88773
 Alpha virt. eigenvalues --    1.89934   1.91282   1.92398   1.92864   1.94371
 Alpha virt. eigenvalues --    1.95221   1.97512   1.98585   2.01603   2.03287
 Alpha virt. eigenvalues --    2.09127   2.10902   2.11966   2.15739   2.19404
 Alpha virt. eigenvalues --    2.23393   2.28554   2.30485   2.34925   2.38957
 Alpha virt. eigenvalues --    2.40276   2.45057   2.49015   2.50414   2.51875
 Alpha virt. eigenvalues --    2.58416   2.61222   2.67055   2.69970   2.74556
 Alpha virt. eigenvalues --    2.75113   2.87787   2.90986   2.94179   2.94671
 Alpha virt. eigenvalues --    2.95672   2.96217   2.97722   3.01675   3.03039
 Alpha virt. eigenvalues --    3.04923   3.09252   3.12385   3.14220   3.26241
 Alpha virt. eigenvalues --    3.32340   3.43922   3.60908   3.81532   3.86195
          Condensed to atoms (all electrons):
               1          2          3          4          5          6
     1  O    8.068827   0.651876  -0.210609  -0.110747   0.007666   0.001471
     2  C    0.651876   4.609445  -0.040855   0.712710   0.030522   0.023781
     3  C   -0.210609  -0.040855   5.774209  -0.171998   0.250116   0.263520
     4  O   -0.110747   0.712710  -0.171998   7.912113   0.017302   0.004189
     5  H    0.007666   0.030522   0.250116   0.017302   0.803099  -0.022713
     6  H    0.001471   0.023781   0.263520   0.004189  -0.022713   0.765249
     7  C    0.002010   0.011055  -0.046851  -0.000107  -0.009975  -0.009853
     8  C   -0.000002  -0.000105   0.004885   0.000002   0.000431   0.000540
     9  H   -0.000030  -0.000060  -0.005964  -0.000043   0.011402  -0.002246
    10  H   -0.000033   0.000063  -0.004645   0.000005  -0.001090   0.005217
    11  H    0.000000   0.000014  -0.000444  -0.000000  -0.000027   0.000029
    12  H   -0.000029  -0.000132   0.001298  -0.000001   0.000157  -0.000083
    13  C    0.038080   0.026537   0.155767   0.006277  -0.032788   0.014537
    14  H    0.011155  -0.007247   0.018838   0.000180   0.010741  -0.018336
    15  H    0.006034   0.003672  -0.045148   0.000493  -0.008744   0.010278
    16  H   -0.000002  -0.000031   0.000094   0.000000   0.000004   0.000010
               7          8          9         10         11         12
     1  O    0.002010  -0.000002  -0.000030  -0.000033   0.000000  -0.000029
     2  C    0.011055  -0.000105  -0.000060   0.000063   0.000014  -0.000132
     3  C   -0.046851   0.004885  -0.005964  -0.004645  -0.000444   0.001298
     4  O   -0.000107   0.000002  -0.000043   0.000005  -0.000000  -0.000001
     5  H   -0.009975   0.000431   0.011402  -0.001090  -0.000027   0.000157
     6  H   -0.009853   0.000540  -0.002246   0.005217   0.000029  -0.000083
     7  C    4.841436   0.409248   0.337733   0.323459  -0.002984  -0.028342
     8  C    0.409248   4.499716  -0.024067  -0.019522   0.354733   0.385549
     9  H    0.337733  -0.024067   0.785089  -0.034567   0.000462   0.010487
    10  H    0.323459  -0.019522  -0.034567   0.779038  -0.017103  -0.002338
    11  H   -0.002984   0.354733   0.000462  -0.017103   0.739240  -0.022564
    12  H   -0.028342   0.385549   0.010487  -0.002338  -0.022564   0.685176
    13  C    0.278663  -0.033948  -0.027002   0.010354   0.005695  -0.008635
    14  H   -0.005556  -0.009056   0.012094  -0.026215  -0.000432   0.008463
    15  H   -0.063269  -0.001471  -0.003852   0.009895   0.000540  -0.000467
    16  H   -0.010781   0.382108  -0.020967   0.008802  -0.025045  -0.025259
              13         14         15         16
     1  O    0.038080   0.011155   0.006034  -0.000002
     2  C    0.026537  -0.007247   0.003672  -0.000031
     3  C    0.155767   0.018838  -0.045148   0.000094
     4  O    0.006277   0.000180   0.000493   0.000000
     5  H   -0.032788   0.010741  -0.008744   0.000004
     6  H    0.014537  -0.018336   0.010278   0.000010
     7  C    0.278663  -0.005556  -0.063269  -0.010781
     8  C   -0.033948  -0.009056  -0.001471   0.382108
     9  H   -0.027002   0.012094  -0.003852  -0.020967
    10  H    0.010354  -0.026215   0.009895   0.008802
    11  H    0.005695  -0.000432   0.000540  -0.025045
    12  H   -0.008635   0.008463  -0.000467  -0.025259
    13  C    4.882316   0.283840   0.406847  -0.003004
    14  H    0.283840   0.759591  -0.027641  -0.000600
    15  H    0.406847  -0.027641   0.716503   0.004440
    16  H   -0.003004  -0.000600   0.004440   0.697469
 Mulliken charges:
               1
     1  O   -0.465666
     2  C   -0.021243
     3  C    0.057786
     4  O   -0.370374
     5  H   -0.056101
     6  H   -0.035590
     7  C   -0.025886
     8  C    0.050958
     9  H   -0.038468
    10  H   -0.031320
    11  H   -0.032113
    12  H   -0.003281
    13  C   -0.003536
    14  H   -0.009819
    15  H   -0.008109
    16  H   -0.007237
 Sum of Mulliken charges =  -1.00000
 Mulliken charges with hydrogens summed into heavy atoms:
               1
     1  O   -0.465666
     2  C   -0.021243
     3  C   -0.033905
     4  O   -0.370374
     7  C   -0.095674
     8  C    0.008327
    13  C   -0.021464
 Electronic spatial extent (au):  <R**2>=           1159.8300
 Charge=             -1.0000 electrons
 Dipole moment (field-independent basis, Debye):
    X=             -9.6822    Y=             -1.9283    Z=              0.6709  Tot=              9.8952
 Quadrupole moment (field-independent basis, Debye-Ang):
   XX=            -77.4054   YY=            -53.4647   ZZ=            -45.2015
   XY=             -2.6242   XZ=              2.8220   YZ=             -1.4956
 Traceless Quadrupole moment (field-independent basis, Debye-Ang):
   XX=            -18.7149   YY=              5.2259   ZZ=             13.4890
   XY=             -2.6242   XZ=              2.8220   YZ=             -1.4956
 Octapole moment (field-independent basis, Debye-Ang**2):
  XXX=            -46.2757  YYY=             -2.9857  ZZZ=             -0.8208  XYY=             -8.3681
  XXY=              0.8283  XXZ=             11.1929  XZZ=              3.0512  YZZ=              0.9998
  YYZ=             -1.3758  XYZ=             -5.2808
 Hexadecapole moment (field-independent basis, Debye-Ang**3):
 XXXX=          -1492.3713 YYYY=           -205.0718 ZZZZ=           -100.4549 XXXY=             19.7984
 XXXZ=             17.4702 YYYX=            -11.3741 YYYZ=              0.5218 ZZZX=             -1.3444
 ZZZY=              1.7940 XXYY=           -271.6539 XXZZ=           -227.8297 YYZZ=            -49.8498
 XXYZ=             -6.6700 YYXZ=             -0.3659 ZZXY=              1.6393
 N-N= 2.929423544924D+02 E-N=-1.403754405673D+03  KE= 3.421025428867D+02
   1 Symmetry operations used in ECPInt.
 ECPInt:  NShTT=    2415 NPrTT=    8503 LenC2=    2366 LenP2D=    6781.
 LDataN:  DoStor=T MaxTD1= 5 Len=  102
 Calling FoFJK, ICntrl=      2127 FMM=F ISym2X=0 I1Cent= 0 IOpClX= 0 NMat=1 NMatS=1 NMatT=0.
 ***** Axes restored to original set *****
 -------------------------------------------------------------------
 Center     Atomic                   Forces (Hartrees/Bohr)
 Number     Number              X              Y              Z
 -------------------------------------------------------------------
      1        8           0.041988924    0.016556748    0.009446131
      2        6          -0.073481730   -0.054017723   -0.009137023
      3        6           0.008949102   -0.001927189    0.004023219
      4        8           0.016241575    0.038609053   -0.004607852
      5        1           0.002465440    0.003235965   -0.001020756
      6        1           0.001936160    0.000381115    0.001497099
      7        6           0.003793443    0.010768695   -0.008814189
      8        6          -0.006697521    0.020973435    0.016734686
      9        1           0.005199090    0.001632753    0.001714544
     10        1           0.000401291    0.001396940    0.003937774
     11        1           0.017811430   -0.012653175    0.007643347
     12        1          -0.014118532   -0.017165831   -0.003764702
     13        6          -0.000350283   -0.020554749    0.034739448
     14        1          -0.004026410    0.015562906   -0.034735194
     15        1          -0.007690031   -0.004580449    0.002797256
     16        1           0.007578052    0.001781506   -0.020453789
 -------------------------------------------------------------------
 Cartesian Forces:  Max     0.073481730 RMS     0.019448177

 GradGradGradGradGradGradGradGradGradGradGradGradGradGradGradGradGradGrad
 Berny optimization.
 FormGI is forming the generalized inverse of G from B-inverse, IUseBI=4.
 Internal  Forces:  Max     0.042247049 RMS     0.010975618
 Search for a local minimum.
 Step number   1 out of a maximum of   85
 All quantities printed in internal units (Hartrees-Bohrs-Radians)
 Mixed Optimization -- RFO/linear search
 Second derivative matrix not updated -- first step.
 ITU=  0
     Eigenvalues ---    0.00382   0.00407   0.00586   0.00587   0.00591
     Eigenvalues ---    0.03547   0.03583   0.04159   0.04879   0.04994
     Eigenvalues ---    0.05409   0.05830   0.05830   0.08281   0.08717
     Eigenvalues ---    0.09525   0.12167   0.12438   0.12883   0.16000
     Eigenvalues ---    0.16000   0.16000   0.21904   0.21939   0.22256
     Eigenvalues ---    0.25000   0.25000   0.28076   0.29514   0.29687
     Eigenvalues ---    0.30991   0.31028   0.33319   0.33550   0.33612
     Eigenvalues ---    0.33724   0.34005   0.37230   0.37230   0.37230
     Eigenvalues ---    0.67964   0.92099
 RFO step:  Lambda=-2.90691282D-02 EMin= 3.82071290D-03
 Linear search not attempted -- first point.
 Maximum step size (   0.300) exceeded in Quadratic search.
    -- Step size scaled by   0.980
 Iteration  1 RMS(Cart)=  0.05646343 RMS(Int)=  0.00241147
 Iteration  2 RMS(Cart)=  0.00240016 RMS(Int)=  0.00042453
 Iteration  3 RMS(Cart)=  0.00000619 RMS(Int)=  0.00042450
 Iteration  4 RMS(Cart)=  0.00000001 RMS(Int)=  0.00042450
 Variable       Old X    -DE/DX   Delta X   Delta X   Delta X     New X
                                 (Linear)    (Quad)   (Total)
    R1        2.45144  -0.03880   0.00000  -0.05366  -0.05366   2.39778
    R2        2.86029   0.01576   0.00000   0.04558   0.04558   2.90587
    R3        2.31980   0.03121   0.00000   0.03220   0.03220   2.35201
    R4        2.07798   0.00403   0.00000   0.01079   0.01079   2.08878
    R5        2.08496   0.00151   0.00000   0.00409   0.00409   2.08905
    R6        2.85960   0.00330   0.00000   0.00955   0.00955   2.86914
    R7        2.88592   0.00727   0.00000   0.02186   0.02186   2.90778
    R8        2.08096   0.00361   0.00000   0.00971   0.00971   2.09067
    R9        2.07321   0.00379   0.00000   0.01006   0.01006   2.08327
   R10        2.88943   0.01161   0.00000   0.03511   0.03511   2.92453
   R11        2.02201   0.02229   0.00000   0.05444   0.05444   2.07645
   R12        2.02201   0.02231   0.00000   0.05449   0.05449   2.07650
   R13        2.02201   0.02137   0.00000   0.05220   0.05220   2.07421
   R14        2.18672  -0.03117   0.00000  -0.09862  -0.09862   2.08810
   R15        2.07990  -0.00009   0.00000  -0.00023  -0.00023   2.07967
    A1        2.04491  -0.01882   0.00000  -0.06603  -0.06605   1.97887
    A2        2.12280   0.04225   0.00000   0.14846   0.14844   2.27124
    A3        2.11533  -0.02343   0.00000  -0.08223  -0.08226   2.03307
    A4        1.88823  -0.00041   0.00000   0.00365   0.00355   1.89178
    A5        1.87814   0.00019   0.00000   0.00126   0.00131   1.87945
    A6        1.96899   0.00186   0.00000   0.00936   0.00932   1.97832
    A7        1.86182  -0.00041   0.00000  -0.00822  -0.00822   1.85360
    A8        1.92316   0.00048   0.00000   0.00642   0.00634   1.92949
    A9        1.93940  -0.00182   0.00000  -0.01318  -0.01317   1.92623
   A10        1.90356  -0.00019   0.00000   0.00354   0.00335   1.90691
   A11        1.92363  -0.00071   0.00000  -0.00904  -0.00904   1.91460
   A12        1.95901   0.00067   0.00000   0.00577   0.00569   1.96470
   A13        1.86228  -0.00118   0.00000  -0.01534  -0.01532   1.84696
   A14        1.88901   0.00154   0.00000   0.01757   0.01749   1.90649
   A15        1.92336  -0.00019   0.00000  -0.00300  -0.00296   1.92040
   A16        1.91063   0.00745   0.00000   0.04068   0.04024   1.95087
   A17        1.91063   0.00181   0.00000   0.00766   0.00753   1.91816
   A18        1.91063   0.00408   0.00000   0.02078   0.02045   1.93108
   A19        1.91063  -0.00448   0.00000  -0.02248  -0.02272   1.88791
   A20        1.91063  -0.00506   0.00000  -0.02282  -0.02341   1.88722
   A21        1.91063  -0.00380   0.00000  -0.02381  -0.02381   1.88682
   A22        2.02680  -0.01121   0.00000  -0.02662  -0.02615   2.00065
   A23        1.92534  -0.00441   0.00000  -0.03000  -0.03066   1.89468
   A24        1.90260   0.00381   0.00000  -0.00205  -0.00237   1.90023
   A25        1.73583   0.01628   0.00000   0.12450   0.12444   1.86027
   A26        1.88534   0.00403   0.00000   0.02275   0.02247   1.90781
   A27        1.98607  -0.00854   0.00000  -0.08539  -0.08834   1.89773
    D1        2.61707   0.00021   0.00000  -0.00611  -0.00609   2.61097
    D2       -1.66061  -0.00038   0.00000  -0.01322  -0.01323  -1.67384
    D3        0.48495  -0.00133   0.00000  -0.02291  -0.02292   0.46203
    D4       -0.54225   0.00071   0.00000   0.00808   0.00809  -0.53416
    D5        1.46326   0.00013   0.00000   0.00096   0.00095   1.46421
    D6       -2.67437  -0.00083   0.00000  -0.00873  -0.00874  -2.68311
    D7        2.99057  -0.00277   0.00000  -0.01871  -0.01851   2.97206
    D8       -1.33560   0.00810   0.00000   0.10240   0.10179  -1.23381
    D9        0.85708  -0.00310   0.00000  -0.02814  -0.02764   0.82944
   D10        0.87822  -0.00386   0.00000  -0.03435  -0.03419   0.84402
   D11        2.83524   0.00701   0.00000   0.08676   0.08610   2.92134
   D12       -1.25527  -0.00420   0.00000  -0.04377  -0.04333  -1.29860
   D13       -1.18159  -0.00253   0.00000  -0.02002  -0.01986  -1.20145
   D14        0.77542   0.00834   0.00000   0.10109   0.10044   0.87586
   D15        2.96810  -0.00287   0.00000  -0.02945  -0.02899   2.93910
   D16        1.57258  -0.00221   0.00000  -0.04492  -0.04482   1.52777
   D17       -2.61621  -0.00203   0.00000  -0.04286  -0.04279  -2.65900
   D18       -0.52181  -0.00307   0.00000  -0.05460  -0.05475  -0.57656
   D19       -0.46642  -0.00026   0.00000  -0.02325  -0.02317  -0.48958
   D20        1.62798  -0.00008   0.00000  -0.02119  -0.02114   1.60684
   D21       -2.56081  -0.00113   0.00000  -0.03293  -0.03310  -2.59391
   D22       -2.61738   0.00002   0.00000  -0.01686  -0.01676  -2.63414
   D23       -0.52298   0.00020   0.00000  -0.01480  -0.01474  -0.53772
   D24        1.57141  -0.00084   0.00000  -0.02655  -0.02670   1.54472
   D25       -2.69034  -0.00194   0.00000  -0.03596  -0.03583  -2.72617
   D26        1.52857  -0.00208   0.00000  -0.06833  -0.06807   1.46050
   D27       -0.54777  -0.00160   0.00000  -0.03933  -0.03986  -0.58763
   D28       -0.58866  -0.00073   0.00000  -0.01623  -0.01599  -0.60465
   D29       -2.65294  -0.00087   0.00000  -0.04859  -0.04823  -2.70117
   D30        1.55390  -0.00039   0.00000  -0.01959  -0.02002   1.53389
   D31        1.44173  -0.00136   0.00000  -0.02619  -0.02601   1.41572
   D32       -0.62254  -0.00150   0.00000  -0.05855  -0.05826  -0.68080
   D33       -2.69889  -0.00102   0.00000  -0.02955  -0.03004  -2.72893
         Item               Value     Threshold  Converged?
 Maximum Force            0.042247     0.000450     NO 
 RMS     Force            0.010976     0.000300     NO 
 Maximum Displacement     0.201086     0.001800     NO 
 RMS     Displacement     0.056582     0.001200     NO 
 Predicted change in Energy=-1.666536D-02
 GradGradGradGradGradGradGradGradGradGradGradGradGradGradGradGradGradGrad

                          Input orientation:                          
 ---------------------------------------------------------------------
 Center     Atomic      Atomic             Coordinates (Angstroms)
 Number     Number       Type             X           Y           Z
 ---------------------------------------------------------------------
      1          8           0       -0.959810    2.323171    0.837336
      2          6           0       -0.243099    3.370216    0.837703
      3          6           0        1.167604    3.143876    1.406271
      4          8           0       -0.509958    4.525193    0.458343
      5          1           0        1.861897    3.842783    0.905025
      6          1           0        1.151083    3.436815    2.472100
      7          6           0        3.147441    1.500488    1.601669
      8          6           0        3.739670    0.257057    0.915492
      9          1           0        3.722272    2.394796    1.295469
     10          1           0        3.276686    1.419379    2.693479
     11          1           0        4.557412   -0.182340    1.503377
     12          1           0        2.960180   -0.506921    0.788306
     13          6           0        1.653263    1.712910    1.259081
     14          1           0        1.076875    1.072970    1.951337
     15          1           0        1.465044    1.377334    0.228020
     16          1           0        4.131860    0.512831   -0.077252
 ---------------------------------------------------------------------
                    Distance matrix (angstroms):
                    1          2          3          4          5
     1  O    0.000000
     2  C    1.268849   0.000000
     3  C    2.350135   1.537720   0.000000
     4  O    2.279233   1.244628   2.370826   0.000000
     5  H    3.205594   2.158439   1.105333   2.508168   0.000000
     6  H    2.892840   2.149286   1.105476   2.828222   1.767990
     7  C    4.257995   3.946553   2.580437   4.881864   2.761210
     8  C    5.134203   5.055715   3.897449   6.040306   4.047662
     9  H    4.704988   4.109156   2.664531   4.811564   2.389584
    10  H    4.712749   4.431541   3.013142   5.383362   3.327624
    11  H    6.095977   6.009050   4.750152   6.995084   4.881131
    12  H    4.835096   5.029476   4.113822   6.121512   4.487737
    13  C    2.716328   2.553509   1.518286   3.637257   2.169157
    14  H    2.636681   2.873995   2.143357   4.082268   3.063151
    15  H    2.673162   2.694633   2.144159   3.723265   2.587329
    16  H    5.480776   5.304909   4.232027   6.158927   4.148034
                    6          7          8          9         10
     6  H    0.000000
     7  C    2.914181   0.000000
     8  C    4.385734   1.538731   0.000000
     9  H    3.013516   1.106334   2.171315   0.000000
    10  H    2.938919   1.102421   2.174070   1.761935   0.000000
    11  H    5.063574   2.197633   1.098809   2.717041   2.371098
    12  H    4.654143   2.174010   1.098837   3.042690   2.727727
    13  C    2.166898   1.547597   2.567227   2.178782   2.186129
    14  H    2.421665   2.142961   2.971391   3.029111   2.347327
    15  H    3.062014   2.175440   2.627082   2.696248   3.059788
    16  H    4.892229   2.182505   1.097622   2.365147   3.038109
                   11         12         13         14         15
    11  H    0.000000
    12  H    1.779840   0.000000
    13  C    3.476455   2.618647   0.000000
    14  H    3.727011   2.719474   1.104973   0.000000
    15  H    3.690780   2.469771   1.100512   1.792522   0.000000
    16  H    1.778411   1.778178   3.060951   3.709698   2.820011
                   16
    16  H    0.000000
 Stoichiometry    C5H9O2(1-)
 Framework group  C1[X(C5H9O2)]
 Deg. of freedom    42
 Full point group                 C1      NOp   1
 Largest Abelian subgroup         C1      NOp   1
 Largest concise Abelian subgroup C1      NOp   1
                         Standard orientation:                         
 ---------------------------------------------------------------------
 Center     Atomic      Atomic             Coordinates (Angstroms)
 Number     Number       Type             X           Y           Z
 ---------------------------------------------------------------------
      1          8           0        1.801071    1.305176    0.155246
      2          6           0        1.840087    0.051829   -0.038605
      3          6           0        0.519233   -0.659328    0.299307
      4          8           0        2.769140   -0.668066   -0.448130
      5          1           0        0.419558   -1.541284   -0.359465
      6          1           0        0.603037   -1.051630    1.329430
      7          6           0       -2.055844   -0.494965    0.274477
      8          6           0       -3.196823    0.276017   -0.412143
      9          1           0       -1.963316   -1.496558   -0.186204
     10          1           0       -2.311382   -0.672952    1.331999
     11          1           0       -4.168129    0.072129    0.059423
     12          1           0       -3.007028    1.356688   -0.352380
     13          6           0       -0.697612    0.239961    0.173770
     14          1           0       -0.676253    0.977399    0.996385
     15          1           0       -0.645233    0.778117   -0.784755
     16          1           0       -3.267183    0.000131   -1.472196
 ---------------------------------------------------------------------
 Rotational constants (GHZ):           7.2783500           1.1008343           1.0160770
 Standard basis: def2SVP (5D, 7F)
 There are   150 symmetry adapted cartesian basis functions of A   symmetry.
 There are   143 symmetry adapted basis functions of A   symmetry.
   143 basis functions,   238 primitive gaussians,   150 cartesian basis functions
    28 alpha electrons       28 beta electrons
       nuclear repulsion energy       291.9607347809 Hartrees.
 NAtoms=   16 NActive=   16 NUniq=   16 SFac= 1.00D+00 NAtFMM=   60 NAOKFM=F Big=F
 Integral buffers will be    131072 words long.
 Raffenetti 2 integral format.
 Two-electron integral symmetry is turned on.
 One-electron integrals computed using PRISM.
   1 Symmetry operations used in ECPInt.
 ECPInt:  NShTT=    2415 NPrTT=    8503 LenC2=    2366 LenP2D=    6776.
 LDataN:  DoStor=T MaxTD1= 4 Len=   56
 NBasis=   143 RedAO= T EigKep=  1.36D-03  NBF=   143
 NBsUse=   143 1.00D-06 EigRej= -1.00D+00 NBFU=   143
 Initial guess from the checkpoint file:  "5PQ_Me_ts1_no_pd_opt.chk"
 B after Tr=    -0.000000    0.000000   -0.000000
         Rot=    0.999947    0.009932   -0.001034   -0.002688 Ang=   1.18 deg.
 ExpMin= 1.22D-01 ExpMax= 2.27D+03 ExpMxC= 3.41D+02 IAcc=3 IRadAn=         5 AccDes= 0.00D+00
 Harris functional with IExCor= 1009 and IRadAn=       5 diagonalized for initial guess.
 HarFok:  IExCor= 1009 AccDes= 0.00D+00 IRadAn=         5 IDoV= 1 UseB2=F ITyADJ=14
 ICtDFT=  3500011 ScaDFX=  1.000000  1.000000  1.000000  1.000000
 FoFCou: FMM=F IPFlag=           0 FMFlag=      100000 FMFlg1=           0
         NFxFlg=           0 DoJE=T BraDBF=F KetDBF=T FulRan=T
         wScrn=  0.000000 ICntrl=       500 IOpCl=  0 I1Cent=   200000004 NGrid=           0
         NMat0=    1 NMatS0=      1 NMatT0=    0 NMatD0=    1 NMtDS0=    0 NMtDT0=    0
 Petite list used in FoFCou.
 Requested convergence on RMS density matrix=1.00D-08 within 128 cycles.
 Requested convergence on MAX density matrix=1.00D-06.
 Requested convergence on             energy=1.00D-06.
 No special actions if energy rises.
 Integral accuracy reduced to 1.0D-05 until final iterations.
 Initial convergence to 1.0D-05 achieved.  Increase integral accuracy.
 SCF Done:  E(RMN15) =  -345.734674008     A.U. after   14 cycles
            NFock= 14  Conv=0.27D-08     -V/T= 2.0111
   1 Symmetry operations used in ECPInt.
 ECPInt:  NShTT=    2415 NPrTT=    8503 LenC2=    2366 LenP2D=    6776.
 LDataN:  DoStor=T MaxTD1= 5 Len=  102
 Calling FoFJK, ICntrl=      2127 FMM=F ISym2X=0 I1Cent= 0 IOpClX= 0 NMat=1 NMatS=1 NMatT=0.
 ***** Axes restored to original set *****
 -------------------------------------------------------------------
 Center     Atomic                   Forces (Hartrees/Bohr)
 Number     Number              X              Y              Z
 -------------------------------------------------------------------
      1        8           0.006489442    0.017113315   -0.001248139
      2        6          -0.017706817   -0.019485093   -0.002671582
      3        6           0.010223076    0.001786230    0.001849896
      4        8          -0.001450218    0.001301014    0.000477159
      5        1          -0.000185159    0.000632003    0.000361196
      6        1           0.001349042    0.000423237    0.000839440
      7        6          -0.003261867    0.000807186   -0.006506951
      8        6          -0.002612142    0.006441101    0.006271313
      9        1           0.000198299   -0.001136739    0.000892431
     10        1          -0.000952093    0.000905807    0.001038390
     11        1           0.002631131   -0.001452328   -0.000956273
     12        1          -0.000088180   -0.002625802    0.000123887
     13        6           0.012544332   -0.000539777    0.011450511
     14        1          -0.004295974   -0.000701858   -0.008847704
     15        1          -0.002375310   -0.001862987   -0.000202243
     16        1          -0.000507562   -0.001605310   -0.002871331
 -------------------------------------------------------------------
 Cartesian Forces:  Max     0.019485093 RMS     0.005994073

 GradGradGradGradGradGradGradGradGradGradGradGradGradGradGradGradGradGrad
 Berny optimization.
 Using GEDIIS/GDIIS optimizer.
 FormGI is forming the generalized inverse of G from B-inverse, IUseBI=4.
 Internal  Forces:  Max     0.017786631 RMS     0.003108015
 Search for a local minimum.
 Step number   2 out of a maximum of   85
 All quantities printed in internal units (Hartrees-Bohrs-Radians)
 Mixed Optimization -- RFO/linear search
 Update second derivatives using D2CorX and points    1    2
 DE= -1.62D-02 DEPred=-1.67D-02 R= 9.74D-01
 TightC=F SS=  1.41D+00  RLast= 3.87D-01 DXNew= 5.0454D-01 1.1603D+00
 Trust test= 9.74D-01 RLast= 3.87D-01 DXMaxT set to 5.05D-01
 ITU=  1  0
 Use linear search instead of GDIIS.
     Eigenvalues ---    0.00383   0.00406   0.00585   0.00587   0.00591
     Eigenvalues ---    0.03529   0.03545   0.04080   0.04841   0.04865
     Eigenvalues ---    0.05405   0.05497   0.05682   0.08368   0.08561
     Eigenvalues ---    0.09603   0.12220   0.12299   0.12942   0.15757
     Eigenvalues ---    0.16000   0.16004   0.21721   0.21885   0.21944
     Eigenvalues ---    0.24467   0.27226   0.27468   0.29652   0.29827
     Eigenvalues ---    0.31026   0.32605   0.33313   0.33596   0.33655
     Eigenvalues ---    0.33856   0.34026   0.37229   0.37230   0.38235
     Eigenvalues ---    0.64603   0.92263
 RFO step:  Lambda=-5.18823431D-03 EMin= 3.83474176D-03
 Quartic linear search produced a step of  0.17365.
 Iteration  1 RMS(Cart)=  0.09268437 RMS(Int)=  0.00439965
 Iteration  2 RMS(Cart)=  0.00557131 RMS(Int)=  0.00067966
 Iteration  3 RMS(Cart)=  0.00001745 RMS(Int)=  0.00067954
 Iteration  4 RMS(Cart)=  0.00000001 RMS(Int)=  0.00067954
 Variable       Old X    -DE/DX   Delta X   Delta X   Delta X     New X
                                 (Linear)    (Quad)   (Total)
    R1        2.39778  -0.01779  -0.00932  -0.02525  -0.03456   2.36321
    R2        2.90587   0.01274   0.00792   0.04234   0.05026   2.95613
    R3        2.35201   0.00137   0.00559  -0.00107   0.00452   2.35653
    R4        2.08878   0.00012   0.00187  -0.00060   0.00128   2.09005
    R5        2.08905   0.00090   0.00071   0.00269   0.00340   2.09245
    R6        2.86914   0.00204   0.00166   0.00656   0.00822   2.87737
    R7        2.90778  -0.00198   0.00380  -0.00961  -0.00581   2.90197
    R8        2.09067  -0.00106   0.00169  -0.00449  -0.00281   2.08786
    R9        2.08327   0.00085   0.00175   0.00191   0.00366   2.08693
   R10        2.92453  -0.00506   0.00610  -0.02272  -0.01663   2.90791
   R11        2.07645   0.00203   0.00945   0.00121   0.01066   2.08711
   R12        2.07650   0.00187   0.00946   0.00073   0.01019   2.08669
   R13        2.07421   0.00204   0.00906   0.00145   0.01052   2.08472
   R14        2.08810  -0.00290  -0.01713  -0.00235  -0.01948   2.06861
   R15        2.07967   0.00116  -0.00004   0.00395   0.00391   2.08358
    A1        1.97887   0.00647  -0.01147   0.03541   0.02068   1.99955
    A2        2.27124  -0.00420   0.02578  -0.03339  -0.01091   2.26033
    A3        2.03307  -0.00227  -0.01428  -0.00255  -0.02008   2.01299
    A4        1.89178  -0.00008   0.00062   0.00770   0.00813   1.89991
    A5        1.87945  -0.00007   0.00023  -0.00448  -0.00423   1.87522
    A6        1.97832   0.00087   0.00162   0.00576   0.00726   1.98557
    A7        1.85360  -0.00036  -0.00143  -0.00836  -0.00973   1.84387
    A8        1.92949   0.00057   0.00110   0.01041   0.01136   1.94086
    A9        1.92623  -0.00101  -0.00229  -0.01204  -0.01429   1.91194
   A10        1.90691   0.00051   0.00058   0.00883   0.00936   1.91627
   A11        1.91460  -0.00037  -0.00157  -0.00236  -0.00391   1.91069
   A12        1.96470   0.00070   0.00099   0.00425   0.00520   1.96991
   A13        1.84696  -0.00014  -0.00266  -0.00333  -0.00598   1.84098
   A14        1.90649  -0.00052   0.00304  -0.00403  -0.00107   1.90542
   A15        1.92040  -0.00024  -0.00051  -0.00375  -0.00425   1.91615
   A16        1.95087   0.00228   0.00699   0.01344   0.02020   1.97107
   A17        1.91816   0.00119   0.00131   0.00619   0.00742   1.92559
   A18        1.93108   0.00174   0.00355   0.00978   0.01317   1.94426
   A19        1.88791  -0.00174  -0.00395  -0.00922  -0.01329   1.87462
   A20        1.88722  -0.00184  -0.00407  -0.00785  -0.01220   1.87502
   A21        1.88682  -0.00187  -0.00413  -0.01385  -0.01799   1.86883
   A22        2.00065  -0.00213  -0.00454   0.00323  -0.00148   1.99917
   A23        1.89468  -0.00096  -0.00532  -0.00132  -0.00755   1.88712
   A24        1.90023   0.00118  -0.00041   0.00096   0.00040   1.90063
   A25        1.86027   0.00448   0.02161   0.03945   0.06098   1.92125
   A26        1.90781   0.00072   0.00390   0.00339   0.00739   1.91520
   A27        1.89773  -0.00345  -0.01534  -0.04883  -0.06485   1.83289
    D1        2.61097   0.00101  -0.00106   0.06040   0.05922   2.67019
    D2       -1.67384   0.00052  -0.00230   0.05222   0.04975  -1.62409
    D3        0.46203  -0.00025  -0.00398   0.03749   0.03332   0.49534
    D4       -0.53416  -0.00026   0.00141  -0.07783  -0.07623  -0.61039
    D5        1.46421  -0.00075   0.00017  -0.08601  -0.08569   1.37852
    D6       -2.68311  -0.00152  -0.00152  -0.10074  -0.10213  -2.78523
    D7        2.97206  -0.00012  -0.00321   0.05300   0.04994   3.02200
    D8       -1.23381   0.00354   0.01768   0.10430   0.12172  -1.11209
    D9        0.82944  -0.00047  -0.00480   0.04558   0.04102   0.87046
   D10        0.84402  -0.00106  -0.00594   0.03117   0.02528   0.86931
   D11        2.92134   0.00260   0.01495   0.08246   0.09706   3.01840
   D12       -1.29860  -0.00141  -0.00752   0.02374   0.01637  -1.28224
   D13       -1.20145  -0.00035  -0.00345   0.04247   0.03913  -1.16232
   D14        0.87586   0.00331   0.01744   0.09376   0.11091   0.98677
   D15        2.93910  -0.00069  -0.00503   0.03505   0.03022   2.96932
   D16        1.52777  -0.00093  -0.00778  -0.10372  -0.11148   1.41628
   D17       -2.65900  -0.00084  -0.00743  -0.10243  -0.10985  -2.76884
   D18       -0.57656  -0.00132  -0.00951  -0.10952  -0.11912  -0.69568
   D19       -0.48958  -0.00085  -0.00402  -0.10339  -0.10737  -0.59696
   D20        1.60684  -0.00076  -0.00367  -0.10210  -0.10574   1.50110
   D21       -2.59391  -0.00123  -0.00575  -0.10919  -0.11501  -2.70892
   D22       -2.63414  -0.00076  -0.00291  -0.09981  -0.10266  -2.73680
   D23       -0.53772  -0.00068  -0.00256  -0.09852  -0.10103  -0.63874
   D24        1.54472  -0.00115  -0.00464  -0.10561  -0.11030   1.43442
   D25       -2.72617  -0.00127  -0.00622  -0.10579  -0.11177  -2.83794
   D26        1.46050  -0.00191  -0.01182  -0.13382  -0.14587   1.31463
   D27       -0.58763  -0.00068  -0.00692  -0.09965  -0.10661  -0.69424
   D28       -0.60465  -0.00051  -0.00278  -0.09457  -0.09710  -0.70175
   D29       -2.70117  -0.00116  -0.00838  -0.12261  -0.13120  -2.83236
   D30        1.53389   0.00007  -0.00348  -0.08843  -0.09193   1.44195
   D31        1.41572  -0.00111  -0.00452  -0.10300  -0.10727   1.30845
   D32       -0.68080  -0.00176  -0.01012  -0.13103  -0.14136  -0.82216
   D33       -2.72893  -0.00053  -0.00522  -0.09686  -0.10210  -2.83103
         Item               Value     Threshold  Converged?
 Maximum Force            0.017787     0.000450     NO 
 RMS     Force            0.003108     0.000300     NO 
 Maximum Displacement     0.354133     0.001800     NO 
 RMS     Displacement     0.092570     0.001200     NO 
 Predicted change in Energy=-3.605718D-03
 GradGradGradGradGradGradGradGradGradGradGradGradGradGradGradGradGradGrad

                          Input orientation:                          
 ---------------------------------------------------------------------
 Center     Atomic      Atomic             Coordinates (Angstroms)
 Number     Number       Type             X           Y           Z
 ---------------------------------------------------------------------
      1          8           0       -1.000022    2.360684    0.834657
      2          6           0       -0.273461    3.378506    0.841187
      3          6           0        1.171337    3.142667    1.392571
      4          8           0       -0.573907    4.569102    0.623753
      5          1           0        1.853837    3.883016    0.935041
      6          1           0        1.156416    3.378788    2.474276
      7          6           0        3.157289    1.512708    1.571732
      8          6           0        3.752737    0.230089    0.972926
      9          1           0        3.746024    2.387720    1.242441
     10          1           0        3.257616    1.486789    2.671216
     11          1           0        4.625869   -0.143165    1.536958
     12          1           0        2.997229   -0.575162    0.962710
     13          6           0        1.681978    1.722862    1.188075
     14          1           0        1.043695    1.045170    1.763937
     15          1           0        1.526658    1.435706    0.134935
     16          1           0        4.075127    0.385078   -0.070659
 ---------------------------------------------------------------------
                    Distance matrix (angstroms):
                    1          2          3          4          5
     1  O    0.000000
     2  C    1.250559   0.000000
     3  C    2.374356   1.564316   0.000000
     4  O    2.259019   1.247022   2.381528   0.000000
     5  H    3.236060   2.188317   1.106009   2.541958   0.000000
     6  H    2.893979   2.170605   1.107276   2.799161   1.763487
     7  C    4.306458   3.973027   2.575436   4.915489   2.778979
     8  C    5.210305   5.112745   3.914440   6.137492   4.117175
     9  H    4.763609   4.159196   2.687284   4.878832   2.431209
    10  H    4.718488   4.404101   2.954561   5.326662   3.275180
    11  H    6.197833   6.073688   4.769835   7.076515   4.925098
    12  H    4.961210   5.132609   4.164243   6.271472   4.602549
    13  C    2.779361   2.585581   1.522636   3.675399   2.181703
    14  H    2.602099   2.833871   2.133940   4.041628   3.065415
    15  H    2.780163   2.741112   2.149795   3.803878   2.595485
    16  H    5.520847   5.357452   4.263489   6.292995   4.263934
                    6          7          8          9         10
     6  H    0.000000
     7  C    2.881030   0.000000
     8  C    4.348476   1.535656   0.000000
     9  H    3.034090   1.104848   2.174409   0.000000
    10  H    2.834341   1.104356   2.169937   1.758299   0.000000
    11  H    5.031880   2.213561   1.104449   2.695598   2.411515
    12  H    4.615966   2.180763   1.104231   3.068813   2.690434
    13  C    2.161624   1.538798   2.561778   2.169165   2.176711
    14  H    2.441938   2.173203   2.937510   3.062185   2.433029
    15  H    3.063521   2.174689   2.666678   2.656781   3.071082
    16  H    4.894678   2.193496   1.103189   2.417254   3.065937
                   11         12         13         14         15
    11  H    0.000000
    12  H    1.780126   0.000000
    13  C    3.502894   2.657365   0.000000
    14  H    3.780956   2.661529   1.094664   0.000000
    15  H    3.750147   2.625144   1.102582   1.743393   0.000000
    16  H    1.779547   1.775324   3.016826   3.604309   2.764196
                   16
    16  H    0.000000
 Stoichiometry    C5H9O2(1-)
 Framework group  C1[X(C5H9O2)]
 Deg. of freedom    42
 Full point group                 C1      NOp   1
 Largest Abelian subgroup         C1      NOp   1
 Largest concise Abelian subgroup C1      NOp   1
                         Standard orientation:                         
 ---------------------------------------------------------------------
 Center     Atomic      Atomic             Coordinates (Angstroms)
 Number     Number       Type             X           Y           Z
 ---------------------------------------------------------------------
      1          8           0        1.841298    1.301812    0.160895
      2          6           0        1.854569    0.072736   -0.069524
      3          6           0        0.508108   -0.661364    0.239061
      4          8           0        2.814210   -0.670486   -0.355484
      5          1           0        0.431679   -1.554979   -0.408138
      6          1           0        0.570383   -1.047367    1.275007
      7          6           0       -2.063085   -0.513619    0.235636
      8          6           0       -3.247392    0.291020   -0.319531
      9          1           0       -1.995378   -1.486404   -0.283779
     10          1           0       -2.249085   -0.758176    1.296389
     11          1           0       -4.215663   -0.011373    0.117296
     12          1           0       -3.112076    1.366744   -0.110165
     13          6           0       -0.720906    0.226561    0.099295
     14          1           0       -0.652906    1.022441    0.847786
     15          1           0       -0.678534    0.744533   -0.873123
     16          1           0       -3.330241    0.181961   -1.414185
 ---------------------------------------------------------------------
 Rotational constants (GHZ):           7.5958082           1.0786798           0.9898139
 Standard basis: def2SVP (5D, 7F)
 There are   150 symmetry adapted cartesian basis functions of A   symmetry.
 There are   143 symmetry adapted basis functions of A   symmetry.
   143 basis functions,   238 primitive gaussians,   150 cartesian basis functions
    28 alpha electrons       28 beta electrons
       nuclear repulsion energy       291.0209306361 Hartrees.
 NAtoms=   16 NActive=   16 NUniq=   16 SFac= 1.00D+00 NAtFMM=   60 NAOKFM=F Big=F
 Integral buffers will be    131072 words long.
 Raffenetti 2 integral format.
 Two-electron integral symmetry is turned on.
 One-electron integrals computed using PRISM.
   1 Symmetry operations used in ECPInt.
 ECPInt:  NShTT=    2415 NPrTT=    8503 LenC2=    2362 LenP2D=    6758.
 LDataN:  DoStor=T MaxTD1= 4 Len=   56
 NBasis=   143 RedAO= T EigKep=  1.39D-03  NBF=   143
 NBsUse=   143 1.00D-06 EigRej= -1.00D+00 NBFU=   143
 Initial guess from the checkpoint file:  "5PQ_Me_ts1_no_pd_opt.chk"
 B after Tr=    -0.000000   -0.000000   -0.000000
         Rot=    0.999958   -0.009110   -0.000640   -0.000009 Ang=  -1.05 deg.
 ExpMin= 1.22D-01 ExpMax= 2.27D+03 ExpMxC= 3.41D+02 IAcc=3 IRadAn=         5 AccDes= 0.00D+00
 Harris functional with IExCor= 1009 and IRadAn=       5 diagonalized for initial guess.
 HarFok:  IExCor= 1009 AccDes= 0.00D+00 IRadAn=         5 IDoV= 1 UseB2=F ITyADJ=14
 ICtDFT=  3500011 ScaDFX=  1.000000  1.000000  1.000000  1.000000
 FoFCou: FMM=F IPFlag=           0 FMFlag=      100000 FMFlg1=           0
         NFxFlg=           0 DoJE=T BraDBF=F KetDBF=T FulRan=T
         wScrn=  0.000000 ICntrl=       500 IOpCl=  0 I1Cent=   200000004 NGrid=           0
         NMat0=    1 NMatS0=      1 NMatT0=    0 NMatD0=    1 NMtDS0=    0 NMtDT0=    0
 Petite list used in FoFCou.
 Requested convergence on RMS density matrix=1.00D-08 within 128 cycles.
 Requested convergence on MAX density matrix=1.00D-06.
 Requested convergence on             energy=1.00D-06.
 No special actions if energy rises.
 Integral accuracy reduced to 1.0D-05 until final iterations.
 Initial convergence to 1.0D-05 achieved.  Increase integral accuracy.
 SCF Done:  E(RMN15) =  -345.737478568     A.U. after   13 cycles
            NFock= 13  Conv=0.78D-08     -V/T= 2.0111
   1 Symmetry operations used in ECPInt.
 ECPInt:  NShTT=    2415 NPrTT=    8503 LenC2=    2362 LenP2D=    6758.
 LDataN:  DoStor=T MaxTD1= 5 Len=  102
 Calling FoFJK, ICntrl=      2127 FMM=F ISym2X=0 I1Cent= 0 IOpClX= 0 NMat=1 NMatS=1 NMatT=0.
 ***** Axes restored to original set *****
 -------------------------------------------------------------------
 Center     Atomic                   Forces (Hartrees/Bohr)
 Number     Number              X              Y              Z
 -------------------------------------------------------------------
      1        8           0.001546037   -0.004042275   -0.006592839
      2        6          -0.006978942    0.003804427    0.018797555
      3        6           0.003900999   -0.001134773   -0.004059359
      4        8           0.003085435    0.000136203   -0.006175001
      5        1          -0.000496090   -0.000432260   -0.000474360
      6        1          -0.000751732    0.000581136   -0.000615808
      7        6          -0.003038435   -0.002898001   -0.002230337
      8        6          -0.000709827    0.000957116    0.001739718
      9        1           0.000500120   -0.000696738   -0.000034450
     10        1          -0.001110464    0.000688533    0.000268341
     11        1          -0.000372215    0.001271068   -0.001315822
     12        1           0.001195373    0.000576772    0.000933565
     13        6           0.007965652    0.005227190    0.000381517
     14        1          -0.003682588   -0.003696713    0.000644974
     15        1           0.000630319    0.000177827   -0.001824104
     16        1          -0.001683641   -0.000519512    0.000556410
 -------------------------------------------------------------------
 Cartesian Forces:  Max     0.018797555 RMS     0.003880336

 GradGradGradGradGradGradGradGradGradGradGradGradGradGradGradGradGradGrad
 Berny optimization.
 Using GEDIIS/GDIIS optimizer.
 FormGI is forming the generalized inverse of G from B-inverse, IUseBI=4.
 Internal  Forces:  Max     0.005420764 RMS     0.001824681
 Search for a local minimum.
 Step number   3 out of a maximum of   85
 All quantities printed in internal units (Hartrees-Bohrs-Radians)
 Mixed Optimization -- RFO/linear search
 Update second derivatives using D2CorX and points    2    3
 DE= -2.80D-03 DEPred=-3.61D-03 R= 7.78D-01
 TightC=F SS=  1.41D+00  RLast= 5.66D-01 DXNew= 8.4853D-01 1.6979D+00
 Trust test= 7.78D-01 RLast= 5.66D-01 DXMaxT set to 8.49D-01
 ITU=  1  1  0
 Use linear search instead of GDIIS.
     Eigenvalues ---    0.00185   0.00395   0.00558   0.00587   0.01852
     Eigenvalues ---    0.03470   0.03543   0.03973   0.04822   0.05030
     Eigenvalues ---    0.05309   0.05537   0.05589   0.08401   0.08632
     Eigenvalues ---    0.09697   0.12172   0.12290   0.13078   0.15751
     Eigenvalues ---    0.16000   0.16006   0.21632   0.21878   0.21960
     Eigenvalues ---    0.23996   0.26952   0.28448   0.29649   0.30868
     Eigenvalues ---    0.31219   0.31688   0.33332   0.33587   0.33693
     Eigenvalues ---    0.33762   0.34015   0.37229   0.37231   0.38252
     Eigenvalues ---    0.64635   0.92281
 RFO step:  Lambda=-7.63631007D-03 EMin= 1.85378075D-03
 Quartic linear search produced a step of -0.02498.
 Iteration  1 RMS(Cart)=  0.08657955 RMS(Int)=  0.00898120
 Iteration  2 RMS(Cart)=  0.00783390 RMS(Int)=  0.00466120
 Iteration  3 RMS(Cart)=  0.00006227 RMS(Int)=  0.00466086
 Iteration  4 RMS(Cart)=  0.00000084 RMS(Int)=  0.00466086
 Variable       Old X    -DE/DX   Delta X   Delta X   Delta X     New X
                                 (Linear)    (Quad)   (Total)
    R1        2.36321   0.00243   0.00086  -0.04323  -0.04236   2.32085
    R2        2.95613   0.00003  -0.00126   0.06747   0.06621   3.02234
    R3        2.35653   0.00046  -0.00011   0.00488   0.00477   2.36130
    R4        2.09005  -0.00040  -0.00003   0.00041   0.00037   2.09043
    R5        2.09245  -0.00047  -0.00008   0.00359   0.00351   2.09596
    R6        2.87737  -0.00100  -0.00021   0.00880   0.00860   2.88596
    R7        2.90197  -0.00326   0.00015  -0.01647  -0.01633   2.88564
    R8        2.08786  -0.00028   0.00007  -0.00499  -0.00492   2.08294
    R9        2.08693   0.00015  -0.00009   0.00483   0.00474   2.09167
   R10        2.90791  -0.00494   0.00042  -0.03599  -0.03557   2.87234
   R11        2.08711  -0.00140  -0.00027   0.00939   0.00913   2.09623
   R12        2.08669  -0.00125  -0.00025   0.00900   0.00875   2.09544
   R13        2.08472  -0.00109  -0.00026   0.00986   0.00960   2.09432
   R14        2.06861   0.00478   0.00049  -0.01053  -0.01004   2.05857
   R15        2.08358   0.00161  -0.00010   0.00860   0.00851   2.09208
    A1        1.99955  -0.00003  -0.00052   0.05347   0.03009   2.02964
    A2        2.26033   0.00187   0.00027   0.00332  -0.02006   2.24028
    A3        2.01299  -0.00037   0.00050  -0.00298  -0.02537   1.98762
    A4        1.89991   0.00077  -0.00020   0.01457   0.01405   1.91396
    A5        1.87522  -0.00108   0.00011  -0.01514  -0.01506   1.86016
    A6        1.98557  -0.00085  -0.00018   0.00599   0.00555   1.99112
    A7        1.84387   0.00001   0.00024  -0.00978  -0.00937   1.83451
    A8        1.94086   0.00026  -0.00028   0.01805   0.01753   1.95839
    A9        1.91194   0.00090   0.00036  -0.01604  -0.01568   1.89626
   A10        1.91627   0.00012  -0.00023   0.01253   0.01229   1.92856
   A11        1.91069   0.00009   0.00010  -0.00344  -0.00331   1.90738
   A12        1.96991   0.00015  -0.00013   0.00705   0.00690   1.97681
   A13        1.84098   0.00006   0.00015  -0.00640  -0.00627   1.83471
   A14        1.90542  -0.00027   0.00003  -0.00476  -0.00483   1.90059
   A15        1.91615  -0.00015   0.00011  -0.00589  -0.00579   1.91036
   A16        1.97107  -0.00018  -0.00050   0.02471   0.02398   1.99505
   A17        1.92559   0.00010  -0.00019   0.01004   0.00979   1.93537
   A18        1.94426  -0.00005  -0.00033   0.01649   0.01601   1.96027
   A19        1.87462   0.00010   0.00033  -0.01645  -0.01625   1.85837
   A20        1.87502   0.00018   0.00030  -0.01485  -0.01481   1.86021
   A21        1.86883  -0.00014   0.00045  -0.02411  -0.02366   1.84518
   A22        1.99917   0.00091   0.00004   0.00100   0.00059   1.99976
   A23        1.88712  -0.00072   0.00019  -0.01378  -0.01478   1.87234
   A24        1.90063   0.00023  -0.00001   0.00478   0.00461   1.90524
   A25        1.92125   0.00015  -0.00152   0.07391   0.07239   1.99364
   A26        1.91520  -0.00050  -0.00018   0.00798   0.00807   1.92326
   A27        1.83289  -0.00016   0.00162  -0.08212  -0.08060   1.75229
    D1        2.67019  -0.00509  -0.00148  -0.19035  -0.18995   2.48024
    D2       -1.62409  -0.00525  -0.00124  -0.20231  -0.20179  -1.82588
    D3        0.49534  -0.00542  -0.00083  -0.22950  -0.22857   0.26678
    D4       -0.61039   0.00492   0.00190   0.16969   0.16987  -0.44052
    D5        1.37852   0.00476   0.00214   0.15773   0.15803   1.53655
    D6       -2.78523   0.00459   0.00255   0.13055   0.13125  -2.65398
    D7        3.02200   0.00116  -0.00125   0.06918   0.06814   3.09014
    D8       -1.11209   0.00144  -0.00304   0.15529   0.15198  -0.96011
    D9        0.87046   0.00099  -0.00102   0.05434   0.05353   0.92398
   D10        0.86931   0.00057  -0.00063   0.03119   0.03063   0.89994
   D11        3.01840   0.00084  -0.00242   0.11731   0.11448   3.13288
   D12       -1.28224   0.00040  -0.00041   0.01636   0.01602  -1.26622
   D13       -1.16232  -0.00015  -0.00098   0.04230   0.04152  -1.12080
   D14        0.98677   0.00013  -0.00277   0.12841   0.12536   1.11214
   D15        2.96932  -0.00032  -0.00075   0.02746   0.02691   2.99623
   D16        1.41628  -0.00069   0.00278  -0.11623  -0.11344   1.30284
   D17       -2.76884  -0.00062   0.00274  -0.11350  -0.11076  -2.87960
   D18       -0.69568  -0.00076   0.00298  -0.12656  -0.12368  -0.81937
   D19       -0.59696  -0.00088   0.00268  -0.11363  -0.11091  -0.70787
   D20        1.50110  -0.00081   0.00264  -0.11090  -0.10822   1.39288
   D21       -2.70892  -0.00095   0.00287  -0.12396  -0.12115  -2.83007
   D22       -2.73680  -0.00086   0.00256  -0.10843  -0.10580  -2.84261
   D23       -0.63874  -0.00079   0.00252  -0.10570  -0.10312  -0.74186
   D24        1.43442  -0.00093   0.00276  -0.11876  -0.11604   1.31837
   D25       -2.83794  -0.00098   0.00279  -0.11313  -0.10999  -2.94793
   D26        1.31463  -0.00081   0.00364  -0.15251  -0.14931   1.16532
   D27       -0.69424  -0.00041   0.00266  -0.09994  -0.09715  -0.79139
   D28       -0.70175  -0.00093   0.00243  -0.09572  -0.09298  -0.79473
   D29       -2.83236  -0.00075   0.00328  -0.13511  -0.13230  -2.96466
   D30        1.44195  -0.00036   0.00230  -0.08253  -0.08014   1.36181
   D31        1.30845  -0.00109   0.00268  -0.10931  -0.10628   1.20218
   D32       -0.82216  -0.00091   0.00353  -0.14869  -0.14559  -0.96776
   D33       -2.83103  -0.00052   0.00255  -0.09612  -0.09344  -2.92447
         Item               Value     Threshold  Converged?
 Maximum Force            0.005421     0.000450     NO 
 RMS     Force            0.001825     0.000300     NO 
 Maximum Displacement     0.332079     0.001800     NO 
 RMS     Displacement     0.087939     0.001200     NO 
 Predicted change in Energy=-6.007744D-03
 GradGradGradGradGradGradGradGradGradGradGradGradGradGradGradGradGradGrad

                          Input orientation:                          
 ---------------------------------------------------------------------
 Center     Atomic      Atomic             Coordinates (Angstroms)
 Number     Number       Type             X           Y           Z
 ---------------------------------------------------------------------
      1          8           0       -0.980323    2.366567    0.695984
      2          6           0       -0.329387    3.376231    0.951314
      3          6           0        1.178903    3.144398    1.430117
      4          8           0       -0.589686    4.562057    0.655633
      5          1           0        1.830049    3.929796    1.002504
      6          1           0        1.194026    3.320783    2.525030
      7          6           0        3.166083    1.528085    1.540693
      8          6           0        3.745335    0.217152    1.013723
      9          1           0        3.759310    2.384510    1.180747
     10          1           0        3.262195    1.553222    2.643089
     11          1           0        4.681136   -0.103117    1.515922
     12          1           0        3.021344   -0.613423    1.138439
     13          6           0        1.711353    1.739848    1.154377
     14          1           0        1.019516    1.035443    1.614653
     15          1           0        1.560861    1.497684    0.084638
     16          1           0        3.967706    0.261321   -0.071108
 ---------------------------------------------------------------------
                    Distance matrix (angstroms):
                    1          2          3          4          5
     1  O    0.000000
     2  C    1.228141   0.000000
     3  C    2.409612   1.599355   0.000000
     4  O    2.230337   1.249547   2.395306   0.000000
     5  H    3.230454   2.229847   1.106207   2.524915   0.000000
     6  H    2.997287   2.190992   1.109133   2.866538   1.758837
     7  C    4.313846   3.997664   2.563899   4.908576   2.800509
     8  C    5.201230   5.156261   3.915191   6.148076   4.177579
     9  H    4.764393   4.213501   2.701503   4.891956   2.478251
    10  H    4.738323   4.368629   2.888468   5.276368   3.223456
    11  H    6.230872   6.126172   4.776961   7.091229   4.965550
    12  H    5.008937   5.213420   4.195340   6.329158   4.698776
    13  C    2.801432   2.623662   1.527185   3.675376   2.198414
    14  H    2.572004   2.781878   2.123005   3.993277   3.067405
    15  H    2.754328   2.802338   2.160525   3.786987   2.613447
    16  H    5.431711   5.404907   4.282899   6.308273   4.379489
                    6          7          8          9         10
     6  H    0.000000
     7  C    2.841072   0.000000
     8  C    4.292523   1.527015   0.000000
     9  H    3.043746   1.102245   2.173829   0.000000
    10  H    2.723148   1.106863   2.161791   1.754027   0.000000
    11  H    4.990123   2.226392   1.109279   2.674022   2.455068
    12  H    4.554086   2.183761   1.108861   3.087715   2.648835
    13  C    2.155382   1.519975   2.544695   2.147188   2.157824
    14  H    2.466175   2.203614   2.908746   3.084596   2.520989
    15  H    3.068187   2.167431   2.697200   2.611722   3.072994
    16  H    4.877862   2.201180   1.108268   2.473560   3.087656
                   11         12         13         14         15
    11  H    0.000000
    12  H    1.777024   0.000000
    13  C    3.513809   2.693365   0.000000
    14  H    3.835822   2.636826   1.089348   0.000000
    15  H    3.787777   2.774938   1.107083   1.687504   0.000000
    16  H    1.777768   1.767422   2.962935   3.483228   2.710305
                   16
    16  H    0.000000
 Stoichiometry    C5H9O2(1-)
 Framework group  C1[X(C5H9O2)]
 Deg. of freedom    42
 Full point group                 C1      NOp   1
 Largest Abelian subgroup         C1      NOp   1
 Largest concise Abelian subgroup C1      NOp   1
                         Standard orientation:                         
 ---------------------------------------------------------------------
 Center     Atomic      Atomic             Coordinates (Angstroms)
 Number     Number       Type             X           Y           Z
 ---------------------------------------------------------------------
      1          8           0        1.840322    1.303654    0.126047
      2          6           0        1.887292    0.078244    0.059007
      3          6           0        0.496568   -0.694063    0.224434
      4          8           0        2.817462   -0.640047   -0.365504
      5          1           0        0.468658   -1.561518   -0.461449
      6          1           0        0.496679   -1.131326    1.243736
      7          6           0       -2.061647   -0.535549    0.161281
      8          6           0       -3.253584    0.323731   -0.254290
      9          1           0       -2.006865   -1.445298   -0.458638
     10          1           0       -2.216146   -0.899494    1.195118
     11          1           0       -4.237070   -0.069829    0.074902
     12          1           0       -3.168282    1.347046    0.164184
     13          6           0       -0.733543    0.198775    0.076236
     14          1           0       -0.628052    1.015811    0.788979
     15          1           0       -0.665326    0.755956   -0.877981
     16          1           0       -3.316385    0.452965   -1.353204
 ---------------------------------------------------------------------
 Rotational constants (GHZ):           7.6647156           1.0762747           0.9836019
 Standard basis: def2SVP (5D, 7F)
 There are   150 symmetry adapted cartesian basis functions of A   symmetry.
 There are   143 symmetry adapted basis functions of A   symmetry.
   143 basis functions,   238 primitive gaussians,   150 cartesian basis functions
    28 alpha electrons       28 beta electrons
       nuclear repulsion energy       290.9526596252 Hartrees.
 NAtoms=   16 NActive=   16 NUniq=   16 SFac= 1.00D+00 NAtFMM=   60 NAOKFM=F Big=F
 Integral buffers will be    131072 words long.
 Raffenetti 2 integral format.
 Two-electron integral symmetry is turned on.
 One-electron integrals computed using PRISM.
   1 Symmetry operations used in ECPInt.
 ECPInt:  NShTT=    2415 NPrTT=    8503 LenC2=    2361 LenP2D=    6757.
 LDataN:  DoStor=T MaxTD1= 4 Len=   56
 NBasis=   143 RedAO= T EigKep=  1.38D-03  NBF=   143
 NBsUse=   143 1.00D-06 EigRej= -1.00D+00 NBFU=   143
 Initial guess from the checkpoint file:  "5PQ_Me_ts1_no_pd_opt.chk"
 B after Tr=     0.000000    0.000000    0.000000
         Rot=    0.999753   -0.022235    0.000378   -0.000073 Ang=  -2.55 deg.
 ExpMin= 1.22D-01 ExpMax= 2.27D+03 ExpMxC= 3.41D+02 IAcc=3 IRadAn=         5 AccDes= 0.00D+00
 Harris functional with IExCor= 1009 and IRadAn=       5 diagonalized for initial guess.
 HarFok:  IExCor= 1009 AccDes= 0.00D+00 IRadAn=         5 IDoV= 1 UseB2=F ITyADJ=14
 ICtDFT=  3500011 ScaDFX=  1.000000  1.000000  1.000000  1.000000
[...]
     6          0.30086532          5.82227052          4.28889452
     6          0.38322234          3.72788433          6.26610776
     1          1.77524335          7.24220875          4.70878597
     1         -1.51428983          6.84742233          4.42694741
     1          0.11890451          4.43901537          8.20633333
     1         -1.09987127          2.31342829          5.89582268
     6          0.62953759          4.84978330          1.59609038
     1         -0.84069338          3.45065250          1.12152143
     1          2.43225728          3.80089790          1.45625800
     1          2.20651251          2.72201594          6.20223866

 Electric dipole moment (dipole orientation):
 (Debye = 10**-18 statcoulomb cm , SI units = C m)
                  (au)            (Debye)         (10**-30 SI)
   Tot        0.368419D+01      0.936427D+01      0.312358D+02
   x          0.000000D+00      0.000000D+00      0.000000D+00
   y          0.000000D+00      0.000000D+00      0.000000D+00
   z          0.368419D+01      0.936427D+01      0.312358D+02

 Dipole polarizability, Alpha (dipole orientation).
 (esu units = cm**3 , SI units = C**2 m**2 J**-1)
 Alpha(0;0):
               (au)            (10**-24 esu)      (10**-40 SI)
   iso        0.630067D+02      0.933663D+01      0.103884D+02
   aniso      0.206351D+02      0.305780D+01      0.340226D+01
   xx         0.530811D+02      0.786581D+01      0.875189D+01
   yx         0.308567D+01      0.457250D+00      0.508759D+00
   yy         0.622630D+02      0.922642D+01      0.102658D+02
   zx        -0.177052D+01     -0.262365D+00     -0.291920D+00
   zy        -0.477784D+01     -0.708002D+00     -0.787759D+00
   zz         0.736759D+02      0.109176D+02      0.121475D+02

 ----------------------------------------------------------------------
 1\1\GINC-CHPC-CN076\Freq\RMN15\def2SVP\C5H9O2(1-)\S1155246976\02-Jan-2
 026\0\\#N Geom=AllCheck Guess=TCheck SCRF=Check GenChk RMN15/def2SVP F
 req\\Gaussian job with default settings\\-1,1\O,-0.9528959115,2.268211
 98,0.8332589225\C,-0.3191154972,3.3360460312,0.9891390817\C,1.19087355
 73,3.1632471656,1.3811071263\O,-0.7096010879,4.5169134165,0.9061610998
 \H,1.7568337102,4.0112095316,0.9579676286\H,1.2559472885,3.2732731356,
 2.4816056011\C,3.1646707267,1.5272870909,1.5235678544\C,3.7005249732,0
 .1644964792,1.0985630074\H,3.8670307915,2.3189305301,1.2031209094\H,3.
 1363920719,1.5878256468,2.6271072254\H,4.7006254074,-0.0485176608,1.51
 05835287\H,3.0209938595,-0.6384320401,1.4273923902\C,1.7733448105,1.82
 1853748,0.9730537059\H,1.0500895892,1.0531577514,1.2932935369\H,1.7942
 73254,1.7491538037,-0.1305153639\H,3.7684324767,0.0959009103,0.0003492
 255\\Version=ES64L-G16RevB.01\State=1-A\HF=-345.7419437\RMSD=3.839e-09
 \RMSF=1.186e-05\ZeroPoint=0.1338041\Thermal=0.1419855\Dipole=3.2514477
 ,-1.6808937,0.4194247\DipoleDeriv=-1.1351794,-0.3346851,-0.1313865,-0.
 1573353,-1.2522066,-0.0722544,-0.1486033,-0.0821289,-0.4946327,1.60440
 49,-0.1254694,0.3575311,-0.1841554,1.8477679,0.0145597,0.3933877,-0.02
 43883,0.1906001,-0.4563322,0.1581613,-0.1856815,0.0696535,0.1766788,-0
 .0140807,-0.2440079,0.0505917,0.1761252,-0.9924929,0.4247375,-0.096452
 7,0.3719902,-1.4994097,0.0596412,-0.1158639,0.087825,-0.5146567,-0.059
 1293,-0.0943009,0.0461488,-0.0771816,-0.1552725,0.0429726,0.0857566,0.
 0494734,-0.0017425,0.0206098,-0.0015723,-0.0300826,0.025042,-0.0178201
 ,-0.0134759,-0.0245283,-0.0524784,-0.2342669,0.0981029,0.0325966,-0.03
 41094,0.0636713,0.1641071,0.0003168,-0.0271792,-0.0148957,0.1675629,0.
 0826584,0.0620258,0.0209495,0.0323023,0.0429398,-0.0157546,0.0050561,-
 0.0003506,0.1217838,-0.1124004,-0.0801936,0.0276855,-0.1121962,-0.1387
 619,0.0274902,0.0507256,0.0423304,0.0104821,0.0083434,0.0206939,0.0076
 877,0.016041,-0.0079908,-0.0319848,-0.024235,-0.0291085,-0.2246986,-0.
 2117062,0.1145807,-0.0760694,0.08718,-0.0228365,0.0056859,-0.090534,0.
 0210185,0.0129525,-0.0254525,-0.1235055,0.0425125,-0.0644186,-0.101882
 5,0.0294916,0.0411332,0.0434226,0.0247846,0.0711653,0.0212491,0.006697
 1,-0.0312741,0.0048536,-0.0149354,0.0375759,-0.0240946,0.1577179,0.067
 2848,-0.1111079,0.015572,-0.0730288,-0.0632587,0.0304832,0.015241,0.04
 47296,0.0111743,-0.0063178,0.0319734,0.0245775,0.0206447,0.0076867,-0.
 041784,0.0065312,-0.0556983,-0.2194097,0.0464411,0.0048163,0.0044205,0
 .0130651,0.0154053,-0.0063713,0.0395444,-0.0562479,-0.1837764\Polar=67
 .0043792,-7.3984407,69.381824,2.2204896,0.3977049,52.6338527\Quadrupol
 e=-8.5030778,-1.5119635,10.0150413,8.4620645,-2.4943683,0.5583082\PG=C
 01 [X(C5H9O2)]\NImag=0\\0.26647583,0.25953701,0.55137321,0.05724101,0.
 06521799,0.04085212,-0.24901400,-0.21207602,-0.04227688,0.54119770,-0.
 21801382,-0.44890195,-0.05295641,0.04311184,1.08493054,-0.04114328,-0.
 05138389,-0.08690235,0.07397943,0.01623016,0.25882865,-0.04074716,-0.0
 2372765,-0.01423599,-0.11097019,0.00793495,-0.01176726,0.43244994,-0.0
 3343909,-0.00737387,-0.00978202,0.00339153,-0.06480961,-0.00123027,0.0
 4098234,0.56009489,-0.01334228,-0.00588372,0.01844928,-0.01101720,0.00
 061017,-0.08963890,-0.02587625,-0.01705537,0.52938990,0.04073988,-0.02
 716256,0.00287195,-0.17041325,0.16823189,-0.02010284,-0.02769034,0.043
 16918,-0.00789543,0.16392892,-0.00433886,-0.10053011,-0.00228421,0.161
 74495,-0.55470266,0.03644384,0.02324381,-0.02215070,0.00573922,-0.1898
 4033,0.67302689,0.00258351,-0.00763557,0.02723196,-0.01918890,0.035678
 02,-0.08227795,-0.01000041,0.01354893,0.01867798,0.02969459,-0.0405501
 9,0.03448085,-0.00750332,0.00034993,-0.00484333,-0.00831343,-0.0270893
 6,0.01508446,-0.10944343,-0.10406509,0.05913592,0.00324217,0.00383626,
 -0.00228535,0.11585380,-0.00064556,0.00192305,0.00013686,0.00220564,-0
 .00295698,-0.00117301,-0.10493299,-0.20048764,0.08141298,0.00151899,0.
 00179433,-0.00030772,0.11254281,0.21913612,-0.00184769,-0.00037435,-0.
 00030551,-0.00641165,-0.00558843,0.00303385,0.05779506,0.08198797,-0.0
 8536463,0.00143831,-0.00157485,-0.00041926,-0.06046538,-0.08699102,0.0
 8982933,-0.00309502,-0.00048098,0.00410129,0.00111654,-0.00236977,-0.0
 3117896,-0.03863226,-0.00203835,-0.02000785,-0.00110884,0.00046988,0.0
 0472562,0.00024868,0.00159201,0.01582391,0.04133655,-0.00079484,0.0004
 2009,0.00058210,-0.00059534,-0.00182032,0.00214311,-0.00157934,-0.0436
 6556,-0.02022193,0.00127156,-0.00001984,-0.00134807,0.00194493,0.00226
 650,0.02249636,-0.00070101,0.04837783,-0.00211782,-0.00007938,0.001240
 16,0.00359047,-0.00139484,-0.00713832,-0.01168577,-0.02249074,-0.30184
 791,-0.00193687,0.00112239,0.00224166,-0.00111523,-0.00164210,-0.01192
 243,0.01316333,0.02721583,0.32424767,-0.00028381,0.00089570,-0.0001405
 5,0.00004833,-0.00083515,0.00035731,-0.01406718,0.00522312,-0.00256088
 ,0.00004381,0.00093793,-0.00002349,0.00146657,-0.00154568,-0.00011115,
 0.00082536,-0.00113041,-0.00092206,0.50738680,-0.00028137,0.00365889,0
 .00056253,-0.00584575,-0.00645418,-0.00299935,0.03227387,-0.00583807,0
 .01135890,0.00352849,-0.00140360,0.00094859,0.00007307,0.00032937,0.00
 010993,-0.00080963,0.00111616,0.00080414,0.04092921,0.52748748,0.00092
 422,-0.00003697,0.00074761,-0.00116218,-0.00164194,-0.00085580,0.00898
 501,0.00105667,0.00297318,0.00154329,-0.00116053,0.00048048,-0.0002554
 0,-0.00015617,-0.00013267,0.00131920,-0.00102056,0.00061581,-0.0215051
 8,-0.01004182,0.57409995,-0.00039263,-0.00067534,-0.00013440,0.0019385
 5,0.00160496,0.00076608,-0.00566391,-0.00063317,-0.00257010,-0.0012360
 2,0.00065027,-0.00035089,0.00010858,0.00041649,-0.00019330,0.00011650,
 -0.00019512,0.00012563,-0.09216109,0.04137439,0.01324144,0.57075813,-0
 .00015648,0.00025147,0.00006353,-0.00049684,-0.00013248,-0.00028426,0.
 00092607,-0.00005870,0.00043193,-0.00001655,0.00001644,0.00000330,0.00
 007641,0.00019350,-0.00008814,-0.00003581,0.00000042,0.00006783,0.0417
 8863,-0.19128964,-0.03734392,0.02268883,0.50331097,-0.00023996,-0.0000
 0674,-0.00023049,0.00049893,0.00030560,0.00094438,-0.00251411,-0.00049
 938,-0.00135275,-0.00053265,0.00045651,-0.00031913,0.00011906,-0.00006
 218,0.00008873,0.00008345,0.00001746,0.00065106,0.01346854,-0.03721813
 ,-0.08930263,0.01096355,-0.02276056,0.56367429,-0.00021506,0.00171976,
 0.00007944,-0.00107575,-0.00133012,-0.00059704,0.00222325,-0.00223555,
 0.00041276,0.00012252,0.00067186,-0.00000481,0.00008546,0.00124766,-0.
 00031404,-0.00005330,0.00007793,0.00006086,-0.14794698,-0.11879436,0.0
 5105267,0.00717336,0.01026718,-0.00393831,0.16312085,0.00022592,-0.000
 01839,0.00008944,0.00014475,-0.00000340,-0.00001889,0.00048900,0.00140
 726,-0.00060435,-0.00018141,0.00012940,-0.00003386,-0.00066492,0.00020
 898,0.00038202,-0.00013515,0.00002971,-0.00003208,-0.11761908,-0.17792
 246,0.05653817,-0.01793633,-0.02073799,0.00901963,0.12683378,0.1945138
 1,-0.00021201,0.00022141,-0.00001539,-0.00024819,-0.00032801,-0.000164
 93,0.00039494,-0.00029349,-0.00001320,0.00012083,0.00000962,0.00003193
 ,0.00024788,0.00005927,0.00007344,0.00005278,0.00017500,-0.00011292,0.
 05165184,0.05765538,-0.07199778,-0.00625198,-0.00752764,0.00231993,-0.
 05387611,-0.06072442,0.07261894,0.00003647,0.00031468,0.00028829,-0.00
 056160,-0.00053504,0.00007103,0.00163617,-0.00146488,-0.00093674,0.000
 21633,-0.00004655,-0.00000071,-0.00000928,0.00003446,0.00017382,0.0001
 0006,0.00023918,0.00110495,-0.04461949,-0.00114317,0.01078558,-0.00152
 688,0.00076393,0.01173303,-0.00122839,0.00119758,0.01892804,0.04939080
 ,-0.00015209,-0.00030595,-0.00005225,0.00043962,0.00019678,-0.00004365
 ,-0.00077302,0.00061617,0.00132700,-0.00007743,-0.00001201,-0.00002866
 ,0.00000157,0.00003827,-0.00000153,0.00010944,0.00006071,-0.00063268,-
 0.00106901,-0.04626817,-0.00937376,0.00151314,-0.00207181,-0.02977836,
 -0.00038427,0.00077576,0.02150493,-0.00238752,0.04969757,-0.00009796,0
 .00040524,0.00012496,-0.00023392,-0.00044381,0.00037184,0.00110243,-0.
 00093990,0.00089665,-0.00006480,0.00024556,-0.00004788,-0.00001881,-0.
 00002453,0.00006220,-0.00047108,0.00088721,0.00052682,0.01080205,-0.01
 122964,-0.30719030,-0.00009380,0.00057255,-0.00727202,0.00015456,-0.00
 029028,-0.00911244,-0.00907616,0.01370570,0.33184999,-0.00037052,0.000
 00592,-0.00007137,0.00083303,0.00006642,0.00034035,-0.00065470,-0.0006
 2527,-0.00086721,-0.00055991,0.00044570,-0.00016354,-0.00000879,0.0002
 0045,0.00002378,0.00002904,0.00001394,0.00014258,-0.00798038,-0.001080
 84,-0.00375693,-0.26953969,0.04362004,-0.09472789,0.00073576,0.0004520
 5,0.00001080,0.00011752,-0.00005273,0.00054430,0.28839754,0.00036361,0
 .00019597,0.00010598,-0.00093723,-0.00041681,-0.00048692,0.00198296,0.
 00066820,0.00083643,0.00060774,-0.00041094,0.00020690,-0.00009414,-0.0
 0007266,0.00005048,-0.00005905,0.00003307,-0.00013460,0.02681787,-0.00
 279408,0.01334406,0.04326541,-0.05336215,0.01838626,-0.00070167,0.0008
 2862,0.00058380,-0.00057782,0.00109799,-0.00031237,-0.04990838,0.05630
 853,-0.00001529,0.00005631,0.00004351,-0.00003392,-0.00014132,-0.00006
 410,0.00037191,-0.00034297,0.00058463,0.00003324,0.00000808,0.00001351
 ,0.00002528,-0.00002362,-0.00001512,-0.00007434,0.00011664,0.00000370,
 0.01059923,-0.00114687,0.00320704,-0.09494533,0.01858057,-0.08485937,-
 0.00038906,0.00044533,0.00008394,0.00011099,0.00064792,0.00050829,0.10
 253923,-0.01897431,0.08644477,0.00012321,-0.00016865,0.00002553,-0.000
 04749,0.00015386,-0.00001387,0.00010236,0.00030007,0.00002308,0.000110
 07,-0.00018421,0.00001958,-0.00012526,-0.00007267,0.00001638,0.0000043
 4,-0.00003914,-0.00004083,0.00689040,0.00825584,-0.00408211,-0.1527799
 1,-0.12454996,0.05303784,0.00002546,0.00253017,0.00030194,0.00035980,-
 0.00062979,-0.00026407,-0.01509324,-0.01895242,0.00942262,0.15992449,0
 .00026621,0.00036507,0.00001464,-0.00048359,-0.00023519,-0.00016449,0.
 00054428,0.00014775,-0.00013160,0.00012009,0.00006938,0.00003116,-0.00
 005204,0.00032601,-0.00003451,-0.00005171,-0.00000750,0.00001885,-0.01
 844292,-0.02156911,0.00969709,-0.12360164,-0.18519540,0.06135195,0.002
 76577,-0.00480764,-0.00230736,-0.00009091,0.00117127,-0.00038370,0.004
 64643,0.00434657,-0.00268799,0.13324631,0.20263925,-0.00002591,-0.0001
 4415,-0.00002556,0.00014740,0.00019684,0.00003420,-0.00021898,-0.00008
 826,-0.00008977,-0.00004564,-0.00004929,-0.00000906,0.00000616,-0.0000
 1174,-0.00004808,0.00000068,-0.00005084,-0.00003809,-0.00652168,-0.007
 92017,0.00311200,0.05276165,0.06158109,-0.07121806,0.00078045,-0.00213
 754,0.00056719,-0.00080011,0.00022227,0.00050280,-0.00756852,-0.009844
 47,0.00327009,-0.05784135,-0.06429286,0.07201818,-0.00155713,0.0030561
 5,-0.00128846,-0.00877729,0.02492827,0.01342957,-0.09482873,0.04525502
 ,0.01776367,-0.00672561,0.00467253,-0.00477180,0.00546123,-0.01510659,
 -0.00525325,-0.00110600,-0.00049235,-0.00086838,-0.18899924,0.01956526
 ,-0.04571877,-0.01341445,0.00722212,-0.00306084,-0.02071364,0.00394925
 ,-0.00856885,0.00007150,-0.00033906,0.00012019,0.00055633,-0.00023039,
 0.00000559,0.00174699,-0.00218932,0.00004718,0.52722775,-0.00325391,-0
 .00642856,-0.00091566,0.01639563,0.00029123,0.00360056,0.03609359,-0.1
 9159389,-0.03918306,-0.00218886,0.00204989,-0.00087268,0.01181897,-0.0
 1929588,-0.00809157,0.00200490,-0.00308044,-0.00024949,0.01598469,-0.0
 8054816,0.00787103,0.03098696,-0.00852931,0.01153747,-0.02148997,0.003
 95462,-0.00888082,0.00015144,-0.00049634,-0.00043767,0.00340181,-0.005
 52318,-0.00134355,0.00093876,0.00143697,0.00034022,0.03641244,0.524602
 53,-0.00233740,-0.00020612,-0.00078892,0.00361390,0.00922083,0.0037927
 9,0.01165855,-0.03683634,-0.08767233,-0.00570720,0.00241467,-0.0005491
 7,-0.00581832,0.01087583,0.00352543,0.01290213,-0.02930530,-0.00981291
 ,-0.04744983,0.00916237,-0.09744313,0.00948499,-0.00040529,0.00394642,
 0.01033811,-0.00217341,0.00399684,-0.03064503,0.00525367,-0.01339407,0
 .00187789,-0.00320734,-0.00031816,-0.00061484,0.00009752,-0.00016555,-
 0.02306017,-0.01085956,0.57155367,-0.00399306,-0.00045055,0.00013297,0
 .00205031,0.00289535,-0.00024959,0.00746428,0.00600653,-0.00356445,-0.
 00011624,-0.00206633,-0.00010302,-0.00143884,0.00266112,0.00016077,0.0
 0054853,-0.00037319,0.00009811,-0.01829425,-0.01780919,0.00822192,0.00
 119098,-0.00138251,0.00043008,-0.00384944,0.00125281,-0.00227381,0.001
 06984,0.00015467,-0.00003534,0.00061984,0.00015767,-0.00025058,-0.0000
 9943,0.00119025,-0.00006456,-0.15567606,-0.12602197,0.05580973,0.17085
 239,0.00028094,0.00497467,-0.00073566,-0.00554078,-0.00543745,-0.00048
 482,-0.01541462,-0.02417324,0.01042566,0.00103510,0.00236934,0.0000343
 0,0.00218530,-0.00463289,-0.00260926,-0.00015417,0.00097531,-0.0004543
 3,0.00595939,0.00384433,-0.00279415,0.00067226,0.00126913,-0.00027437,
 0.00191483,0.00032727,0.00029000,-0.00052683,0.00022967,-0.00026588,-0
 .00013372,0.00021492,-0.00004980,-0.00084611,0.00036545,0.00023361,-0.
 12460676,-0.17394898,0.05834628,0.13370668,0.19276967,-0.00044620,-0.0
 0121991,-0.00186381,0.00161133,0.00136077,0.00063351,-0.00548356,-0.00
 703600,0.00266969,-0.00053231,-0.00052869,0.00011791,0.00041683,-0.001
 65323,0.00065501,-0.00064357,0.00013655,0.00059039,-0.00913436,-0.0091
 5138,0.00299454,0.00022496,-0.00042517,0.00010368,-0.00307970,0.000163
 43,0.00027514,0.00047495,-0.00066032,0.00081865,0.00000778,-0.00018673
 ,-0.00009661,0.00049638,-0.00001954,0.00005737,0.05508855,0.05868533,-
 0.07193795,-0.05779862,-0.06080045,0.07501404,-0.00020368,-0.00102412,
 -0.00166807,0.00192001,0.00111151,0.00104821,-0.00100680,0.00002662,0.
 01142039,-0.00056833,-0.00012623,-0.00015103,0.00038014,-0.00006114,-0
 .00082277,-0.00029129,0.00243498,0.00060412,-0.00118844,-0.00006106,-0
 .03017011,0.00133187,-0.00106805,-0.00085412,0.00131966,-0.00040287,0.
 00043143,-0.00505125,0.00143015,-0.00286120,0.00014616,-0.00033580,0.0
 0028206,-0.00005108,0.00009935,0.00008565,-0.04413904,-0.00047343,0.00
 826924,-0.00027932,0.00150406,0.01882303,0.04763081,0.00033967,0.00035
 059,-0.00006862,-0.00134339,0.00043169,-0.00024415,0.00195162,-0.00255
 618,-0.02910209,-0.00003077,-0.00021643,0.00034235,-0.00085173,0.00124
 578,0.00032010,0.00268849,-0.00477814,-0.00238107,-0.00009707,-0.00107
 883,0.00569254,-0.00039101,0.00050637,0.00094124,0.00019102,0.00014665
 ,-0.00067383,0.00148640,0.00042014,0.00015411,-0.00018904,0.00004228,-
 0.00017796,-0.00012018,0.00002506,0.00008487,-0.00053078,-0.04413862,-
 0.01149912,0.00001455,0.00084450,0.02115117,-0.00325599,0.04864625,0.0
 0087988,0.00102760,0.00133425,-0.00251580,-0.00113445,-0.00049427,0.00
 123003,-0.00006123,-0.00817147,0.00094173,-0.00014522,0.00028415,-0.00
 021423,-0.00039898,0.00096227,0.00036242,-0.00200997,0.00068320,0.0011
 0430,-0.00059803,-0.01228335,0.00084738,-0.00055267,0.00059433,-0.0004
 5507,-0.00024314,0.00074799,-0.00258161,0.00008166,0.00035792,-0.00008
 849,0.00007084,0.00053218,-0.00003841,-0.00000617,-0.00004338,0.007026
 24,-0.01200868,-0.30542399,-0.00047003,-0.00078686,-0.01001542,-0.0053
 0891,0.01580376,0.33060316,0.00000001,-0.00011328,-0.00008143,0.000068
 53,0.00013422,-0.00002361,-0.00017130,0.00014700,-0.00011744,0.0000148
 5,-0.00007067,0.00002065,-0.00000430,-0.00005500,-0.00001280,-0.000038
 90,-0.00008177,-0.00020308,-0.00112040,-0.00017476,0.01057736,-0.04590
 339,0.00035300,0.01553340,0.00027623,-0.00013555,-0.00070957,-0.000001
 61,0.00221635,0.00049360,0.00277202,-0.00139835,-0.02768162,-0.0010907
 1,0.00203341,0.01925758,0.00087339,-0.00076105,0.00167825,-0.00004952,
 -0.00003558,-0.00002548,0.00005058,0.00013818,-0.00071943,0.04432452,0
 .00006267,0.00004583,0.00002176,-0.00011504,0.00002079,0.00009604,0.00
 000512,-0.00022681,0.00003983,0.00001485,-0.00000937,-0.00001679,-0.00
 001197,-0.00001587,0.00000682,-0.00002908,0.00009202,0.00026228,0.0022
 0278,-0.00126994,-0.03062974,0.00025992,-0.04417082,-0.01141642,-0.000
 75383,0.00116782,0.00023617,0.00258505,-0.00515006,-0.00164258,-0.0008
 6277,-0.00115634,0.00503352,0.00013811,0.00092205,0.02188041,-0.001565
 77,0.00124812,-0.00087870,0.00006411,0.00000829,0.00018418,0.00020202,
 0.00010890,0.00096153,-0.00219615,0.04838540,0.00019718,0.00004224,0.0
 0010819,-0.00035282,0.00002683,-0.00010260,0.00024440,0.00006242,0.000
 50965,0.00017381,-0.00014691,0.00006202,-0.00001955,-0.00004066,-0.000
 02255,-0.00015902,0.00018643,0.00007211,0.00038592,-0.00029646,-0.0090
 2495,0.01612413,-0.01191314,-0.31776834,-0.00022471,-0.00038006,0.0007
 0134,0.00036967,-0.00217193,0.00099660,0.00175722,-0.00043799,-0.00933
 830,-0.00044788,-0.00118299,-0.00792428,-0.00089045,0.00080813,0.00069
 104,-0.00004361,-0.00007428,-0.00001614,0.00087209,-0.00034331,0.00033
 243,-0.01798638,0.01586170,0.34072378\\-0.00000529,-0.00000545,0.00000
 199,-0.00002633,0.00002755,-0.00001551,0.00004495,-0.00002964,0.000008
 02,0.00000373,-0.00001460,0.00000465,-0.00001231,0.00000534,-0.0000018
 4,-0.00000584,0.00000664,0.00000058,-0.00001467,0.00001428,0.00000137,
 -0.00000078,-0.00002099,-0.00000306,0.00000168,-0.00000552,0.00000048,
 0.00000295,0.00000077,0.00000481,0.00000757,0.00000144,0.00000064,-0.0
 0000131,0.00000252,0.00000006,-0.00000951,0.00000172,-0.00000065,0.000
 01529,0.00001201,0.00000301,0.00000019,0.00000216,0.00000038,-0.000000
 29,0.00000179,-0.00000492\\\@


 FROM WHENCE IT HAPPENS, THAT THEY WHICH TRUST TO BOOKS, DO AS THEY THAT CAST UP MANY LITTLE SUMMS INTO GREATER,
 WITHOUT CONSIDERING WETHER THOSE LITTLE SUMMES WERE RIGHTLY CAST UP OR NOT...
 AND AT LAST FINDING THE ERROUR VISIBLE, AND NOT MISTRUSTING THEIR FIRST GROUNDS,
 KNOW NOT WHICH WAY TO CLEERE THEMSELVES...
 BUT SPEND TIME IN FLUTTERING OVER THEIR BOOKES....
 AS BIRDS THAT ENTERING BY THE CHIMNEY, AND FINDING THEMSELVES INCLOSED IN A CHAMBER,
 FLUTTER AT THE FALSE LIGHT OF A GLASSE WINDOW,
 FOR WANT OF WIT TO CONSIDER WHICH WAY THEY CAME IN....
           LEVIATHAN
 Job cpu time:       0 days  0 hours 16 minutes 34.7 seconds.
 Elapsed time:       0 days  0 hours  0 minutes 15.9 seconds.
 File lengths (MBytes):  RWF=     42 Int=      0 D2E=      0 Chk=      3 Scr=      1
 Normal termination of Gaussian 16 at Fri Jan  2 17:09:08 2026.
