 Entering Gaussian System, Link 0=/project/xlzhang/shared/bin/g16/g16
 Input=/users/s1155246976/scratch/5PQ_Me_ts1_b_no_pd_opt/5PQ_Me_ts1_b_no_pd_opt.com
 Output=/users/s1155246976/scratch/5PQ_Me_ts1_b_no_pd_opt/5PQ_Me_ts1_b_no_pd_opt.log
 Initial command:
 /project/xlzhang/shared/bin/g16/l1.exe "/lustre/scratch/xlzhang/jingyi/5PQ_Me_ts1_b_no_pd_opt/Gau-1171736.inp" -scrdir="/lustre/scratch/xlzhang/jingyi/5PQ_Me_ts1_b_no_pd_opt/"
 Entering Link 1 = /project/xlzhang/shared/bin/g16/l1.exe PID=   1171737.
  
 Copyright (c) 1988-2017, Gaussian, Inc.  All Rights Reserved.
  
 This is part of the Gaussian(R) 16 program.  It is based on
 the Gaussian(R) 09 system (copyright 2009, Gaussian, Inc.),
 the Gaussian(R) 03 system (copyright 2003, Gaussian, Inc.),
 the Gaussian(R) 98 system (copyright 1998, Gaussian, Inc.),
 the Gaussian(R) 94 system (copyright 1995, Gaussian, Inc.),
 the Gaussian 92(TM) system (copyright 1992, Gaussian, Inc.),
 the Gaussian 90(TM) system (copyright 1990, Gaussian, Inc.),
 the Gaussian 88(TM) system (copyright 1988, Gaussian, Inc.),
 the Gaussian 86(TM) system (copyright 1986, Carnegie Mellon
 University), and the Gaussian 82(TM) system (copyright 1983,
 Carnegie Mellon University). Gaussian is a federally registered
 trademark of Gaussian, Inc.
  
 This software contains proprietary and confidential information,
 including trade secrets, belonging to Gaussian, Inc.
  
 This software is provided under written license and may be
 used, copied, transmitted, or stored only in accord with that
 written license.
  
 The following legend is applicable only to US Government
 contracts under FAR:
  
                    RESTRICTED RIGHTS LEGEND
  
 Use, reproduction and disclosure by the US Government is
 subject to restrictions as set forth in subparagraphs (a)
 and (c) of the Commercial Computer Software - Restricted
 Rights clause in FAR 52.227-19.
  
 Gaussian, Inc.
 340 Quinnipiac St., Bldg. 40, Wallingford CT 06492
  
  
 ---------------------------------------------------------------
 Warning -- This program may not be used in any manner that
 competes with the business of Gaussian, Inc. or will provide
 assistance to any competitor of Gaussian, Inc.  The licensee
 of this program is prohibited from giving any competitor of
 Gaussian, Inc. access to this program.  By using this program,
 the user acknowledges that Gaussian, Inc. is engaged in the
 business of creating and licensing software in the field of
 computational chemistry and represents and warrants to the
 licensee that it is not a competitor of Gaussian, Inc. and that
 it will not use this program in any manner prohibited above.
 ---------------------------------------------------------------
  

 Cite this work as:
 Gaussian 16, Revision B.01,
 M. J. Frisch, G. W. Trucks, H. B. Schlegel, G. E. Scuseria, 
 M. A. Robb, J. R. Cheeseman, G. Scalmani, V. Barone, 
 G. A. Petersson, H. Nakatsuji, X. Li, M. Caricato, A. V. Marenich, 
 J. Bloino, B. G. Janesko, R. Gomperts, B. Mennucci, H. P. Hratchian, 
 J. V. Ortiz, A. F. Izmaylov, J. L. Sonnenberg, D. Williams-Young, 
 F. Ding, F. Lipparini, F. Egidi, J. Goings, B. Peng, A. Petrone, 
 T. Henderson, D. Ranasinghe, V. G. Zakrzewski, J. Gao, N. Rega, 
 G. Zheng, W. Liang, M. Hada, M. Ehara, K. Toyota, R. Fukuda, 
 J. Hasegawa, M. Ishida, T. Nakajima, Y. Honda, O. Kitao, H. Nakai, 
 T. Vreven, K. Throssell, J. A. Montgomery, Jr., J. E. Peralta, 
 F. Ogliaro, M. J. Bearpark, J. J. Heyd, E. N. Brothers, K. N. Kudin, 
 V. N. Staroverov, T. A. Keith, R. Kobayashi, J. Normand, 
 K. Raghavachari, A. P. Rendell, J. C. Burant, S. S. Iyengar, 
 J. Tomasi, M. Cossi, J. M. Millam, M. Klene, C. Adamo, R. Cammi, 
 J. W. Ochterski, R. L. Martin, K. Morokuma, O. Farkas, 
 J. B. Foresman, and D. J. Fox, Gaussian, Inc., Wallingford CT, 2016.
 
 ******************************************
 Gaussian 16:  ES64L-G16RevB.01 20-Dec-2017
                 2-Jan-2026 
 ******************************************
 %chk=5PQ_Me_ts1_b_no_pd_opt.chk
 %nprocshared=64
 Will use up to   64 processors via shared memory.
 %mem=180GB
 -----------------------
 # opt freq mn15 def2svp
 -----------------------
 1/18=20,19=15,26=3,38=1/1,3;
 2/9=110,12=2,17=6,18=5,40=1/2;
 3/5=43,7=101,11=2,25=1,30=1,71=1,74=-73/1,2,3;
 4//1;
 5/5=2,38=5/2;
 6/7=2,8=2,9=2,10=2,28=1/1;
 7//1,2,3,16;
 1/18=20,19=15,26=3/3(2);
 2/9=110/2;
 99//99;
 2/9=110/2;
 3/5=43,7=101,11=2,25=1,30=1,71=1,74=-73/1,2,3;
 4/5=5,16=3,69=1/1;
 5/5=2,38=5/2;
 7//1,2,3,16;
 1/18=20,19=15,26=3/3(-5);
 2/9=110/2;
 6/7=2,8=2,9=2,10=2,19=2,28=1/1;
 99/9=1/99;
 ----------------------------------
 Gaussian job with default settings
 ----------------------------------
 Symbolic Z-matrix:
 Charge = -2 Multiplicity = 1
 O                    -0.99602   2.33309   0.83838 
 C                    -0.20129   3.35839   0.83642 
 C                     1.1895    3.15575   1.39823 
 O                    -0.56384   4.45309   0.41554 
 H                     1.87355   3.84068   0.87657 
 H                     1.17156   3.47067   2.45549 
 C                     3.14191   1.48047   1.61528 
 C                     3.71195   0.262     0.89236 
 H                     3.72102   2.37221   1.32881 
 H                     3.25632   1.36541   2.70031 
 H                     4.47454  -0.18569   1.4948 
 H                     2.93056  -0.44839   0.7201 
 C                     1.67506   1.72898   1.26246 
 H                     1.51188   1.39167   0.22758 
 H                     4.13015   0.56635  -0.04432 
 

 GradGradGradGradGradGradGradGradGradGradGradGradGradGradGradGradGradGrad
 Berny optimization.
 Initialization pass.
                           ----------------------------
                           !    Initial Parameters    !
                           ! (Angstroms and Degrees)  !
 --------------------------                            --------------------------
 ! Name  Definition              Value          Derivative Info.                !
 --------------------------------------------------------------------------------
 ! R1    R(1,2)                  1.2972         estimate D2E/DX2                !
 ! R2    R(2,3)                  1.5136         estimate D2E/DX2                !
 ! R3    R(2,4)                  1.2276         estimate D2E/DX2                !
 ! R4    R(3,5)                  1.0996         estimate D2E/DX2                !
 ! R5    R(3,6)                  1.1033         estimate D2E/DX2                !
 ! R6    R(3,13)                 1.5132         estimate D2E/DX2                !
 ! R7    R(7,8)                  1.5272         estimate D2E/DX2                !
 ! R8    R(7,9)                  1.1012         estimate D2E/DX2                !
 ! R9    R(7,10)                 1.0971         estimate D2E/DX2                !
 ! R10   R(7,13)                 1.529          estimate D2E/DX2                !
 ! R11   R(8,11)                 1.07           estimate D2E/DX2                !
 ! R12   R(8,12)                 1.07           estimate D2E/DX2                !
 ! R13   R(8,15)                 1.07           estimate D2E/DX2                !
 ! R14   R(13,14)                1.1006         estimate D2E/DX2                !
 ! A1    A(1,2,3)              117.165          estimate D2E/DX2                !
 ! A2    A(1,2,4)              121.6276         estimate D2E/DX2                !
 ! A3    A(3,2,4)              121.1993         estimate D2E/DX2                !
 ! A4    A(2,3,5)              108.1876         estimate D2E/DX2                !
 ! A5    A(2,3,6)              107.6095         estimate D2E/DX2                !
 ! A6    A(2,3,13)             112.815          estimate D2E/DX2                !
 ! A7    A(5,3,6)              106.6743         estimate D2E/DX2                !
 ! A8    A(5,3,13)             110.1887         estimate D2E/DX2                !
 ! A9    A(6,3,13)             111.1195         estimate D2E/DX2                !
 ! A10   A(8,7,9)              109.0661         estimate D2E/DX2                !
 ! A11   A(8,7,10)             110.2161         estimate D2E/DX2                !
 ! A12   A(8,7,13)             112.2432         estimate D2E/DX2                !
 ! A13   A(9,7,10)             106.7007         estimate D2E/DX2                !
 ! A14   A(9,7,13)             108.232          estimate D2E/DX2                !
 ! A15   A(10,7,13)            110.2004         estimate D2E/DX2                !
 ! A16   A(7,8,11)             109.4712         estimate D2E/DX2                !
 ! A17   A(7,8,12)             109.4712         estimate D2E/DX2                !
 ! A18   A(7,8,15)             109.4712         estimate D2E/DX2                !
 ! A19   A(11,8,12)            109.4712         estimate D2E/DX2                !
 ! A20   A(11,8,15)            109.4712         estimate D2E/DX2                !
 ! A21   A(12,8,15)            109.4712         estimate D2E/DX2                !
 ! A22   A(3,13,7)             116.1272         estimate D2E/DX2                !
 ! A23   A(3,13,14)            109.011          estimate D2E/DX2                !
 ! A24   A(7,13,14)            108.0222         estimate D2E/DX2                !
 ! D1    D(1,2,3,5)            149.9469         estimate D2E/DX2                !
 ! D2    D(1,2,3,6)            -95.146          estimate D2E/DX2                !
 ! D3    D(1,2,3,13)            27.7856         estimate D2E/DX2                !
 ! D4    D(4,2,3,5)            -31.0687         estimate D2E/DX2                !
 ! D5    D(4,2,3,6)             83.8384         estimate D2E/DX2                !
 ! D6    D(4,2,3,13)          -153.23           estimate D2E/DX2                !
 ! D7    D(2,3,13,7)           171.3472         estimate D2E/DX2                !
 ! D8    D(2,3,13,14)           49.107          estimate D2E/DX2                !
 ! D9    D(5,3,13,7)            50.3182         estimate D2E/DX2                !
 ! D10   D(5,3,13,14)          -71.922          estimate D2E/DX2                !
 ! D11   D(6,3,13,7)           -67.7003         estimate D2E/DX2                !
 ! D12   D(6,3,13,14)          170.0595         estimate D2E/DX2                !
 ! D13   D(9,7,8,11)            90.1025         estimate D2E/DX2                !
 ! D14   D(9,7,8,12)          -149.8975         estimate D2E/DX2                !
 ! D15   D(9,7,8,15)           -29.8975         estimate D2E/DX2                !
 ! D16   D(10,7,8,11)          -26.7237         estimate D2E/DX2                !
 ! D17   D(10,7,8,12)           93.2763         estimate D2E/DX2                !
 ! D18   D(10,7,8,15)         -146.7237         estimate D2E/DX2                !
 ! D19   D(13,7,8,11)         -149.9646         estimate D2E/DX2                !
 ! D20   D(13,7,8,12)          -29.9646         estimate D2E/DX2                !
 ! D21   D(13,7,8,15)           90.0354         estimate D2E/DX2                !
 ! D22   D(8,7,13,3)          -154.145          estimate D2E/DX2                !
 ! D23   D(8,7,13,14)          -31.3851         estimate D2E/DX2                !
 ! D24   D(9,7,13,3)           -33.728          estimate D2E/DX2                !
 ! D25   D(9,7,13,14)           89.032          estimate D2E/DX2                !
 ! D26   D(10,7,13,3)           82.6053         estimate D2E/DX2                !
 ! D27   D(10,7,13,14)        -154.6348         estimate D2E/DX2                !
 --------------------------------------------------------------------------------
 Trust Radius=3.00D-01 FncErr=1.00D-07 GrdErr=1.00D-06 EigMax=2.50D+02 EigMin=1.00D-04
 Number of steps in this run=     75 maximum allowed number of steps=    100.
 GradGradGradGradGradGradGradGradGradGradGradGradGradGradGradGradGradGrad

                          Input orientation:                          
 ---------------------------------------------------------------------
 Center     Atomic      Atomic             Coordinates (Angstroms)
 Number     Number       Type             X           Y           Z
 ---------------------------------------------------------------------
      1          8           0       -0.996019    2.333086    0.838376
      2          6           0       -0.201285    3.358385    0.836417
      3          6           0        1.189503    3.155754    1.398230
      4          8           0       -0.563839    4.453091    0.415535
      5          1           0        1.873550    3.840676    0.876571
      6          1           0        1.171558    3.470670    2.455491
      7          6           0        3.141909    1.480468    1.615283
      8          6           0        3.711951    0.261997    0.892364
      9          1           0        3.721020    2.372208    1.328809
     10          1           0        3.256322    1.365407    2.700312
     11          1           0        4.474544   -0.185689    1.494801
     12          1           0        2.930556   -0.448389    0.720102
     13          6           0        1.675055    1.728980    1.262462
     14          1           0        1.511877    1.391668    0.227576
     15          1           0        4.130150    0.566353   -0.044320
 ---------------------------------------------------------------------
                    Distance matrix (angstroms):
                    1          2          3          4          5
     1  O    0.000000
     2  C    1.297245   0.000000
     3  C    2.401401   1.513600   0.000000
     4  O    2.204540   1.227586   2.392275   0.000000
     5  H    3.241714   2.130530   1.099621   2.555087   0.000000
     6  H    2.933862   2.125725   1.103311   2.852749   1.767112
     7  C    4.295694   3.912819   2.581779   4.899842   2.779391
     8  C    5.143667   4.990407   3.872012   6.006248   4.023296
     9  H    4.742627   4.074245   2.650913   4.850171   2.402928
    10  H    4.741900   4.404669   3.028614   5.417345   3.371208
    11  H    6.058232   5.904007   4.686796   6.933137   4.833114
    12  H    4.813376   4.930871   4.059676   6.027277   4.420161
    13  C    2.771178   2.521334   1.513234   3.626391   2.155823
    14  H    2.747524   2.678355   2.141578   3.703544   2.559227
    15  H    5.493460   5.228046   4.175327   6.111606   4.081847
                    6          7          8          9         10
     6  H    0.000000
     7  C    2.923891   0.000000
     8  C    4.380930   1.527164   0.000000
     9  H    2.995962   1.101198   2.154891   0.000000
    10  H    2.972930   1.097095   2.166515   1.763693   0.000000
    11  H    5.020119   2.136939   1.070000   2.671738   2.311540
    12  H    4.632998   2.136939   1.070000   2.991843   2.705035
    13  C    2.170325   1.529020   2.537313   2.145721   2.167949
    14  H    3.066215   2.142573   2.560942   2.656028   3.026252
    15  H    4.841217   2.136939   1.070000   2.305208   2.989158
                   11         12         13         14         15
    11  H    0.000000
    12  H    1.747303   0.000000
    13  C    3.399570   2.571259   0.000000
    14  H    3.587660   2.375088   1.100634   0.000000
    15  H    1.747303   1.747303   3.014444   2.758700   0.000000
 Stoichiometry    C5H8O2(2-)
 Framework group  C1[X(C5H8O2)]
 Deg. of freedom    39
 Full point group                 C1      NOp   1
 Largest Abelian subgroup         C1      NOp   1
 Largest concise Abelian subgroup C1      NOp   1
                         Standard orientation:                         
 ---------------------------------------------------------------------
 Center     Atomic      Atomic             Coordinates (Angstroms)
 Number     Number       Type             X           Y           Z
 ---------------------------------------------------------------------
      1          8           0        1.836884    1.286184    0.265643
      2          6           0        1.784284    0.021844   -0.019875
      3          6           0        0.484997   -0.698535    0.269765
      4          8           0        2.750870   -0.573312   -0.487282
      5          1           0        0.376205   -1.515948   -0.457674
      6          1           0        0.578600   -1.169236    1.263231
      7          6           0       -2.086044   -0.463998    0.287809
      8          6           0       -3.181224    0.361850   -0.383597
      9          1           0       -2.013235   -1.441155   -0.214685
     10          1           0       -2.350591   -0.665995    1.333194
     11          1           0       -4.116462    0.175775    0.101795
     12          1           0       -2.940797    1.401740   -0.307946
     13          6           0       -0.718894    0.216390    0.211157
     14          1           0       -0.680721    0.799878   -0.721302
     15          1           0       -3.253745    0.086661   -1.415058
 ---------------------------------------------------------------------
 Rotational constants (GHZ):           7.5992723           1.1078676           1.0266436
 Standard basis: def2SVP (5D, 7F)
 There are   145 symmetry adapted cartesian basis functions of A   symmetry.
 There are   138 symmetry adapted basis functions of A   symmetry.
   138 basis functions,   231 primitive gaussians,   145 cartesian basis functions
    28 alpha electrons       28 beta electrons
       nuclear repulsion energy       280.9374142004 Hartrees.
 NAtoms=   15 NActive=   15 NUniq=   15 SFac= 1.00D+00 NAtFMM=   60 NAOKFM=F Big=F
 Integral buffers will be    131072 words long.
 Raffenetti 2 integral format.
 Two-electron integral symmetry is turned on.
 One-electron integrals computed using PRISM.
   1 Symmetry operations used in ECPInt.
 ECPInt:  NShTT=    2211 NPrTT=    7865 LenC2=    2162 LenP2D=    6214.
 LDataN:  DoStor=T MaxTD1= 4 Len=   56
 NBasis=   138 RedAO= T EigKep=  1.36D-03  NBF=   138
 NBsUse=   138 1.00D-06 EigRej= -1.00D+00 NBFU=   138
 ExpMin= 1.22D-01 ExpMax= 2.27D+03 ExpMxC= 3.41D+02 IAcc=3 IRadAn=         5 AccDes= 0.00D+00
 Harris functional with IExCor= 1009 and IRadAn=       5 diagonalized for initial guess.
 HarFok:  IExCor= 1009 AccDes= 0.00D+00 IRadAn=         5 IDoV= 1 UseB2=F ITyADJ=14
 ICtDFT=  3500011 ScaDFX=  1.000000  1.000000  1.000000  1.000000
 FoFCou: FMM=F IPFlag=           0 FMFlag=      100000 FMFlg1=           0
         NFxFlg=           0 DoJE=T BraDBF=F KetDBF=T FulRan=T
         wScrn=  0.000000 ICntrl=       500 IOpCl=  0 I1Cent=   200000004 NGrid=           0
         NMat0=    1 NMatS0=      1 NMatT0=    0 NMatD0=    1 NMtDS0=    0 NMtDT0=    0
 Petite list used in FoFCou.
 Requested convergence on RMS density matrix=1.00D-08 within 128 cycles.
 Requested convergence on MAX density matrix=1.00D-06.
 Requested convergence on             energy=1.00D-06.
 No special actions if energy rises.
 Integral accuracy reduced to 1.0D-05 until final iterations.
 Initial convergence to 1.0D-05 achieved.  Increase integral accuracy.
 SCF Done:  E(RMN15) =  -344.884270877     A.U. after   21 cycles
            NFock= 21  Conv=0.92D-08     -V/T= 2.0094

 **********************************************************************

            Population analysis using the SCF Density.

 **********************************************************************

 Orbital symmetries:
       Occupied  (A) (A) (A) (A) (A) (A) (A) (A) (A) (A) (A) (A)
                 (A) (A) (A) (A) (A) (A) (A) (A) (A) (A) (A) (A)
                 (A) (A) (A) (A)
       Virtual   (A) (A) (A) (A) (A) (A) (A) (A) (A) (A) (A) (A)
                 (A) (A) (A) (A) (A) (A) (A) (A) (A) (A) (A) (A)
                 (A) (A) (A) (A) (A) (A) (A) (A) (A) (A) (A) (A)
                 (A) (A) (A) (A) (A) (A) (A) (A) (A) (A) (A) (A)
                 (A) (A) (A) (A) (A) (A) (A) (A) (A) (A) (A) (A)
                 (A) (A) (A) (A) (A) (A) (A) (A) (A) (A) (A) (A)
                 (A) (A) (A) (A) (A) (A) (A) (A) (A) (A) (A) (A)
                 (A) (A) (A) (A) (A) (A) (A) (A) (A) (A) (A) (A)
                 (A) (A) (A) (A) (A) (A) (A) (A) (A) (A) (A) (A)
                 (A) (A)
 The electronic state is 1-A.
 Alpha  occ. eigenvalues --  -18.36146 -18.33825  -9.75123  -9.74005  -9.71282
 Alpha  occ. eigenvalues --   -9.66782  -9.59855  -0.65637  -0.54196  -0.49660
 Alpha  occ. eigenvalues --   -0.40375  -0.33652  -0.23104  -0.18876  -0.16070
 Alpha  occ. eigenvalues --   -0.14460  -0.10549  -0.09831  -0.08243  -0.06787
 Alpha  occ. eigenvalues --   -0.04917  -0.01816  -0.00104   0.01948   0.10534
 Alpha  occ. eigenvalues --    0.11244   0.13284   0.21726
 Alpha virt. eigenvalues --    0.36713   0.40958   0.41322   0.44692   0.46348
 Alpha virt. eigenvalues --    0.47395   0.49074   0.49929   0.53054   0.57752
 Alpha virt. eigenvalues --    0.62674   0.65614   0.67069   0.70727   0.75094
 Alpha virt. eigenvalues --    0.77205   0.81091   0.81856   0.85794   0.89988
 Alpha virt. eigenvalues --    0.93683   0.94414   0.95671   0.96553   0.97503
 Alpha virt. eigenvalues --    0.99657   0.99952   1.00421   1.01386   1.01822
 Alpha virt. eigenvalues --    1.03559   1.04475   1.05537   1.06961   1.07473
 Alpha virt. eigenvalues --    1.10299   1.10955   1.12367   1.14664   1.23536
 Alpha virt. eigenvalues --    1.23633   1.32571   1.35865   1.36912   1.40248
 Alpha virt. eigenvalues --    1.45359   1.50230   1.55388   1.56863   1.62530
 Alpha virt. eigenvalues --    1.66732   1.70269   1.70571   1.80470   1.84278
 Alpha virt. eigenvalues --    1.85726   1.87174   1.89329   1.98116   2.00422
 Alpha virt. eigenvalues --    2.03621   2.05234   2.07481   2.08864   2.10411
 Alpha virt. eigenvalues --    2.12105   2.12699   2.14826   2.16898   2.19301
 Alpha virt. eigenvalues --    2.21315   2.23626   2.27940   2.29985   2.34786
 Alpha virt. eigenvalues --    2.36618   2.38717   2.42544   2.49373   2.53354
 Alpha virt. eigenvalues --    2.57213   2.60085   2.63898   2.66918   2.70852
 Alpha virt. eigenvalues --    2.71804   2.76595   2.81155   2.85884   2.94038
 Alpha virt. eigenvalues --    2.95807   2.99835   3.07387   3.08044   3.10920
 Alpha virt. eigenvalues --    3.11708   3.14202   3.16106   3.18893   3.20432
 Alpha virt. eigenvalues --    3.23329   3.25090   3.31154   3.35448   3.42546
 Alpha virt. eigenvalues --    3.49165   3.60096   3.77152   3.97707   4.02072
          Condensed to atoms (all electrons):
               1          2          3          4          5          6
     1  O    8.084207   0.672679  -0.213092  -0.113856   0.008714   0.003496
     2  C    0.672679   4.631435   0.035835   0.681949  -0.000524   0.040396
     3  C   -0.213092   0.035835   5.681470  -0.180583   0.132909   0.195238
     4  O   -0.113856   0.681949  -0.180583   8.010913   0.018389   0.005605
     5  H    0.008714  -0.000524   0.132909   0.018389   1.145635  -0.070427
     6  H    0.003496   0.040396   0.195238   0.005605  -0.070427   0.964597
     7  C    0.001377   0.010529  -0.026716  -0.000164  -0.055251  -0.001444
     8  C   -0.000001   0.000074   0.005468   0.000002  -0.000138   0.000568
     9  H   -0.000052  -0.003144  -0.040006  -0.000020   0.079339  -0.016178
    10  H    0.000024   0.000853   0.000036   0.000005  -0.007681   0.011822
    11  H    0.000000   0.000019  -0.000713  -0.000000  -0.000204   0.000138
    12  H   -0.000062  -0.000449  -0.000450  -0.000000   0.002165  -0.000630
    13  C    0.033002   0.007203   0.328675   0.005500  -0.044081  -0.023608
    14  H    0.004720   0.000741  -0.063529   0.000574  -0.019366   0.018307
    15  H   -0.000002  -0.000056   0.000524  -0.000000   0.000285  -0.000027
               7          8          9         10         11         12
     1  O    0.001377  -0.000001  -0.000052   0.000024   0.000000  -0.000062
     2  C    0.010529   0.000074  -0.003144   0.000853   0.000019  -0.000449
     3  C   -0.026716   0.005468  -0.040006   0.000036  -0.000713  -0.000450
     4  O   -0.000164   0.000002  -0.000020   0.000005  -0.000000  -0.000000
     5  H   -0.055251  -0.000138   0.079339  -0.007681  -0.000204   0.002165
     6  H   -0.001444   0.000568  -0.016178   0.011822   0.000138  -0.000630
     7  C    5.043549   0.392338   0.001093   0.335528   0.010782  -0.057485
     8  C    0.392338   4.715748  -0.013314  -0.029104   0.305669   0.242837
     9  H    0.001093  -0.013314   1.377379  -0.139032  -0.009918   0.047753
    10  H    0.335528  -0.029104  -0.139032   1.012046  -0.012043  -0.022680
    11  H    0.010782   0.305669  -0.009918  -0.012043   0.904331  -0.051122
    12  H   -0.057485   0.242837   0.047753  -0.022680  -0.051122   0.902192
    13  C    0.343629  -0.062691  -0.030368  -0.057947   0.001703   0.053818
    14  H   -0.076255  -0.004795  -0.016943   0.018677   0.002894  -0.010452
    15  H   -0.010112   0.352613  -0.022889   0.011159  -0.038395  -0.025953
              13         14         15
     1  O    0.033002   0.004720  -0.000002
     2  C    0.007203   0.000741  -0.000056
     3  C    0.328675  -0.063529   0.000524
     4  O    0.005500   0.000574  -0.000000
     5  H   -0.044081  -0.019366   0.000285
     6  H   -0.023608   0.018307  -0.000027
     7  C    0.343629  -0.076255  -0.010112
     8  C   -0.062691  -0.004795   0.352613
     9  H   -0.030368  -0.016943  -0.022889
    10  H   -0.057947   0.018677   0.011159
    11  H    0.001703   0.002894  -0.038395
    12  H    0.053818  -0.010452  -0.025953
    13  C    5.371895   0.327105  -0.003857
    14  H    0.327105   0.994104   0.004479
    15  H   -0.003857   0.004479   0.797641
 Mulliken charges:
               1
     1  O   -0.481155
     2  C   -0.077539
     3  C    0.144933
     4  O   -0.428314
     5  H   -0.189763
     6  H   -0.127854
     7  C    0.088602
     8  C    0.094726
     9  H   -0.213699
    10  H   -0.121662
    11  H   -0.113143
    12  H   -0.079481
    13  C   -0.249979
    14  H   -0.180262
    15  H   -0.065409
 Sum of Mulliken charges =  -2.00000
 Mulliken charges with hydrogens summed into heavy atoms:
               1
     1  O   -0.481155
     2  C   -0.077539
     3  C   -0.172684
     4  O   -0.428314
     7  C   -0.246760
     8  C   -0.163307
    13  C   -0.430242
 Electronic spatial extent (au):  <R**2>=           1174.5432
 Charge=             -2.0000 electrons
 Dipole moment (field-independent basis, Debye):
    X=             -5.5038    Y=             -1.9698    Z=             -0.5022  Tot=              5.8673
 Quadrupole moment (field-independent basis, Debye-Ang):
   XX=            -95.4254   YY=            -61.8146   ZZ=            -51.4233
   XY=             -2.2416   XZ=              3.3144   YZ=             -3.3050
 Traceless Quadrupole moment (field-independent basis, Debye-Ang):
   XX=            -25.8710   YY=              7.7398   ZZ=             18.1312
   XY=             -2.2416   XZ=              3.3144   YZ=             -3.3050
 Octapole moment (field-independent basis, Debye-Ang**2):
  XXX=             -6.0969  YYY=              2.7161  ZZZ=             -3.5446  XYY=              0.6295
  XXY=              2.5843  XXZ=             12.1726  XZZ=              9.5137  YZZ=              1.4613
  YYZ=             -1.5239  XYZ=             -5.3518
 Hexadecapole moment (field-independent basis, Debye-Ang**3):
 XXXX=          -1721.8588 YYYY=           -241.0427 ZZZZ=           -113.4867 XXXY=             19.5342
 XXXZ=             16.3128 YYYX=            -13.6277 YYYZ=             -3.5113 ZZZX=              0.2195
 ZZZY=              2.0984 XXYY=           -303.0502 XXZZ=           -251.7841 YYZZ=            -58.0669
 XXYZ=             -8.0214 YYXZ=             -2.6255 ZZXY=              2.0308
 N-N= 2.809374142004D+02 E-N=-1.389000569741D+03  KE= 3.416809591650D+02
   1 Symmetry operations used in ECPInt.
 ECPInt:  NShTT=    2211 NPrTT=    7865 LenC2=    2162 LenP2D=    6214.
 LDataN:  DoStor=T MaxTD1= 5 Len=  102
 Calling FoFJK, ICntrl=      2127 FMM=F ISym2X=0 I1Cent= 0 IOpClX= 0 NMat=1 NMatS=1 NMatT=0.
 ***** Axes restored to original set *****
 -------------------------------------------------------------------
 Center     Atomic                   Forces (Hartrees/Bohr)
 Number     Number              X              Y              Z
 -------------------------------------------------------------------
      1        8           0.025365411    0.026748912    0.003153730
      2        6          -0.054710830   -0.073505091    0.003159033
      3        6           0.011569961   -0.034880187   -0.000579633
      4        8           0.002277078    0.056021121   -0.014182230
      5        1           0.009951385    0.022551935   -0.004583007
      6        1           0.001178386    0.006360173    0.008426578
      7        6          -0.044025704    0.003707296   -0.014077615
      8        6          -0.004051376    0.026443200    0.013889461
      9        1           0.026140940    0.015144358   -0.000867864
     10        1           0.008225254    0.000381089    0.013958800
     11        1           0.021845091   -0.015692378    0.009507590
     12        1          -0.020299420   -0.015681370   -0.000713668
     13        6           0.007666257   -0.019073269    0.014424950
     14        1          -0.000878521   -0.001478749   -0.009442904
     15        1           0.009746090    0.002952960   -0.022073222
 -------------------------------------------------------------------
 Cartesian Forces:  Max     0.073505091 RMS     0.022227605

 GradGradGradGradGradGradGradGradGradGradGradGradGradGradGradGradGradGrad
 Berny optimization.
 FormGI is forming the generalized inverse of G from B-inverse, IUseBI=4.
 Internal  Forces:  Max     0.054147490 RMS     0.013963302
 Search for a local minimum.
 Step number   1 out of a maximum of   75
 All quantities printed in internal units (Hartrees-Bohrs-Radians)
 Mixed Optimization -- RFO/linear search
 Second derivative matrix not updated -- first step.
 ITU=  0
     Eigenvalues ---    0.00382   0.00407   0.00586   0.00587   0.00591
     Eigenvalues ---    0.02285   0.04061   0.04830   0.05396   0.05830
     Eigenvalues ---    0.05830   0.06375   0.09260   0.10014   0.11453
     Eigenvalues ---    0.12785   0.13295   0.16000   0.16000   0.16000
     Eigenvalues ---    0.21934   0.21977   0.23409   0.25000   0.25000
     Eigenvalues ---    0.29514   0.29687   0.30991   0.31028   0.33319
     Eigenvalues ---    0.33550   0.33612   0.33724   0.34005   0.37230
     Eigenvalues ---    0.37230   0.37230   0.67964   0.92099
 RFO step:  Lambda=-3.57421637D-02 EMin= 3.82071290D-03
 Linear search not attempted -- first point.
 Maximum step size (   0.300) exceeded in Quadratic search.
    -- Step size scaled by   0.931
 Iteration  1 RMS(Cart)=  0.11607441 RMS(Int)=  0.00709996
 Iteration  2 RMS(Cart)=  0.00989584 RMS(Int)=  0.00083941
 Iteration  3 RMS(Cart)=  0.00006532 RMS(Int)=  0.00083845
 Iteration  4 RMS(Cart)=  0.00000004 RMS(Int)=  0.00083845
 Variable       Old X    -DE/DX   Delta X   Delta X   Delta X     New X
                                 (Linear)    (Quad)   (Total)
    R1        2.45144  -0.03668   0.00000  -0.04772  -0.04772   2.40372
    R2        2.86029   0.02903   0.00000   0.07818   0.07818   2.93847
    R3        2.31980   0.05415   0.00000   0.05268   0.05268   2.37248
    R4        2.07798   0.02241   0.00000   0.05593   0.05593   2.13391
    R5        2.08496   0.00987   0.00000   0.02490   0.02490   2.10986
    R6        2.85960   0.00410   0.00000   0.01102   0.01102   2.87062
    R7        2.88592   0.00399   0.00000   0.01117   0.01117   2.89709
    R8        2.08096   0.02624   0.00000   0.06578   0.06578   2.14674
    R9        2.07321   0.01462   0.00000   0.03622   0.03622   2.10943
   R10        2.88943  -0.00521   0.00000  -0.01467  -0.01467   2.87476
   R11        2.02201   0.02749   0.00000   0.06270   0.06270   2.08471
   R12        2.02201   0.02535   0.00000   0.05783   0.05783   2.07983
   R13        2.02201   0.02397   0.00000   0.05468   0.05468   2.07669
   R14        2.07990   0.00946   0.00000   0.02368   0.02368   2.10358
    A1        2.04491   0.00808   0.00000   0.02620   0.02610   2.07102
    A2        2.12280   0.01952   0.00000   0.06347   0.06337   2.18618
    A3        2.11533  -0.02762   0.00000  -0.09006  -0.09016   2.02517
    A4        1.88823  -0.01458   0.00000  -0.06054  -0.06327   1.82496
    A5        1.87814  -0.00806   0.00000  -0.02549  -0.02700   1.85114
    A6        1.96899   0.03026   0.00000   0.12171   0.12051   2.08950
    A7        1.86182  -0.00131   0.00000  -0.04798  -0.04968   1.81214
    A8        1.92316  -0.00053   0.00000   0.02127   0.02162   1.94477
    A9        1.93940  -0.00778   0.00000  -0.02020  -0.02049   1.91891
   A10        1.90356  -0.00376   0.00000  -0.02980  -0.02967   1.87390
   A11        1.92363  -0.00022   0.00000  -0.01933  -0.01934   1.90429
   A12        1.95901  -0.00873   0.00000  -0.02564  -0.02519   1.93383
   A13        1.86228  -0.00445   0.00000  -0.03596  -0.03814   1.82414
   A14        1.88901   0.01165   0.00000   0.07820   0.07786   1.96686
   A15        1.92336   0.00582   0.00000   0.03302   0.03238   1.95574
   A16        1.91063   0.01089   0.00000   0.05424   0.05391   1.96454
   A17        1.91063  -0.00779   0.00000  -0.04074  -0.04029   1.87034
   A18        1.91063   0.00503   0.00000   0.02511   0.02456   1.93519
   A19        1.91063  -0.00213   0.00000  -0.01256  -0.01193   1.89871
   A20        1.91063  -0.00617   0.00000  -0.02196  -0.02314   1.88750
   A21        1.91063   0.00018   0.00000  -0.00410  -0.00388   1.90676
   A22        2.02680  -0.02094   0.00000  -0.07736  -0.07797   1.94883
   A23        1.90260   0.00686   0.00000   0.01482   0.01357   1.91617
   A24        1.88534   0.00425   0.00000  -0.00169  -0.00234   1.88300
    D1        2.61707   0.00837   0.00000   0.07920   0.07733   2.69440
    D2       -1.66061  -0.00459   0.00000  -0.02017  -0.01920  -1.67981
    D3        0.48495  -0.00045   0.00000   0.01544   0.01634   0.50129
    D4       -0.54225   0.00731   0.00000   0.05557   0.05370  -0.48855
    D5        1.46326  -0.00565   0.00000  -0.04380  -0.04283   1.42043
    D6       -2.67437  -0.00150   0.00000  -0.00819  -0.00729  -2.68165
    D7        2.99057  -0.00495   0.00000  -0.06852  -0.06755   2.92303
    D8        0.85708  -0.00104   0.00000  -0.02266  -0.02167   0.83541
    D9        0.87822  -0.00653   0.00000  -0.08911  -0.09055   0.78767
   D10       -1.25527  -0.00262   0.00000  -0.04324  -0.04468  -1.29995
   D11       -1.18159   0.00027   0.00000  -0.03054  -0.03009  -1.21168
   D12        2.96810   0.00418   0.00000   0.01532   0.01579   2.98388
   D13        1.57258  -0.00475   0.00000  -0.05765  -0.05690   1.51569
   D14       -2.61621  -0.00547   0.00000  -0.06477  -0.06460  -2.68081
   D15       -0.52181  -0.00694   0.00000  -0.07936  -0.07945  -0.60126
   D16       -0.46642   0.00297   0.00000   0.01445   0.01473  -0.45169
   D17        1.62798   0.00225   0.00000   0.00733   0.00702   1.63500
   D18       -2.56081   0.00077   0.00000  -0.00725  -0.00782  -2.56864
   D19       -2.61738   0.00179   0.00000   0.00407   0.00447  -2.61291
   D20       -0.52298   0.00107   0.00000  -0.00305  -0.00323  -0.52622
   D21        1.57141  -0.00040   0.00000  -0.01764  -0.01808   1.55334
   D22       -2.69034  -0.00034   0.00000  -0.02406  -0.02439  -2.71473
   D23       -0.54777  -0.00265   0.00000  -0.06022  -0.05987  -0.60764
   D24       -0.58866  -0.00268   0.00000  -0.02494  -0.02597  -0.61464
   D25        1.55390  -0.00498   0.00000  -0.06110  -0.06145   1.49245
   D26        1.44173   0.00188   0.00000  -0.00505  -0.00471   1.43702
   D27       -2.69889  -0.00043   0.00000  -0.04121  -0.04019  -2.73907
         Item               Value     Threshold  Converged?
 Maximum Force            0.054147     0.000450     NO 
 RMS     Force            0.013963     0.000300     NO 
 Maximum Displacement     0.335570     0.001800     NO 
 RMS     Displacement     0.118102     0.001200     NO 
 Predicted change in Energy=-2.029685D-02
 GradGradGradGradGradGradGradGradGradGradGradGradGradGradGradGradGradGrad

                          Input orientation:                          
 ---------------------------------------------------------------------
 Center     Atomic      Atomic             Coordinates (Angstroms)
 Number     Number       Type             X           Y           Z
 ---------------------------------------------------------------------
      1          8           0       -1.157595    2.510662    0.766185
      2          6           0       -0.259156    3.409568    0.818544
      3          6           0        1.137865    3.035336    1.389699
      4          8           0       -0.414744    4.610014    0.485514
      5          1           0        1.847421    3.770475    0.908832
      6          1           0        1.124503    3.340742    2.463523
      7          6           0        3.126914    1.509321    1.596171
      8          6           0        3.756932    0.288722    0.915335
      9          1           0        3.713734    2.423481    1.263805
     10          1           0        3.305624    1.446890    2.696264
     11          1           0        4.597599   -0.131264    1.493176
     12          1           0        2.970339   -0.476012    0.827153
     13          6           0        1.646016    1.609418    1.262781
     14          1           0        1.505680    1.250897    0.218314
     15          1           0        4.125719    0.546415   -0.087288
 ---------------------------------------------------------------------
                    Distance matrix (angstroms):
                    1          2          3          4          5
     1  O    0.000000
     2  C    1.271992   0.000000
     3  C    2.435813   1.554971   0.000000
     4  O    2.244522   1.255463   2.389090   0.000000
     5  H    3.261533   2.139176   1.129218   2.449779   0.000000
     6  H    2.962762   2.150630   1.116490   2.809422   1.767582
     7  C    4.477564   3.959939   2.515487   4.836445   2.687444
     8  C    5.395539   5.087044   3.824713   6.021727   3.971005
     9  H    4.897455   4.117582   2.650532   4.736137   2.328846
    10  H    4.977664   4.481696   2.988219   5.360402   3.274189
    11  H    6.374209   6.048197   4.691250   6.972709   4.809210
    12  H    5.095466   5.052469   4.000498   6.119082   4.393207
    13  C    2.986483   2.658489   1.519068   3.722156   2.199093
    14  H    2.996699   2.852154   2.166023   3.878542   2.634744
    15  H    5.700884   5.314631   4.159747   6.120191   4.071542
                    6          7          8          9         10
     6  H    0.000000
     7  C    2.848869   0.000000
     8  C    4.317569   1.533076   0.000000
     9  H    2.997467   1.136008   2.163445   0.000000
    10  H    2.897953   1.116262   2.171806   1.781073   0.000000
    11  H    5.005876   2.205683   1.103181   2.713033   2.367951
    12  H    4.544494   2.134819   1.100601   3.024956   2.702507
    13  C    2.170539   1.521259   2.514145   2.222197   2.198998
    14  H    3.090908   2.143285   2.545536   2.709891   3.068949
    15  H    4.829306   2.181474   1.098937   2.349161   3.038350
                   11         12         13         14         15
    11  H    0.000000
    12  H    1.791762   0.000000
    13  C    3.434370   2.508510   0.000000
    14  H    3.618784   2.344808   1.113168   0.000000
    15  H    1.783195   1.793450   3.016884   2.730254   0.000000
 Stoichiometry    C5H8O2(2-)
 Framework group  C1[X(C5H8O2)]
 Deg. of freedom    39
 Full point group                 C1      NOp   1
 Largest Abelian subgroup         C1      NOp   1
 Largest concise Abelian subgroup C1      NOp   1
                         Standard orientation:                         
 ---------------------------------------------------------------------
 Center     Atomic      Atomic             Coordinates (Angstroms)
 Number     Number       Type             X           Y           Z
 ---------------------------------------------------------------------
      1          8           0        2.041648    1.284245    0.169515
      2          6           0        1.834607    0.045293   -0.030724
      3          6           0        0.434408   -0.540910    0.306537
      4          8           0        2.690834   -0.775274   -0.442709
      5          1           0        0.335214   -1.443413   -0.364867
      6          1           0        0.520942   -0.978093    1.330223
      7          6           0       -2.079765   -0.461733    0.288230
      8          6           0       -3.234429    0.296238   -0.377018
      9          1           0       -1.989739   -1.467377   -0.232431
     10          1           0       -2.364983   -0.714431    1.337437
     11          1           0       -4.212677    0.057559    0.073614
     12          1           0       -3.036172    1.370787   -0.245256
     13          6           0       -0.794051    0.348946    0.225234
     14          1           0       -0.790200    0.909739   -0.736347
     15          1           0       -3.286860    0.066452   -1.450382
 ---------------------------------------------------------------------
 Rotational constants (GHZ):           7.4810046           1.0727681           0.9910816
 Standard basis: def2SVP (5D, 7F)
 There are   145 symmetry adapted cartesian basis functions of A   symmetry.
 There are   138 symmetry adapted basis functions of A   symmetry.
   138 basis functions,   231 primitive gaussians,   145 cartesian basis functions
    28 alpha electrons       28 beta electrons
       nuclear repulsion energy       277.5911480835 Hartrees.
 NAtoms=   15 NActive=   15 NUniq=   15 SFac= 1.00D+00 NAtFMM=   60 NAOKFM=F Big=F
 Integral buffers will be    131072 words long.
 Raffenetti 2 integral format.
 Two-electron integral symmetry is turned on.
 One-electron integrals computed using PRISM.
   1 Symmetry operations used in ECPInt.
 ECPInt:  NShTT=    2211 NPrTT=    7865 LenC2=    2157 LenP2D=    6176.
 LDataN:  DoStor=T MaxTD1= 4 Len=   56
 NBasis=   138 RedAO= T EigKep=  1.51D-03  NBF=   138
 NBsUse=   138 1.00D-06 EigRej= -1.00D+00 NBFU=   138
 Initial guess from the checkpoint file:  "5PQ_Me_ts1_b_no_pd_opt.chk"
 B after Tr=    -0.000000    0.000000   -0.000000
         Rot=    0.999329    0.035661   -0.002239    0.008026 Ang=   4.20 deg.
 ExpMin= 1.22D-01 ExpMax= 2.27D+03 ExpMxC= 3.41D+02 IAcc=3 IRadAn=         5 AccDes= 0.00D+00
 Harris functional with IExCor= 1009 and IRadAn=       5 diagonalized for initial guess.
 HarFok:  IExCor= 1009 AccDes= 0.00D+00 IRadAn=         5 IDoV= 1 UseB2=F ITyADJ=14
 ICtDFT=  3500011 ScaDFX=  1.000000  1.000000  1.000000  1.000000
 FoFCou: FMM=F IPFlag=           0 FMFlag=      100000 FMFlg1=           0
         NFxFlg=           0 DoJE=T BraDBF=F KetDBF=T FulRan=T
         wScrn=  0.000000 ICntrl=       500 IOpCl=  0 I1Cent=   200000004 NGrid=           0
         NMat0=    1 NMatS0=      1 NMatT0=    0 NMatD0=    1 NMtDS0=    0 NMtDT0=    0
 Petite list used in FoFCou.
 Requested convergence on RMS density matrix=1.00D-08 within 128 cycles.
 Requested convergence on MAX density matrix=1.00D-06.
 Requested convergence on             energy=1.00D-06.
 No special actions if energy rises.
 Integral accuracy reduced to 1.0D-05 until final iterations.
 Initial convergence to 1.0D-05 achieved.  Increase integral accuracy.
 SCF Done:  E(RMN15) =  -344.904497531     A.U. after   17 cycles
            NFock= 17  Conv=0.82D-08     -V/T= 2.0104
   1 Symmetry operations used in ECPInt.
 ECPInt:  NShTT=    2211 NPrTT=    7865 LenC2=    2157 LenP2D=    6176.
 LDataN:  DoStor=T MaxTD1= 5 Len=  102
 Calling FoFJK, ICntrl=      2127 FMM=F ISym2X=0 I1Cent= 0 IOpClX= 0 NMat=1 NMatS=1 NMatT=0.
 ***** Axes restored to original set *****
 -------------------------------------------------------------------
 Center     Atomic                   Forces (Hartrees/Bohr)
 Number     Number              X              Y              Z
 -------------------------------------------------------------------
      1        8           0.014852602    0.012416698    0.000450587
      2        6          -0.021835615   -0.021152415    0.002033699
      3        6           0.005151257   -0.011662305   -0.004729769
      4        8           0.001749470    0.011369298   -0.002580683
      5        1           0.001009673    0.005884359    0.002056606
      6        1           0.000177806    0.003086715    0.001530268
      7        6          -0.021141834   -0.000892301   -0.007690071
      8        6           0.000935437    0.006021441    0.004968637
      9        1           0.008490672    0.003261498    0.001441445
     10        1           0.003251084    0.002203973    0.002671019
     11        1           0.004919794   -0.003410161   -0.000626047
     12        1          -0.002398285   -0.002861572    0.001319002
     13        6           0.003167436   -0.004706582    0.007194442
     14        1           0.001065265    0.001813570   -0.003946743
     15        1           0.000605237   -0.001372216   -0.004092391
 -------------------------------------------------------------------
 Cartesian Forces:  Max     0.021835615 RMS     0.007498076

 GradGradGradGradGradGradGradGradGradGradGradGradGradGradGradGradGradGrad
 Berny optimization.
 Using GEDIIS/GDIIS optimizer.
 FormGI is forming the generalized inverse of G from B-inverse, IUseBI=4.
 Internal  Forces:  Max     0.019284073 RMS     0.003758724
 Search for a local minimum.
 Step number   2 out of a maximum of   75
 All quantities printed in internal units (Hartrees-Bohrs-Radians)
 Mixed Optimization -- RFO/linear search
 Update second derivatives using D2CorX and points    1    2
 DE= -2.02D-02 DEPred=-2.03D-02 R= 9.97D-01
 TightC=F SS=  1.41D+00  RLast= 3.77D-01 DXNew= 5.0454D-01 1.1315D+00
 Trust test= 9.97D-01 RLast= 3.77D-01 DXMaxT set to 5.05D-01
 ITU=  1  0
 Use linear search instead of GDIIS.
     Eigenvalues ---    0.00380   0.00406   0.00586   0.00593   0.00609
     Eigenvalues ---    0.02664   0.03990   0.04141   0.05394   0.05447
     Eigenvalues ---    0.05931   0.06200   0.08962   0.10704   0.11006
     Eigenvalues ---    0.12673   0.13926   0.15729   0.16000   0.16021
     Eigenvalues ---    0.21823   0.22534   0.23736   0.24924   0.25472
     Eigenvalues ---    0.29144   0.29671   0.30929   0.31222   0.33008
     Eigenvalues ---    0.33349   0.33602   0.33820   0.33990   0.37181
     Eigenvalues ---    0.37230   0.37384   0.65277   0.90698
 RFO step:  Lambda=-5.81235535D-03 EMin= 3.80465045D-03
 Quartic linear search produced a step of  0.36131.
 Iteration  1 RMS(Cart)=  0.14597038 RMS(Int)=  0.01402965
 Iteration  2 RMS(Cart)=  0.01827713 RMS(Int)=  0.00083583
 Iteration  3 RMS(Cart)=  0.00023740 RMS(Int)=  0.00081906
 Iteration  4 RMS(Cart)=  0.00000012 RMS(Int)=  0.00081906
 Variable       Old X    -DE/DX   Delta X   Delta X   Delta X     New X
                                 (Linear)    (Quad)   (Total)
    R1        2.40372  -0.01928  -0.01724  -0.02196  -0.03920   2.36452
    R2        2.93847   0.00537   0.02825  -0.00343   0.02481   2.96328
    R3        2.37248   0.01134   0.01903  -0.00093   0.01811   2.39059
    R4        2.13391   0.00359   0.02021  -0.00470   0.01551   2.14942
    R5        2.10986   0.00231   0.00900   0.00081   0.00981   2.11967
    R6        2.87062  -0.00053   0.00398  -0.00594  -0.00195   2.86867
    R7        2.89709   0.00226   0.00404   0.00627   0.01031   2.90740
    R8        2.14674   0.00659   0.02377   0.00385   0.02762   2.17436
    R9        2.10943   0.00303   0.01309  -0.00038   0.01271   2.12213
   R10        2.87476  -0.00583  -0.00530  -0.02104  -0.02634   2.84842
   R11        2.08471   0.00472   0.02266  -0.00421   0.01845   2.10316
   R12        2.07983   0.00360   0.02089  -0.00656   0.01433   2.09417
   R13        2.07669   0.00362   0.01976  -0.00544   0.01431   2.09100
   R14        2.10358   0.00298   0.00856   0.00377   0.01233   2.11591
    A1        2.07102   0.00021   0.00943  -0.00622   0.00103   2.07204
    A2        2.18618   0.00370   0.02290  -0.00054   0.02017   2.20635
    A3        2.02517  -0.00387  -0.03258   0.01170  -0.02306   2.00211
    A4        1.82496  -0.00274  -0.02286   0.01065  -0.01464   1.81033
    A5        1.85114  -0.00206  -0.00975  -0.01655  -0.02683   1.82431
    A6        2.08950   0.00355   0.04354  -0.01244   0.02998   2.11949
    A7        1.81214  -0.00212  -0.01795  -0.02671  -0.04550   1.76664
    A8        1.94477   0.00262   0.00781   0.03697   0.04432   1.98909
    A9        1.91891  -0.00024  -0.00740   0.00362  -0.00339   1.91552
   A10        1.87390  -0.00136  -0.01072  -0.00303  -0.01445   1.85945
   A11        1.90429  -0.00117  -0.00699  -0.01406  -0.02131   1.88298
   A12        1.93383  -0.00022  -0.00910   0.01738   0.00829   1.94212
   A13        1.82414  -0.00233  -0.01378  -0.03626  -0.05162   1.77252
   A14        1.96686   0.00308   0.02813   0.02075   0.04870   2.01556
   A15        1.95574   0.00169   0.01170   0.01106   0.02266   1.97840
   A16        1.96454   0.00483   0.01948   0.02331   0.04236   2.00691
   A17        1.87034  -0.00191  -0.01456  -0.00556  -0.01974   1.85060
   A18        1.93519   0.00216   0.00887   0.01038   0.01866   1.95386
   A19        1.89871  -0.00155  -0.00431  -0.01083  -0.01464   1.88406
   A20        1.88750  -0.00305  -0.00836  -0.00913  -0.01863   1.86887
   A21        1.90676  -0.00062  -0.00140  -0.00929  -0.01049   1.89626
   A22        1.94883  -0.00277  -0.02817   0.00246  -0.02651   1.92232
   A23        1.91617   0.00084   0.00490  -0.01720  -0.01389   1.90228
   A24        1.88300  -0.00051  -0.00085  -0.02710  -0.02899   1.85401
    D1        2.69440   0.00199   0.02794  -0.06211  -0.03522   2.65918
    D2       -1.67981  -0.00222  -0.00694  -0.09368  -0.09980  -1.77961
    D3        0.50129  -0.00173   0.00590  -0.11289  -0.10659   0.39470
    D4       -0.48855   0.00295   0.01940   0.06154   0.07979  -0.40876
    D5        1.42043  -0.00126  -0.01547   0.02997   0.01520   1.43563
    D6       -2.68165  -0.00077  -0.00263   0.01076   0.00841  -2.67324
    D7        2.92303  -0.00083  -0.02441  -0.03018  -0.05364   2.86939
    D8        0.83541   0.00102  -0.00783   0.01355   0.00646   0.84186
    D9        0.78767  -0.00230  -0.03272  -0.06916  -0.10296   0.68471
   D10       -1.29995  -0.00045  -0.01614  -0.02544  -0.04286  -1.34281
   D11       -1.21168  -0.00109  -0.01087  -0.06012  -0.07056  -1.28224
   D12        2.98388   0.00076   0.00570  -0.01640  -0.01046   2.97342
   D13        1.51569  -0.00277  -0.02056  -0.13765  -0.15738   1.35831
   D14       -2.68081  -0.00307  -0.02334  -0.14086  -0.16386  -2.84467
   D15       -0.60126  -0.00376  -0.02871  -0.14962  -0.17825  -0.77950
   D16       -0.45169   0.00120   0.00532  -0.08711  -0.08174  -0.53343
   D17        1.63500   0.00090   0.00254  -0.09033  -0.08822   1.54678
   D18       -2.56864   0.00020  -0.00283  -0.09908  -0.10261  -2.67124
   D19       -2.61291   0.00001   0.00162  -0.10306  -0.10109  -2.71400
   D20       -0.52622  -0.00029  -0.00117  -0.10628  -0.10758  -0.63379
   D21        1.55334  -0.00098  -0.00653  -0.11503  -0.12196   1.43138
   D22       -2.71473  -0.00135  -0.00881  -0.18947  -0.19888  -2.91362
   D23       -0.60764  -0.00233  -0.02163  -0.22697  -0.24841  -0.85606
   D24       -0.61464  -0.00114  -0.00938  -0.16686  -0.17665  -0.79129
   D25        1.49245  -0.00212  -0.02220  -0.20437  -0.22618   1.26627
   D26        1.43702  -0.00089  -0.00170  -0.19160  -0.19349   1.24354
   D27       -2.73907  -0.00187  -0.01452  -0.22910  -0.24302  -2.98209
         Item               Value     Threshold  Converged?
 Maximum Force            0.019284     0.000450     NO 
 RMS     Force            0.003759     0.000300     NO 
 Maximum Displacement     0.510587     0.001800     NO 
 RMS     Displacement     0.153817     0.001200     NO 
 Predicted change in Energy=-4.650039D-03
 GradGradGradGradGradGradGradGradGradGradGradGradGradGradGradGradGradGrad

                          Input orientation:                          
 ---------------------------------------------------------------------
 Center     Atomic      Atomic             Coordinates (Angstroms)
 Number     Number       Type             X           Y           Z
 ---------------------------------------------------------------------
      1          8           0       -1.128005    2.557785    0.559307
      2          6           0       -0.283385    3.435705    0.844780
      3          6           0        1.103990    2.987233    1.421849
      4          8           0       -0.393555    4.678987    0.638743
      5          1           0        1.810712    3.819367    1.102741
      6          1           0        1.025249    3.178524    2.524289
      7          6           0        3.119664    1.543993    1.501462
      8          6           0        3.766429    0.253554    0.968973
      9          1           0        3.743985    2.417831    1.088468
     10          1           0        3.338316    1.611125    2.600907
     11          1           0        4.691081   -0.063172    1.501275
     12          1           0        3.008170   -0.544344    1.097345
     13          6           0        1.647517    1.590437    1.181084
     14          1           0        1.556464    1.346696    0.092044
     15          1           0        4.020218    0.330942   -0.105257
 ---------------------------------------------------------------------
                    Distance matrix (angstroms):
                    1          2          3          4          5
     1  O    0.000000
     2  C    1.251248   0.000000
     3  C    2.431091   1.568102   0.000000
     4  O    2.246158   1.265045   2.391218   0.000000
     5  H    3.243913   2.144524   1.137424   2.411023   0.000000
     6  H    2.980432   2.144625   1.121680   2.796368   1.745975
     7  C    4.467452   3.948487   2.480368   4.786980   2.655120
     8  C    5.425200   5.151942   3.842744   6.082678   4.069121
     9  H    4.902641   4.161149   2.721201   4.736488   2.387897
    10  H    5.001232   4.419253   2.876815   5.214281   3.074802
    11  H    6.451238   6.117061   4.709406   7.006108   4.850718
    12  H    5.198137   5.170968   4.025325   6.250218   4.525031
    13  C    3.004312   2.691932   1.518034   3.741557   2.236269
    14  H    2.981853   2.883682   2.159740   3.899439   2.683329
    15  H    5.648423   5.391023   4.229932   6.240226   4.302358
                    6          7          8          9         10
     6  H    0.000000
     7  C    2.846830   0.000000
     8  C    4.299828   1.538532   0.000000
     9  H    3.167295   1.150623   2.167689   0.000000
    10  H    2.795155   1.122985   2.165522   1.761480   0.000000
    11  H    4.999347   2.247739   1.112943   2.687522   2.417112
    12  H    4.452852   2.129998   1.108186   3.052209   2.648724
    13  C    2.171045   1.507321   2.514366   2.255734   2.207969
    14  H    3.090890   2.113996   2.616850   2.631623   3.088578
    15  H    4.898272   2.205456   1.106511   2.419997   3.070371
                   11         12         13         14         15
    11  H    0.000000
    12  H    1.796350   0.000000
    13  C    3.478538   2.532919   0.000000
    14  H    3.714765   2.587297   1.119692   0.000000
    15  H    1.785029   1.799060   2.978374   2.672221   0.000000
 Stoichiometry    C5H8O2(2-)
 Framework group  C1[X(C5H8O2)]
 Deg. of freedom    39
 Full point group                 C1      NOp   1
 Largest Abelian subgroup         C1      NOp   1
 Largest concise Abelian subgroup C1      NOp   1
                         Standard orientation:                         
 ---------------------------------------------------------------------
 Center     Atomic      Atomic             Coordinates (Angstroms)
 Number     Number       Type             X           Y           Z
 ---------------------------------------------------------------------
      1          8           0        2.042836    1.295300    0.114466
      2          6           0        1.859794    0.061687    0.012895
      3          6           0        0.430933   -0.514607    0.304758
      4          8           0        2.702158   -0.791825   -0.389943
      5          1           0        0.385777   -1.457944   -0.329127
      6          1           0        0.507819   -0.948294    1.336344
      7          6           0       -2.044977   -0.506409    0.156339
      8          6           0       -3.278580    0.310180   -0.266138
      9          1           0       -1.990980   -1.409665   -0.554396
     10          1           0       -2.279537   -1.004115    1.135301
     11          1           0       -4.254743   -0.103695    0.072175
     12          1           0       -3.154689    1.311313    0.192622
     13          6           0       -0.809174    0.355236    0.205073
     14          1           0       -0.782264    0.918700   -0.762136
     15          1           0       -3.339303    0.429381   -1.364533
 ---------------------------------------------------------------------
 Rotational constants (GHZ):           7.6537579           1.0679614           0.9781659
 Standard basis: def2SVP (5D, 7F)
 There are   145 symmetry adapted cartesian basis functions of A   symmetry.
 There are   138 symmetry adapted basis functions of A   symmetry.
   138 basis functions,   231 primitive gaussians,   145 cartesian basis functions
    28 alpha electrons       28 beta electrons
       nuclear repulsion energy       277.2664351482 Hartrees.
 NAtoms=   15 NActive=   15 NUniq=   15 SFac= 1.00D+00 NAtFMM=   60 NAOKFM=F Big=F
 Integral buffers will be    131072 words long.
 Raffenetti 2 integral format.
 Two-electron integral symmetry is turned on.
 One-electron integrals computed using PRISM.
   1 Symmetry operations used in ECPInt.
 ECPInt:  NShTT=    2211 NPrTT=    7865 LenC2=    2157 LenP2D=    6173.
 LDataN:  DoStor=T MaxTD1= 4 Len=   56
 NBasis=   138 RedAO= T EigKep=  1.46D-03  NBF=   138
 NBsUse=   138 1.00D-06 EigRej= -1.00D+00 NBFU=   138
 Initial guess from the checkpoint file:  "5PQ_Me_ts1_b_no_pd_opt.chk"
 B after Tr=     0.000000   -0.000000    0.000000
         Rot=    0.999788   -0.020481   -0.000784   -0.001923 Ang=  -2.36 deg.
 ExpMin= 1.22D-01 ExpMax= 2.27D+03 ExpMxC= 3.41D+02 IAcc=3 IRadAn=         5 AccDes= 0.00D+00
 Harris functional with IExCor= 1009 and IRadAn=       5 diagonalized for initial guess.
 HarFok:  IExCor= 1009 AccDes= 0.00D+00 IRadAn=         5 IDoV= 1 UseB2=F ITyADJ=14
 ICtDFT=  3500011 ScaDFX=  1.000000  1.000000  1.000000  1.000000
 FoFCou: FMM=F IPFlag=           0 FMFlag=      100000 FMFlg1=           0
         NFxFlg=           0 DoJE=T BraDBF=F KetDBF=T FulRan=T
         wScrn=  0.000000 ICntrl=       500 IOpCl=  0 I1Cent=   200000004 NGrid=           0
         NMat0=    1 NMatS0=      1 NMatT0=    0 NMatD0=    1 NMtDS0=    0 NMtDT0=    0
 Petite list used in FoFCou.
 Requested convergence on RMS density matrix=1.00D-08 within 128 cycles.
 Requested convergence on MAX density matrix=1.00D-06.
 Requested convergence on             energy=1.00D-06.
 No special actions if energy rises.
 Integral accuracy reduced to 1.0D-05 until final iterations.
 Initial convergence to 1.0D-05 achieved.  Increase integral accuracy.
 SCF Done:  E(RMN15) =  -344.908178865     A.U. after   17 cycles
            NFock= 17  Conv=0.32D-08     -V/T= 2.0105
   1 Symmetry operations used in ECPInt.
 ECPInt:  NShTT=    2211 NPrTT=    7865 LenC2=    2157 LenP2D=    6173.
 LDataN:  DoStor=T MaxTD1= 5 Len=  102
 Calling FoFJK, ICntrl=      2127 FMM=F ISym2X=0 I1Cent= 0 IOpClX= 0 NMat=1 NMatS=1 NMatT=0.
 ***** Axes restored to original set *****
 -------------------------------------------------------------------
 Center     Atomic                   Forces (Hartrees/Bohr)
 Number     Number              X              Y              Z
 -------------------------------------------------------------------
      1        8          -0.005155448   -0.001809721    0.004060581
      2        6           0.009209015    0.000109021   -0.015376996
      3        6           0.000395403    0.001490561    0.005143380
      4        8          -0.003598324    0.001336904    0.005954782
      5        1          -0.001523848   -0.001539970   -0.000421100
      6        1           0.000891827    0.000792342    0.001100066
      7        6          -0.001786008   -0.002627784   -0.001968063
      8        6           0.001885542   -0.001312483    0.003706074
      9        1           0.002774594    0.000368171    0.000672291
     10        1          -0.002863693    0.000305760   -0.001246942
     11        1           0.000217187    0.001936901   -0.001548514
     12        1           0.000597659    0.000723960   -0.000939549
     13        6           0.001718643   -0.000169629    0.001185933
     14        1          -0.000718377    0.001058233   -0.000562919
     15        1          -0.002044172   -0.000662265    0.000240976
 -------------------------------------------------------------------
 Cartesian Forces:  Max     0.015376996 RMS     0.003413168

 GradGradGradGradGradGradGradGradGradGradGradGradGradGradGradGradGradGrad
 Berny optimization.
 Using GEDIIS/GDIIS optimizer.
 FormGI is forming the generalized inverse of G from B-inverse, IUseBI=4.
 Internal  Forces:  Max     0.005218527 RMS     0.001785826
 Search for a local minimum.
 Step number   3 out of a maximum of   75
 All quantities printed in internal units (Hartrees-Bohrs-Radians)
 Mixed Optimization -- RFO/linear search
 Update second derivatives using D2CorX and points    2    3
 DE= -3.68D-03 DEPred=-4.65D-03 R= 7.92D-01
 TightC=F SS=  1.41D+00  RLast= 7.06D-01 DXNew= 8.4853D-01 2.1178D+00
 Trust test= 7.92D-01 RLast= 7.06D-01 DXMaxT set to 8.49D-01
 ITU=  1  1  0
 Use linear search instead of GDIIS.
     Eigenvalues ---    0.00220   0.00399   0.00580   0.00602   0.01441
     Eigenvalues ---    0.03070   0.03846   0.03947   0.05125   0.05181
     Eigenvalues ---    0.05887   0.06104   0.08884   0.10369   0.11141
     Eigenvalues ---    0.12799   0.14000   0.15815   0.16006   0.16023
     Eigenvalues ---    0.21639   0.22607   0.23878   0.25034   0.25450
     Eigenvalues ---    0.28433   0.29709   0.30805   0.31158   0.32675
     Eigenvalues ---    0.33363   0.33611   0.33873   0.34210   0.37210
     Eigenvalues ---    0.37231   0.37537   0.65913   0.90171
 RFO step:  Lambda=-6.92708456D-03 EMin= 2.20105121D-03
 Quartic linear search produced a step of -0.05744.
 Iteration  1 RMS(Cart)=  0.10523564 RMS(Int)=  0.01974066
 Iteration  2 RMS(Cart)=  0.02250837 RMS(Int)=  0.00684979
 Iteration  3 RMS(Cart)=  0.00091708 RMS(Int)=  0.00678707
 Iteration  4 RMS(Cart)=  0.00001474 RMS(Int)=  0.00678705
 Iteration  5 RMS(Cart)=  0.00000038 RMS(Int)=  0.00678705
 Variable       Old X    -DE/DX   Delta X   Delta X   Delta X     New X
                                 (Linear)    (Quad)   (Total)
    R1        2.36452   0.00382   0.00225  -0.03260  -0.03034   2.33417
    R2        2.96328   0.00147  -0.00143   0.02379   0.02237   2.98565
    R3        2.39059   0.00066  -0.00104   0.01592   0.01488   2.40547
    R4        2.14942  -0.00196  -0.00089   0.00831   0.00742   2.15684
    R5        2.11967   0.00115  -0.00056   0.01087   0.01030   2.12997
    R6        2.86867   0.00034   0.00011  -0.00172  -0.00160   2.86707
    R7        2.90740  -0.00080  -0.00059   0.00767   0.00708   2.91448
    R8        2.17436   0.00154  -0.00159   0.02716   0.02558   2.19994
    R9        2.12213  -0.00176  -0.00073   0.00700   0.00627   2.12841
   R10        2.84842  -0.00138   0.00151  -0.02854  -0.02703   2.82140
   R11        2.10316  -0.00111  -0.00106   0.01290   0.01184   2.11499
   R12        2.09417  -0.00104  -0.00082   0.00921   0.00839   2.10256
   R13        2.09100  -0.00075  -0.00082   0.00991   0.00909   2.10009
   R14        2.11591   0.00038  -0.00071   0.01176   0.01105   2.12696
    A1        2.07204   0.00054  -0.00006   0.01158  -0.01860   2.05344
    A2        2.20635  -0.00139  -0.00116   0.02304  -0.01091   2.19544
    A3        2.00211   0.00151   0.00132  -0.00325  -0.03226   1.96985
    A4        1.81033   0.00013   0.00084  -0.01475  -0.01449   1.79583
    A5        1.82431   0.00114   0.00154  -0.01756  -0.01605   1.80827
    A6        2.11949  -0.00180  -0.00172   0.01611   0.01412   2.13361
    A7        1.76664  -0.00020   0.00261  -0.03865  -0.03616   1.73048
    A8        1.98909   0.00076  -0.00255   0.04040   0.03770   2.02679
    A9        1.91552   0.00025   0.00019   0.00028   0.00065   1.91617
   A10        1.85945  -0.00196   0.00083  -0.01638  -0.01654   1.84291
   A11        1.88298   0.00026   0.00122  -0.01766  -0.01657   1.86641
   A12        1.94212   0.00305  -0.00048   0.01935   0.01849   1.96061
   A13        1.77252   0.00029   0.00296  -0.04817  -0.04550   1.72702
   A14        2.01556   0.00074  -0.00280   0.05038   0.04752   2.06307
   A15        1.97840  -0.00266  -0.00130   0.00312   0.00211   1.98051
   A16        2.00691  -0.00057  -0.00243   0.03735   0.03474   2.04165
   A17        1.85060   0.00060   0.00113  -0.01335  -0.01219   1.83842
   A18        1.95386  -0.00043  -0.00107   0.01209   0.01083   1.96468
   A19        1.88406   0.00092   0.00084  -0.00400  -0.00313   1.88093
   A20        1.86887   0.00039   0.00107  -0.01716  -0.01641   1.85246
   A21        1.89626  -0.00093   0.00060  -0.01799  -0.01736   1.87890
   A22        1.92232   0.00096   0.00152  -0.01644  -0.01509   1.90723
   A23        1.90228  -0.00096   0.00080  -0.01392  -0.01342   1.88886
   A24        1.85401   0.00073   0.00167  -0.01651  -0.01514   1.83887
    D1        2.65918   0.00373   0.00202   0.20370   0.20166   2.86084
    D2       -1.77961   0.00393   0.00573   0.15112   0.15319  -1.62642
    D3        0.39470   0.00400   0.00612   0.14720   0.14956   0.54426
    D4       -0.40876  -0.00522  -0.00458  -0.22650  -0.22749  -0.63625
    D5        1.43563  -0.00502  -0.00087  -0.27908  -0.27596   1.15967
    D6       -2.67324  -0.00495  -0.00048  -0.28300  -0.27959  -2.95284
    D7        2.86939   0.00032   0.00308  -0.00982  -0.00646   2.86292
    D8        0.84186  -0.00055  -0.00037   0.02739   0.02718   0.86904
    D9        0.68471   0.00107   0.00591  -0.04589  -0.04021   0.64451
   D10       -1.34281   0.00020   0.00246  -0.00868  -0.00656  -1.34937
   D11       -1.28224   0.00072   0.00405  -0.02152  -0.01734  -1.29958
   D12        2.97342  -0.00015   0.00060   0.01569   0.01630   2.98972
   D13        1.35831  -0.00188   0.00904  -0.14795  -0.13855   1.21976
   D14       -2.84467  -0.00064   0.00941  -0.14020  -0.13051  -2.97518
   D15       -0.77950  -0.00162   0.01024  -0.16352  -0.15309  -0.93259
   D16       -0.53343  -0.00146   0.00470  -0.07883  -0.07426  -0.60769
   D17        1.54678  -0.00022   0.00507  -0.07107  -0.06621   1.48056
   D18       -2.67124  -0.00120   0.00589  -0.09440  -0.08879  -2.76003
   D19       -2.71400  -0.00031   0.00581  -0.08328  -0.07746  -2.79145
   D20       -0.63379   0.00093   0.00618  -0.07552  -0.06941  -0.70320
   D21        1.43138  -0.00005   0.00701  -0.09885  -0.09199   1.33939
   D22       -2.91362  -0.00023   0.01142  -0.12577  -0.11476  -3.02838
   D23       -0.85606  -0.00045   0.01427  -0.16029  -0.14632  -1.00238
   D24       -0.79129   0.00015   0.01015  -0.09442  -0.08386  -0.87515
   D25        1.26627  -0.00007   0.01299  -0.12894  -0.11542   1.15084
   D26        1.24354  -0.00092   0.01111  -0.11942  -0.10848   1.13506
   D27       -2.98209  -0.00114   0.01396  -0.15395  -0.14004  -3.12213
         Item               Value     Threshold  Converged?
 Maximum Force            0.005219     0.000450     NO 
 RMS     Force            0.001786     0.000300     NO 
 Maximum Displacement     0.542856     0.001800     NO 
 RMS     Displacement     0.116031     0.001200     NO 
 Predicted change in Energy=-5.159183D-03
 GradGradGradGradGradGradGradGradGradGradGradGradGradGradGradGradGradGrad

                          Input orientation:                          
 ---------------------------------------------------------------------
 Center     Atomic      Atomic             Coordinates (Angstroms)
 Number     Number       Type             X           Y           Z
 ---------------------------------------------------------------------
      1          8           0       -1.152973    2.614016    0.566896
      2          6           0       -0.274841    3.461051    0.759540
      3          6           0        1.101861    2.967226    1.357062
      4          8           0       -0.467316    4.708274    0.926011
      5          1           0        1.800923    3.844037    1.144475
      6          1           0        0.973525    3.105673    2.468272
      7          6           0        3.106488    1.552324    1.434963
      8          6           0        3.783489    0.228359    1.025813
      9          1           0        3.795507    2.396043    1.024286
     10          1           0        3.296581    1.691386    2.536365
     11          1           0        4.740545   -0.033682    1.543501
     12          1           0        3.041435   -0.566558    1.261185
     13          6           0        1.658478    1.584799    1.072586
     14          1           0        1.625546    1.414070   -0.039440
     15          1           0        3.997603    0.177649   -0.063507
 ---------------------------------------------------------------------
                    Distance matrix (angstroms):
                    1          2          3          4          5
     1  O    0.000000
     2  C    1.235191   0.000000
     3  C    2.415242   1.579938   0.000000
     4  O    2.232713   1.272920   2.383143   0.000000
     5  H    3.251469   2.145611   1.141349   2.437117   0.000000
     6  H    2.894641   2.145804   1.127132   2.650079   1.726906
     7  C    4.474789   3.941170   2.454902   4.794906   2.653456
     8  C    5.501874   5.195309   3.847368   6.176482   4.125260
     9  H    4.974351   4.215692   2.773575   4.850539   2.467691
    10  H    4.952634   4.363929   2.799164   5.085447   2.967871
    11  H    6.534341   6.162941   4.720193   7.070308   4.882346
    12  H    5.309534   5.241275   4.032216   6.344094   4.583213
    13  C    3.036325   2.712202   1.517186   3.781082   2.264865
    14  H    3.086695   2.905163   2.153313   4.020441   2.708717
    15  H    5.732515   5.450863   4.264396   6.437484   4.441511
                    6          7          8          9         10
     6  H    0.000000
     7  C    2.833753   0.000000
     8  C    4.272648   1.542276   0.000000
     9  H    3.248423   1.164157   2.167717   0.000000
    10  H    2.720558   1.126304   2.158540   1.741221   0.000000
    11  H    4.990110   2.279767   1.119207   2.658240   2.458998
    12  H    4.383902   2.126991   1.112626   3.066227   2.605666
    13  C    2.174893   1.493019   2.521465   2.286338   2.199407
    14  H    3.094394   2.094317   2.682795   2.608546   3.082861
    15  H    4.912054   2.220186   1.111321   2.478993   3.089040
                   11         12         13         14         15
    11  H    0.000000
    12  H    1.802951   0.000000
    13  C    3.512887   2.564464   0.000000
    14  H    3.782182   2.760300   1.125538   0.000000
    15  H    1.783003   1.795247   2.956735   2.675064   0.000000
 Stoichiometry    C5H8O2(2-)
 Framework group  C1[X(C5H8O2)]
 Deg. of freedom    39
 Full point group                 C1      NOp   1
 Largest Abelian subgroup         C1      NOp   1
 Largest concise Abelian subgroup C1      NOp   1
                         Standard orientation:                         
 ---------------------------------------------------------------------
 Center     Atomic      Atomic             Coordinates (Angstroms)
 Number     Number       Type             X           Y           Z
 ---------------------------------------------------------------------
      1          8           0        2.072124    1.282871    0.124348
      2          6           0        1.859678    0.091212   -0.121644
      3          6           0        0.422531   -0.479553    0.202454
      4          8           0        2.744506   -0.819346   -0.212689
      5          1           0        0.398890   -1.458217   -0.384347
      6          1           0        0.531772   -0.897416    1.243550
      7          6           0       -2.030000   -0.504753    0.097559
      8          6           0       -3.331937    0.285719   -0.144782
      9          1           0       -2.051755   -1.384652   -0.664390
     10          1           0       -2.174734   -1.092055    1.047659
     11          1           0       -4.289657   -0.208534    0.157062
     12          1           0       -3.226698    1.216958    0.454932
     13          6           0       -0.826298    0.378210    0.121684
     14          1           0       -0.825539    0.908415   -0.871149
     15          1           0       -3.459167    0.582288   -1.208217
 ---------------------------------------------------------------------
 Rotational constants (GHZ):           8.1100666           1.0517362           0.9586725
 Standard basis: def2SVP (5D, 7F)
 There are   145 symmetry adapted cartesian basis functions of A   symmetry.
 There are   138 symmetry adapted basis functions of A   symmetry.
   138 basis functions,   231 primitive gaussians,   145 cartesian basis functions
    28 alpha electrons       28 beta electrons
       nuclear repulsion energy       276.9746449436 Hartrees.
 NAtoms=   15 NActive=   15 NUniq=   15 SFac= 1.00D+00 NAtFMM=   60 NAOKFM=F Big=F
 Integral buffers will be    131072 words long.
 Raffenetti 2 integral format.
 Two-electron integral symmetry is turned on.
 One-electron integrals computed using PRISM.
   1 Symmetry operations used in ECPInt.
 ECPInt:  NShTT=    2211 NPrTT=    7865 LenC2=    2154 LenP2D=    6165.
 LDataN:  DoStor=T MaxTD1= 4 Len=   56
 NBasis=   138 RedAO= T EigKep=  1.48D-03  NBF=   138
 NBsUse=   138 1.00D-06 EigRej= -1.00D+00 NBFU=   138
 Initial guess from the checkpoint file:  "5PQ_Me_ts1_b_no_pd_opt.chk"
 B after Tr=    -0.000000   -0.000000   -0.000000
         Rot=    0.999993   -0.003189   -0.001174   -0.001292 Ang=  -0.42 deg.
 ExpMin= 1.22D-01 ExpMax= 2.27D+03 ExpMxC= 3.41D+02 IAcc=3 IRadAn=         5 AccDes= 0.00D+00
 Harris functional with IExCor= 1009 and IRadAn=       5 diagonalized for initial guess.
 HarFok:  IExCor= 1009 AccDes= 0.00D+00 IRadAn=         5 IDoV= 1 UseB2=F ITyADJ=14
 ICtDFT=  3500011 ScaDFX=  1.000000  1.000000  1.000000  1.000000
 FoFCou: FMM=F IPFlag=           0 FMFlag=      100000 FMFlg1=           0
         NFxFlg=           0 DoJE=T BraDBF=F KetDBF=T FulRan=T
         wScrn=  0.000000 ICntrl=       500 IOpCl=  0 I1Cent=   200000004 NGrid=           0
         NMat0=    1 NMatS0=      1 NMatT0=    0 NMatD0=    1 NMtDS0=    0 NMtDT0=    0
 Petite list used in FoFCou.
 Requested convergence on RMS density matrix=1.00D-08 within 128 cycles.
 Requested convergence on MAX density matrix=1.00D-06.
 Requested convergence on             energy=1.00D-06.
 No special actions if energy rises.
 Integral accuracy reduced to 1.0D-05 until final iterations.
 Initial convergence to 1.0D-05 achieved.  Increase integral accuracy.
 SCF Done:  E(RMN15) =  -344.901397738     A.U. after   17 cycles
            NFock= 17  Conv=0.64D-08     -V/T= 2.0104
   1 Symmetry operations used in ECPInt.
 ECPInt:  NShTT=    2211 NPrTT=    7865 LenC2=    2154 LenP2D=    6165.
 LDataN:  DoStor=T MaxTD1= 5 Len=  102
 Calling FoFJK, ICntrl=      2127 FMM=F ISym2X=0 I1Cent= 0 IOpClX= 0 NMat=1 NMatS=1 NMatT=0.
 ***** Axes restored to original set *****
 -------------------------------------------------------------------
 Center     Atomic                   Forces (Hartrees/Bohr)
 Number     Number              X              Y              Z
 -------------------------------------------------------------------
      1        8          -0.015098675   -0.018542614   -0.024808831
      2        6           0.003847224    0.017023497    0.059483272
      3        6           0.002865709    0.007827314   -0.004799163
      4        8           0.005297704   -0.000524651   -0.019246264
      5        1           0.001800390   -0.005171504   -0.002952205
      6        1          -0.003013887   -0.000494947   -0.004915686
      7        6           0.015729770   -0.002598091    0.004193579
      8        6           0.000012896   -0.006814692    0.002911644
      9        1          -0.002599132   -0.001701228   -0.000917368
     10        1          -0.005697714   -0.001708125   -0.002634508
     11        1          -0.002820879    0.005185810   -0.001621710
     12        1           0.002807718    0.001845522   -0.002405008
     13        6           0.001769484    0.004908825   -0.006220828
     14        1          -0.001739457   -0.000195832    0.001491983
     15        1          -0.003161150    0.000960716    0.002441092
 -------------------------------------------------------------------
 Cartesian Forces:  Max     0.059483272 RMS     0.011657843

 GradGradGradGradGradGradGradGradGradGradGradGradGradGradGradGradGradGrad
 Berny optimization.
 Using GEDIIS/GDIIS optimizer.
 FormGI is forming the generalized inverse of G from B-inverse, IUseBI=4.
 Internal  Forces:  Max     0.027319254 RMS     0.006216800
 Search for a local minimum.
 Step number   4 out of a maximum of   75
 All quantities printed in internal units (Hartrees-Bohrs-Radians)
 Mixed Optimization -- RFO/linear search
 Update second derivatives using D2CorX and points    4    3
 DE=  6.78D-03 DEPred=-5.16D-03 R=-1.31D+00
 Trust test=-1.31D+00 RLast= 7.04D-01 DXMaxT set to 4.24D-01
 ITU= -1  1  1  0
 Use linear search instead of GDIIS.
     Eigenvalues ---    0.00360   0.00406   0.00583   0.00597   0.03134
     Eigenvalues ---    0.03528   0.03678   0.04862   0.05026   0.05833
     Eigenvalues ---    0.05939   0.08513   0.08999   0.10067   0.11306
     Eigenvalues ---    0.12725   0.14617   0.15795   0.16000   0.16055
     Eigenvalues ---    0.21415   0.22400   0.23958   0.25176   0.25352
     Eigenvalues ---    0.28554   0.29677   0.30811   0.31161   0.32750
     Eigenvalues ---    0.33415   0.33603   0.33814   0.34004   0.37192
     Eigenvalues ---    0.37231   0.37401   0.67228   0.90144
 RFO step:  Lambda=-1.96118255D-03 EMin= 3.60256486D-03
 Quartic linear search produced a step of -0.74006.
 Iteration  1 RMS(Cart)=  0.04831311 RMS(Int)=  0.00512982
 Iteration  2 RMS(Cart)=  0.00575511 RMS(Int)=  0.00116834
 Iteration  3 RMS(Cart)=  0.00003251 RMS(Int)=  0.00116800
 Iteration  4 RMS(Cart)=  0.00000000 RMS(Int)=  0.00116800
 Variable       Old X    -DE/DX   Delta X   Delta X   Delta X     New X
                                 (Linear)    (Quad)   (Total)
    R1        2.33417   0.02732   0.02246   0.01272   0.03518   2.36935
    R2        2.98565  -0.00129  -0.01655   0.00538  -0.01117   2.97448
    R3        2.40547  -0.00383  -0.01101   0.00104  -0.00997   2.39550
    R4        2.15684  -0.00232  -0.00549  -0.00445  -0.00994   2.14690
    R5        2.12997  -0.00456  -0.00762   0.00024  -0.00738   2.12259
    R6        2.86707   0.00220   0.00119   0.00294   0.00412   2.87119
    R7        2.91448  -0.00275  -0.00524  -0.00397  -0.00921   2.90527
    R8        2.19994  -0.00245  -0.01893   0.00411  -0.01482   2.18512
    R9        2.12841  -0.00375  -0.00464  -0.00559  -0.01024   2.11817
   R10        2.82140   0.00473   0.02000  -0.00050   0.01951   2.84090
   R11        2.11499  -0.00438  -0.00876  -0.00323  -0.01199   2.10301
   R12        2.10256  -0.00370  -0.00621  -0.00281  -0.00902   2.09354
   R13        2.10009  -0.00305  -0.00673  -0.00186  -0.00858   2.09151
   R14        2.12696  -0.00139  -0.00818   0.00070  -0.00748   2.11948
    A1        2.05344   0.00755   0.01377   0.00638   0.02552   2.07896
    A2        2.19544  -0.00344   0.00807  -0.00945   0.00401   2.19945
[...]
 ! D21   D(13,7,8,15)           58.0221         -DE/DX =    0.0                 !
 ! D22   D(8,7,13,3)           178.412          -DE/DX =    0.0                 !
 ! D23   D(8,7,13,14)          -64.2028         -DE/DX =    0.0                 !
 ! D24   D(9,7,13,3)           -58.04           -DE/DX =    0.0                 !
 ! D25   D(9,7,13,14)           59.3452         -DE/DX =    0.0                 !
 ! D26   D(10,7,13,3)           57.6117         -DE/DX =    0.0                 !
 ! D27   D(10,7,13,14)         174.9968         -DE/DX =    0.0                 !
 --------------------------------------------------------------------------------
 GradGradGradGradGradGradGradGradGradGradGradGradGradGradGradGradGradGrad


 ----------------------------------------------------------------------

 Electric dipole moment (input orientation):
 (Debye = 10**-18 statcoulomb cm , SI units = C m)
                  (au)            (Debye)         (10**-30 SI)
   Tot        0.203718D+01      0.517798D+01      0.172719D+02
   x          0.186185D+01      0.473236D+01      0.157855D+02
   y         -0.777890D+00     -0.197720D+01     -0.659523D+01
   z          0.280123D+00      0.712002D+00      0.237498D+01

 Dipole polarizability, Alpha (input orientation).
 (esu units = cm**3 , SI units = C**2 m**2 J**-1)
 Alpha(0;0):
               (au)            (10**-24 esu)      (10**-40 SI)
   iso        0.833389D+02      0.123495D+02      0.137407D+02
   aniso      0.373856D+02      0.553998D+01      0.616406D+01
   xx         0.978093D+02      0.144938D+02      0.161266D+02
   yx        -0.149523D+02     -0.221570D+01     -0.246530D+01
   yy         0.852701D+02      0.126357D+02      0.140591D+02
   zx        -0.822195D+00     -0.121837D+00     -0.135562D+00
   zy         0.760981D+00      0.112766D+00      0.125469D+00
   zz         0.669372D+02      0.991907D+01      0.110365D+02

 ----------------------------------------------------------------------

 Dipole orientation:
     8          2.13165085          4.62528877         -3.27745198
     6          0.34914944          6.09419449         -2.72037042
     6         -0.05077848          6.68794491          0.14336442
     8         -1.08933004          7.22185474         -4.25518435
     1          1.49729364          8.13552255          0.59789893
     1         -1.81507865          7.82574289          0.26337951
     6          0.09045383          5.39253977          4.65634429
     6          0.01680928          3.23535542          6.58587636
     1          1.81682093          6.63129696          5.21626602
     1         -1.51465421          6.69230689          5.08331224
     1          0.17950049          3.86145169          8.58860946
     1         -1.73297032          2.12914820          6.31792019
     6         -0.05567688          4.49196051          1.98413488
     1          1.66313945          3.34258155          1.57669683
     1          1.59688160          1.91685455          6.21720243

 Electric dipole moment (dipole orientation):
 (Debye = 10**-18 statcoulomb cm , SI units = C m)
                  (au)            (Debye)         (10**-30 SI)
   Tot        0.203718D+01      0.517798D+01      0.172719D+02
   x          0.000000D+00      0.000000D+00      0.000000D+00
   y          0.000000D+00      0.000000D+00      0.000000D+00
   z          0.203718D+01      0.517798D+01      0.172719D+02

 Dipole polarizability, Alpha (dipole orientation).
 (esu units = cm**3 , SI units = C**2 m**2 J**-1)
 Alpha(0;0):
               (au)            (10**-24 esu)      (10**-40 SI)
   iso        0.833389D+02      0.123495D+02      0.137407D+02
   aniso      0.373856D+02      0.553998D+01      0.616406D+01
   xx         0.683770D+02      0.101324D+02      0.112738D+02
   yx         0.217912D+01      0.322913D+00      0.359289D+00
   yy         0.760926D+02      0.112758D+02      0.125460D+02
   zx         0.362752D+01      0.537543D+00      0.598097D+00
   zy        -0.795015D+01     -0.117809D+01     -0.131080D+01
   zz         0.105547D+03      0.156404D+02      0.174023D+02

 ----------------------------------------------------------------------
 1\1\GINC-CHPC-CN076\Freq\RMN15\def2SVP\C5H8O2(2-)\S1155246976\02-Jan-2
 026\0\\#N Geom=AllCheck Guess=TCheck SCRF=Check GenChk RMN15/def2SVP F
 req\\Gaussian job with default settings\\-2,1\O,-0.5344723453,3.142193
 6893,-0.334817405\C,-0.2771817247,3.417910718,0.8646143383\C,1.1479906
 168,3.048246313,1.386389275\O,-1.0386400785,4.0147463527,1.6764944847\
 H,1.8204875802,3.8755663891,0.9632650519\H,1.1427036401,3.2624787728,2
 .4783098958\C,3.1401756101,1.5616300895,1.3847148258\C,3.7127914677,0.
 164573887,1.12484286\H,3.85480693,2.3002628947,0.8408339721\H,3.332019
 5801,1.8144070005,2.4547081084\H,4.8059057951,0.0751520784,1.318400327
 \H,3.157593042,-0.5757045069,1.728075384\C,1.6810443787,1.6623864556,1
 .0789703547\H,1.5390483121,1.493504906,-0.0142070628\H,3.5425792156,-0
 .1126895198,0.0674140701\\Version=ES64L-G16RevB.01\State=1-A\HF=-344.9
 153986\RMSD=5.104e-09\RMSF=3.406e-05\ZeroPoint=0.1159867\Thermal=0.124
 0043\Dipole=1.8618542,-0.77789,0.2801232\DipoleDeriv=-0.9831048,0.1002
 525,-0.3416483,0.1661571,-0.6148819,-0.1146232,-0.240946,-0.2022408,-1
 .4136532,1.6390895,-0.6201645,0.0813569,-0.5769233,0.4681582,0.4353639
 ,0.0964777,0.4830188,1.4941119,-0.1251923,0.2238169,-0.2296044,0.22059
 53,0.8403617,-0.0921632,-0.4419345,0.0504313,0.3044327,-1.3485446,0.47
 33471,0.3480103,0.4264595,-0.7986303,-0.3282268,0.265786,-0.2942438,-1
 .0252628,-0.1830178,-0.3971485,0.0913547,0.1001467,-0.6677619,0.101984
 ,0.0841124,0.1974029,-0.1364761,-0.0094974,-0.0487509,0.0045218,0.0361
 499,-0.1016722,-0.0897366,0.0431694,-0.0857341,-0.3724817,1.0099146,0.
 2938748,-0.1869305,0.3307032,0.4050272,-0.1162044,-0.1577538,-0.158635
 5,0.349397,0.3923417,0.1458522,-0.0009004,0.096142,0.0217945,-0.001055
 6,-0.0055334,0.0656569,0.1684734,-0.7473336,-0.1762847,0.1630432,-0.40
 69903,-0.4515587,0.1503052,0.3092998,0.114257,-0.1869314,-0.0165734,-0
 .0192528,-0.08379,-0.0542119,-0.0607934,-0.0891011,-0.0264006,-0.08307
 01,-0.3658856,-0.5442243,0.2531146,-0.0647378,0.0013392,-0.0377902,0.0
 05929,-0.0138024,-0.0193053,-0.019909,0.0087572,-0.2714242,0.0937453,-
 0.0277912,-0.1428869,0.0736474,0.0191115,0.1078351,-0.0673688,-1.14644
 25,-0.0172997,0.1402737,-0.3816564,-0.8935691,0.1774856,0.1968736,0.11
 2697,-0.1513884,0.0467772,0.0895898,0.0215532,0.0583179,0.0743436,-0.0
 412666,-0.1372261,-0.1617214,-0.3447423,0.0070505,-0.0295224,-0.036247
 9,0.0115621,-0.0401405,-0.0723374,0.0087666,-0.1263479,-0.2323157\Pola
 r=97.8093187,-14.9522961,85.2700687,-0.8221951,0.7609811,66.9372277\Qu
 adrupole=-11.6577282,2.0048737,9.6528545,14.788917,-2.123773,0.2130723
 \PG=C01 [X(C5H8O2)]\NImag=0\\0.11874358,-0.00074965,0.07981311,0.11578
 426,0.14837997,0.63459024,-0.13875956,-0.01166398,-0.11167696,0.575273
 07,-0.01089206,-0.10811721,-0.09703369,-0.14420868,0.38755663,-0.10947
 513,-0.09996658,-0.53040729,-0.03437729,0.23063743,0.90490043,-0.00795
 398,0.00331798,-0.02055193,-0.13636743,0.01496455,-0.01854770,0.429334
 26,-0.00073548,0.01423849,-0.00513116,0.00376928,-0.08554791,0.0029761
 1,-0.03385958,0.39719920,-0.03882411,-0.00153348,-0.03053169,-0.026071
 78,0.00946339,-0.07351109,-0.00914039,0.04711217,0.53722685,0.03574781
 ,0.00430527,0.02454233,-0.29122945,0.14440553,0.16465089,-0.03287472,0
 .03570031,0.02086742,0.29992991,0.00986328,0.00843457,-0.04581491,0.14
 682693,-0.18665672,-0.13570136,0.02004551,0.00816962,-0.01249870,-0.18
 498592,0.16963739,0.04100133,-0.05194262,-0.07861866,0.16749345,-0.137
 10704,-0.27901738,0.00011688,-0.00540892,0.00214601,-0.20916005,0.1925
 4774,0.34170048,0.00169132,0.00397084,-0.00341077,-0.01457807,-0.02235
 521,0.01655484,-0.10808541,-0.06316682,0.04119387,-0.00318938,0.006886
 08,-0.00229034,0.11005689,-0.00004324,0.00147047,-0.00132599,0.0036319
 6,0.00092854,0.00123143,-0.07477976,-0.10208830,0.04621936,-0.00111834
 ,0.00041343,-0.00025774,0.07736521,0.13605753,0.00070745,0.00100820,0.
 00044637,-0.00603777,-0.00736194,0.00097523,0.04013056,0.03950722,-0.0
 7175437,0.00085004,-0.00028756,0.00186878,-0.04684196,-0.05243715,0.07
 314607,-0.00740142,0.00149693,-0.00405479,0.00355100,-0.00610044,-0.02
 872605,-0.03874597,0.00218207,0.01003388,0.00073614,-0.00025718,0.0023
 5807,-0.00178242,-0.00023263,0.01893317,0.04229273,0.00198436,0.002374
 65,0.00047748,-0.00066051,-0.00250359,0.00409166,-0.00226693,-0.047525
 63,-0.04222168,0.00061342,-0.00034586,0.00083878,-0.00117599,0.0008991
 3,0.01951874,-0.00047004,0.05790594,-0.00656458,0.00108852,0.00022130,
 0.00952463,-0.00613219,-0.01788245,-0.00123071,-0.03851255,-0.27439208
 ,0.00063457,0.00134475,0.00700040,0.00169720,0.00176209,-0.01407691,-0
 .00532222,0.04592629,0.30054260,0.00130313,-0.00162229,0.00022334,-0.0
 0153188,0.00230462,0.00152752,-0.02553178,0.00430906,0.00316512,0.0006
 3065,-0.00039882,-0.00025387,0.00238831,-0.01202912,-0.00007643,0.0012
 6513,-0.00270834,-0.00168679,0.41040118,0.00114210,0.00070227,0.002023
 11,-0.00343043,-0.00364343,-0.00433253,0.03229304,-0.01651095,0.011485
 58,0.00379651,-0.00113553,-0.00035939,0.00468481,-0.00100716,-0.001050
 56,-0.00003231,-0.00024118,-0.00099684,-0.03807377,0.44467650,-0.00040
 337,0.00178064,0.00151780,-0.00203057,-0.00191455,-0.00354364,0.010906
 03,0.00453157,-0.00165287,0.00141402,0.00002896,0.00036962,-0.00363098
 ,-0.00124022,0.00196262,0.00124155,-0.00099641,0.00132748,0.04135385,0
 .04188440,0.51050466,-0.00032350,-0.00029967,-0.00047692,0.00129794,0.
 00118096,0.00123365,-0.00752536,0.00020991,-0.00153894,-0.00110467,0.0
 0014774,0.00017221,0.00121995,-0.00067492,-0.00024427,0.00000535,0.000
 09739,0.00032180,-0.08107281,0.04505509,0.00570677,0.52266586,-0.00012
 287,0.00009829,0.00022107,-0.00032425,0.00037584,-0.00081336,0.0008265
 6,-0.00118527,0.00021246,0.00006669,-0.00015395,0.00009769,0.00037975,
 0.00070842,-0.00026960,0.00026605,-0.00007875,0.00013301,0.03963845,-0
 .18309239,-0.02289697,0.03213472,0.47155664,-0.00017385,-0.00006744,-0
 .00033880,0.00020115,0.00010607,0.00104351,-0.00119165,-0.00002980,-0.
 00101172,-0.00048985,0.00019076,-0.00011651,-0.00029220,-0.00010947,-0
 .00009622,0.00007195,0.00010310,0.00075635,0.00396808,-0.02384025,-0.0
 7284410,0.00329627,-0.01815770,0.54592812,-0.00068154,0.00094017,-0.00
 040350,0.00219321,-0.00074657,-0.00089057,0.00294033,-0.01222915,-0.00
 224034,-0.00085715,0.00034719,0.00038627,0.00485734,0.00833486,-0.0018
 2999,0.00056053,0.00092410,0.00057115,-0.06631615,-0.04644183,0.037198
 00,0.00492214,0.00782456,-0.00400339,0.09428503,-0.00038666,0.00049151
 ,-0.00026428,0.00123754,-0.00013768,-0.00015666,0.00270418,0.00350856,
 -0.00301265,-0.00059152,0.00033725,0.00024471,-0.00291964,0.00353316,0
 .00085555,-0.00009873,0.00029630,0.00084945,-0.03076536,-0.09683742,0.
 04163263,-0.01339038,-0.02070368,0.01602825,0.05777388,0.11385643,0.00
 052522,-0.00045586,0.00024187,-0.00101873,0.00015583,0.00022287,-0.001
 41919,0.00050174,0.00171569,0.00053791,-0.00025093,-0.00015610,0.00028
 989,-0.00238642,-0.00124886,-0.00012503,0.00002184,-0.00078164,0.02609
 322,0.04248980,-0.08239906,-0.00061308,-0.00336108,-0.00044501,-0.0448
 6692,-0.05352496,0.08680286,-0.00027707,0.00078442,0.00086187,-0.00035
 533,-0.00052081,-0.00104503,0.00117003,-0.00238512,-0.00072893,0.00002
 300,0.00012090,0.00046689,0.00003958,0.00021362,0.00007849,0.00013635,
 0.00048703,0.00141762,-0.04307690,-0.00985113,-0.03146975,-0.00055376,
 0.00359866,0.01188632,0.00075536,0.00204129,0.01410383,0.05383814,0.00
 010139,0.00002059,-0.00000210,-0.00004217,-0.00017736,0.00011959,-0.00
 025701,0.00002868,0.00181161,-0.00017568,0.00008097,-0.00002588,0.0002
 2099,0.00044727,0.00011335,-0.00046224,0.00064289,-0.00062740,-0.00492
 498,-0.05407113,-0.04767275,-0.00483232,-0.00751449,-0.02775877,-0.000
 56820,0.00221159,0.01936599,0.00957967,0.06002060,0.00020141,0.0003405
 5,0.00095923,-0.00048210,0.00004080,-0.00039343,0.00052026,-0.00164838
 ,0.00221587,-0.00025467,0.00015926,0.00037750,0.00078817,0.00033907,-0
 .00071651,-0.00102186,0.00125217,-0.00032974,-0.03153898,-0.05458987,-
 0.25629993,-0.00172896,0.00083130,-0.00607320,0.00238787,0.00044092,-0
 .01916414,0.03627615,0.05613070,0.28223302,-0.00073646,0.00020347,-0.0
 0053384,0.00175771,-0.00012292,0.00041910,0.00052719,-0.00055724,-0.00
 332978,-0.00118882,0.00043200,0.00027834,0.00030275,0.00194008,-0.0001
 9329,0.00018032,0.00005473,0.00049407,-0.01119467,-0.00735810,-0.00095
 951,-0.27162117,0.01347428,-0.04517619,0.00168652,0.00106550,-0.000794
 05,0.00087931,0.00035155,0.00142248,0.30034497,0.00017014,0.00010794,0
 .00021089,-0.00049219,-0.00057801,-0.00045635,0.00271144,-0.00021732,0
 .00063579,0.00050510,-0.00008862,-0.00006224,0.00000937,0.00055863,0.0
 0004855,-0.00002364,0.00001879,-0.00006061,0.03020216,0.00480570,0.006
 51719,0.01301700,-0.04637444,0.00327480,-0.00185385,0.00054589,0.00065
 487,-0.00077023,0.00119239,-0.00001911,-0.01812904,0.04468998,0.000081
 60,0.00000998,0.00008279,-0.00015256,-0.00001793,-0.00004937,-0.000086
 02,-0.00004279,0.00106449,0.00006394,-0.00002066,-0.00000834,-0.000054
 17,-0.00042580,0.00002593,-0.00005447,0.00009039,-0.00008335,0.0058822
 1,0.00040774,-0.00073140,-0.04372577,0.00327467,-0.05349741,-0.0001276
 3,0.00038151,-0.00030273,0.00027135,0.00057768,0.00048857,0.04903186,-
 0.00176453,0.05141472,0.00038069,-0.00009695,0.00016931,-0.00081137,0.
 00031554,-0.00004001,-0.00012560,0.00192771,0.00048455,0.00049793,-0.0
 0017032,-0.00016744,-0.00120766,-0.00095449,0.00020569,-0.00010212,-0.
 00016323,-0.00028253,0.00501859,0.00550218,-0.00487808,-0.10713970,-0.
 09142930,0.07575594,-0.00141436,-0.00114277,0.00010169,-0.00001869,-0.
 00077225,-0.00055301,-0.01115872,-0.01638479,0.01511364,0.11228646,0.0
 0016756,-0.00001509,0.00011108,-0.00027077,0.00018050,-0.00017885,0.00
 033935,-0.00042831,-0.00022701,0.00024098,-0.00012112,-0.00005711,0.00
 028343,0.00079503,-0.00014751,-0.00000755,0.00005107,-0.00001256,-0.01
 854453,-0.02242293,0.01843892,-0.09014743,-0.15553852,0.09931100,0.003
 42439,-0.00632353,-0.00145866,-0.00048980,0.00147225,-0.00060640,0.002
 74489,0.00155021,-0.00342080,0.09873789,0.17305865,-0.00012446,0.00002
 224,0.00001470,0.00018808,0.00004025,-0.00006091,-0.00046106,-0.000358
 50,0.00000105,-0.00016346,0.00005051,0.00007538,0.00014032,-0.00019053
 ,-0.00000168,-0.00001867,0.00007932,0.00007363,-0.00131414,-0.00477076
 ,0.00304701,0.07451733,0.09977339,-0.12841317,0.00023794,-0.00057431,0
 .00195865,-0.00070098,0.00015688,0.00136199,-0.00439117,-0.00658898,0.
 00390651,-0.08234305,-0.10610775,0.13492290,-0.00041604,0.00050737,0.0
 0152064,-0.00153138,0.02160579,0.00457669,-0.07701488,0.06691223,-0.00
 583919,-0.00714553,0.00151312,0.00134526,0.00711377,-0.00236875,-0.004
 73045,-0.00013866,-0.00101715,-0.00102240,-0.18098553,0.01653503,-0.03
 384572,-0.01323754,0.00667263,-0.00181163,-0.04637978,-0.01601811,0.00
 836865,-0.00716249,-0.00180874,-0.00370972,-0.00471840,-0.00241569,0.0
 0152680,0.00209632,-0.00047395,-0.00040912,0.36310915,0.00016964,0.000
 15079,-0.00431127,0.00690482,-0.00255058,0.00619959,0.03613575,-0.1595
 2304,-0.02941017,-0.00280425,0.00113436,-0.00005162,-0.00413334,-0.044
 20470,0.00078018,0.00174964,-0.00763314,-0.00344306,0.04416022,-0.0584
 7181,-0.01132621,0.02814907,-0.00539579,0.00648069,-0.02022594,-0.0041
 5509,-0.00058488,-0.00757286,-0.00001167,-0.00171409,0.00636466,-0.005
 23428,-0.00044925,0.00112626,0.00381672,-0.00116145,-0.09799160,0.3092
 1588,-0.00230900,-0.00190548,-0.00294713,0.00826162,0.01034252,0.00423
 953,-0.00157245,-0.04708248,-0.07885258,-0.00481034,-0.00005781,0.0024
 9900,-0.00296726,0.00962303,0.00771101,0.00704321,-0.02517406,-0.00235
 590,-0.05501726,-0.00775184,-0.08083647,0.00230835,-0.00040766,0.00233
 621,0.01556232,-0.00092264,0.00909176,-0.02817509,0.00062993,-0.006808
 33,0.00471917,-0.00211989,0.00017275,-0.00066551,-0.00130574,-0.001418
 82,0.07700244,0.08633056,0.41990379,-0.00137754,-0.00094089,-0.0018218
 9,0.00106525,0.00013628,0.00387595,0.00052279,-0.00223329,0.01192186,-
 0.00004479,-0.00033306,-0.00162007,0.00124531,0.00086743,-0.00099741,-
 0.00047290,0.00437928,0.00162333,-0.01322226,-0.00611755,-0.03016848,0
 .00175584,-0.00140449,-0.00084075,0.00369721,0.00105871,-0.00086511,-0
 .00526889,0.00123357,-0.00297618,-0.00007948,-0.00008302,0.00013288,-0
 .00051118,-0.00004604,0.00020789,-0.03427860,0.00838893,-0.02130824,0.
 04639719,-0.00079493,0.00016837,0.00214442,-0.00098095,0.00079516,-0.0
 0343943,-0.00208565,-0.00980997,-0.02840898,-0.00003929,0.00031575,0.0
 0148090,-0.00010097,0.00156268,-0.00018775,0.00203272,-0.00408229,-0.0
 0160927,-0.00805125,-0.00425399,0.00153752,0.00069991,0.00086829,0.002
 03608,0.00294372,0.00190386,-0.00149637,0.00218730,0.00133917,0.000561
 55,-0.00096290,-0.00000681,-0.00066533,-0.00015447,0.00001933,0.000340
 77,0.01038059,-0.02872489,-0.01962665,-0.00516414,0.03960881,-0.000654
 10,0.00321492,0.00439538,-0.00336029,-0.00119521,-0.00613645,0.0020554
 4,0.00321544,-0.01319863,0.00106145,0.00038712,0.00182140,-0.00110096,
 -0.00071690,0.00172513,-0.00026809,-0.00415929,-0.00011476,0.00814227,
 0.00121712,-0.01306949,0.00114933,-0.00096083,0.00011608,-0.00214490,-
 0.00153353,0.00330966,-0.00335654,-0.00081158,0.00078539,-0.00081834,0
 .00013933,0.00097714,0.00053446,0.00000049,0.00010879,-0.04197314,-0.0
 4834359,-0.27417918,0.04201937,0.04786761,0.29308007,0.00006057,-0.000
 15302,-0.00017113,0.00002630,0.00003340,0.00026314,-0.00026947,0.00015
 613,0.00004676,0.00006906,-0.00003745,-0.00012692,-0.00007230,-0.00015
 190,0.00004616,-0.00008406,-0.00007812,-0.00017515,0.00192498,0.002296
 35,0.00956623,-0.04928857,-0.01160144,-0.04120019,-0.00024868,-0.00056
 792,-0.00031829,-0.00012865,0.00235643,0.00066916,-0.00498105,-0.00646
 276,-0.02790367,0.00220940,0.00404160,0.01463455,0.00068959,-0.0004210
 0,0.00192805,0.00057205,0.00009032,-0.00128597,0.04952082,0.00012642,0
 .00006123,0.00031538,-0.00029659,0.00007580,-0.00021071,-0.00008942,-0
 .00030785,0.00037229,0.00008120,-0.00002153,0.00006275,0.00005150,-0.0
 0007414,-0.00008972,-0.00004266,0.00022168,0.00029036,-0.00349605,-0.0
 0849655,-0.03030475,-0.01134707,-0.05357019,-0.05756730,-0.00044733,0.
 00147288,0.00032909,0.00257707,-0.00568175,-0.00151845,0.00049904,-0.0
 0097006,0.00206512,0.00365901,0.00390574,0.01928891,-0.00203278,0.0015
 8724,-0.00057180,0.00025828,0.00029652,0.00167890,0.01049938,0.0615009
 9,0.00022735,0.00002644,0.00037390,-0.00046085,-0.00002374,-0.00037957
 ,0.00047193,0.00037034,0.00053507,0.00025580,-0.00007718,0.00005844,-0
 .00007566,-0.00008476,0.00003341,-0.00009064,0.00015166,0.00009507,-0.
 00046815,-0.00181571,-0.00735224,-0.04037777,-0.05767641,-0.28734415,0
 .00016369,-0.00044400,0.00115417,0.00011378,-0.00200725,0.00136371,-0.
 00016885,-0.00040971,-0.00346030,-0.00343567,-0.00433911,-0.01557602,-
 0.00099910,0.00100457,0.00144436,0.00081684,-0.00053507,0.00037947,0.0
 4402729,0.06585993,0.30867468\\0.00002969,0.00001069,0.00002885,-0.000
 13601,-0.00002952,-0.00002394,0.00005925,-0.00002827,0.00002276,0.0000
 4089,-0.00000706,-0.00001610,0.00003589,0.00000264,0.00000757,-0.00000
 581,0.00001593,-0.00000211,0.00002132,0.00000482,0.00002298,0.00008706
 ,-0.00003967,-0.00000617,-0.00001165,-0.00000397,-0.00000309,-0.000024
 12,0.00000032,-0.00000130,-0.00003905,0.00003356,-0.00000368,-0.000032
 22,0.00000935,-0.00000285,-0.00000313,0.00004972,-0.00005177,-0.000012
 79,-0.00000118,0.00003810,-0.00000932,-0.00001735,-0.00000926\\\@


 SIGN SEEN IN A RESTAURANT-
 WE RESERVE THE RIGHT TO SERVE REFUSE TO ANYONE.
 Job cpu time:       0 days  0 hours 18 minutes 52.4 seconds.
 Elapsed time:       0 days  0 hours  0 minutes 18.2 seconds.
 File lengths (MBytes):  RWF=     38 Int=      0 D2E=      0 Chk=      3 Scr=      1
 Normal termination of Gaussian 16 at Fri Jan  2 17:09:44 2026.
