10
acetone.xyz    Empirical formula: C3H6O    Energy(Hartree): -192.919416    
O        0.0000020000    1.3944880000    0.0000160000
C        0.0000000000    0.1849050000   -0.0001170000
C        1.2814840000   -0.6113940000   -0.0000230000
C       -1.2814850000   -0.6113910000   -0.0000230000
H        1.3150820000   -1.2633610000    0.8858740000
H        1.3143760000   -1.2653680000   -0.8844360000
H        2.1448750000    0.0644120000   -0.0010140000
H       -2.1448750000    0.0644160000   -0.0010380000
H       -1.3150940000   -1.2633390000    0.8858880000
H       -1.3143680000   -1.2653860000   -0.8844220000
