 Entering Gaussian System, Link 0=/home/users/astar/bmsi/zhangx5/programs/g16/g16
 Input=/home/users/astar/bmsi/zhangx5/scratch/cage_free2_rct_epoxide_opening_modred/cage_free2_rct_epoxide_opening_modred.com
 Output=/home/users/astar/bmsi/zhangx5/scratch/cage_free2_rct_epoxide_opening_modred/cage_free2_rct_epoxide_opening_modred.log
 Initial command:
 /home/users/astar/bmsi/zhangx5/programs/g16/l1.exe "/scratch/users/astar/bmsi/zhangx5/cage_free2_rct_epoxide_opening_modred/Gau-1676977.inp" -scrdir="/scratch/users/astar/bmsi/zhangx5/cage_free2_rct_epoxide_opening_modred/"
 Entering Link 1 = /home/users/astar/bmsi/zhangx5/programs/g16/l1.exe PID=   1676978.

 Copyright (c) 1988-2017, Gaussian, Inc.  All Rights Reserved.

 This is part of the Gaussian(R) 16 program.  It is based on
 the Gaussian(R) 09 system (copyright 2009, Gaussian, Inc.),
 the Gaussian(R) 03 system (copyright 2003, Gaussian, Inc.),
 the Gaussian(R) 98 system (copyright 1998, Gaussian, Inc.),
 the Gaussian(R) 94 system (copyright 1995, Gaussian, Inc.),
 the Gaussian 92(TM) system (copyright 1992, Gaussian, Inc.),
 the Gaussian 90(TM) system (copyright 1990, Gaussian, Inc.),
 the Gaussian 88(TM) system (copyright 1988, Gaussian, Inc.),
 the Gaussian 86(TM) system (copyright 1986, Carnegie Mellon
 University), and the Gaussian 82(TM) system (copyright 1983,
 Carnegie Mellon University). Gaussian is a federally registered
 trademark of Gaussian, Inc.

 This software contains proprietary and confidential information,
 including trade secrets, belonging to Gaussian, Inc.

 This software is provided under written license and may be
 used, copied, transmitted, or stored only in accord with that
 written license.

 The following legend is applicable only to US Government
 contracts under FAR:

                    RESTRICTED RIGHTS LEGEND

 Use, reproduction and disclosure by the US Government is
 subject to restrictions as set forth in subparagraphs (a)
 and (c) of the Commercial Computer Software - Restricted
 Rights clause in FAR 52.227-19.

 Gaussian, Inc.
 340 Quinnipiac St., Bldg. 40, Wallingford CT 06492


 ---------------------------------------------------------------
 Warning -- This program may not be used in any manner that
 competes with the business of Gaussian, Inc. or will provide
 assistance to any competitor of Gaussian, Inc.  The licensee
 of this program is prohibited from giving any competitor of
 Gaussian, Inc. access to this program.  By using this program,
 the user acknowledges that Gaussian, Inc. is engaged in the
 business of creating and licensing software in the field of
 computational chemistry and represents and warrants to the
 licensee that it is not a competitor of Gaussian, Inc. and that
 it will not use this program in any manner prohibited above.
 ---------------------------------------------------------------


 Cite this work as:
 Gaussian 16, Revision B.01,
 M. J. Frisch, G. W. Trucks, H. B. Schlegel, G. E. Scuseria,
 M. A. Robb, J. R. Cheeseman, G. Scalmani, V. Barone,
 G. A. Petersson, H. Nakatsuji, X. Li, M. Caricato, A. V. Marenich,
 J. Bloino, B. G. Janesko, R. Gomperts, B. Mennucci, H. P. Hratchian,
 J. V. Ortiz, A. F. Izmaylov, J. L. Sonnenberg, D. Williams-Young,
 F. Ding, F. Lipparini, F. Egidi, J. Goings, B. Peng, A. Petrone,
 T. Henderson, D. Ranasinghe, V. G. Zakrzewski, J. Gao, N. Rega,
 G. Zheng, W. Liang, M. Hada, M. Ehara, K. Toyota, R. Fukuda,
 J. Hasegawa, M. Ishida, T. Nakajima, Y. Honda, O. Kitao, H. Nakai,
 T. Vreven, K. Throssell, J. A. Montgomery, Jr., J. E. Peralta,
 F. Ogliaro, M. J. Bearpark, J. J. Heyd, E. N. Brothers, K. N. Kudin,
 V. N. Staroverov, T. A. Keith, R. Kobayashi, J. Normand,
 K. Raghavachari, A. P. Rendell, J. C. Burant, S. S. Iyengar,
 J. Tomasi, M. Cossi, J. M. Millam, M. Klene, C. Adamo, R. Cammi,
 J. W. Ochterski, R. L. Martin, K. Morokuma, O. Farkas,
 J. B. Foresman, and D. J. Fox, Gaussian, Inc., Wallingford CT, 2016.

 ******************************************
 Gaussian 16:  ES64L-G16RevB.01 20-Dec-2017
                 7-Feb-2023
 ******************************************
 %chk=cage_free2_rct_epoxide_opening_modred.chk
 %nprocshared=64
 Will use up to   64 processors via shared memory.
 %mem=64GB
 -------------------------------------
 # opt=modredundant freq m062x def2svp
 -------------------------------------
 1/18=120,19=15,26=3,38=1/1,3;
 2/9=110,12=2,17=6,18=5,40=1/2;
 3/5=43,7=101,11=2,25=1,30=1,71=1,74=-55/1,2,3;
 4//1;
 5/5=2,38=5/2;
 6/7=2,8=2,9=2,10=2,28=1/1;
 7//1,2,3,16;
 1/18=20,19=15,26=3/3(2);
 2/9=110/2;
 99//99;
 2/9=110/2;
 3/5=43,7=101,11=2,25=1,30=1,71=1,74=-55/1,2,3;
 4/5=5,16=3,69=1/1;
 5/5=2,38=5/2;
 7//1,2,3,16;
 1/18=20,19=15,26=3/3(-5);
 2/9=110/2;
 6/7=2,8=2,9=2,10=2,19=2,28=1/1;
 99/9=1/99;
 ------------
 Gaussian job
 ------------
 Symbolic Z-matrix:
 Charge =  0 Multiplicity = 1
 O                    -2.29615  -0.73084  -0.00079
 C                    -1.70575   0.26079   0.00001
 O                    -1.16247   1.28451   0.00081
 C                     2.16031   0.77186  -0.0007
 C                     1.75573  -0.67283   0.00044
 O                     0.59819  -0.34867  -0.00015
 H                     2.59751  -1.40822   0.00105
 H                     2.69541   0.0861    1.12639
 H                     1.27548   1.41809   0.00041
 H                     2.78326   0.97364  -0.88522

 Add virtual bond connecting atoms H8         and C4         Dist= 2.69D+00.
 Add virtual bond connecting atoms O6         and C2         Dist= 4.50D+00.
 Add virtual bond connecting atoms O6         and O3         Dist= 4.54D+00.
 Add virtual bond connecting atoms H9         and O3         Dist= 4.61D+00.
 The following ModRedundant input section has been read:
 B       4       8 F
 B       5       8 F
 B       4       6 F


 GradGradGradGradGradGradGradGradGradGradGradGradGradGradGradGradGradGrad
 Berny optimization.
 Initialization pass.
                           ----------------------------
                           !    Initial Parameters    !
                           ! (Angstroms and Degrees)  !
 --------------------------                            --------------------------
 ! Name  Definition              Value          Derivative Info.                !
 --------------------------------------------------------------------------------
 ! R1    R(1,2)                  1.1541         estimate D2E/DX2                !
 ! R2    R(2,3)                  1.1589         estimate D2E/DX2                !
 ! R3    R(2,6)                  2.3832         estimate D2E/DX2                !
 ! R4    R(3,6)                  2.4015         estimate D2E/DX2                !
 ! R5    R(3,9)                  2.4416         estimate D2E/DX2                !
 ! R6    R(4,5)                  1.5003         estimate D2E/DX2                !
 ! R7    R(4,6)                  1.9224         Frozen                          !
 ! R8    R(4,8)                  1.4237         Frozen                          !
 ! R9    R(4,9)                  1.0957         estimate D2E/DX2                !
 ! R10   R(4,10)                 1.1005         estimate D2E/DX2                !
 ! R11   R(5,6)                  1.2021         estimate D2E/DX2                !
 ! R12   R(5,7)                  1.1178         estimate D2E/DX2                !
 ! R13   R(5,8)                  1.6513         Frozen                          !
 ! A1    A(1,2,6)              105.9522         estimate D2E/DX2                !
 ! A2    A(2,3,9)              121.0907         estimate D2E/DX2                !
 ! A3    A(6,3,9)               45.9849         estimate D2E/DX2                !
 ! A4    A(5,4,8)               68.7111         estimate D2E/DX2                !
 ! A5    A(5,4,9)              110.4975         estimate D2E/DX2                !
 ! A6    A(5,4,10)             109.2578         estimate D2E/DX2                !
 ! A7    A(8,4,9)              125.9306         estimate D2E/DX2                !
 ! A8    A(8,4,10)             120.7867         estimate D2E/DX2                !
 ! A9    A(9,4,10)             110.4743         estimate D2E/DX2                !
 ! A10   A(4,5,6)               90.0            estimate D2E/DX2                !
 ! A11   A(4,5,7)              115.496          estimate D2E/DX2                !
 ! A12   A(6,5,7)              154.504          estimate D2E/DX2                !
 ! A13   A(3,6,5)              152.7962         estimate D2E/DX2                !
 ! A14   A(3,9,4)              140.7212         estimate D2E/DX2                !
 ! A15   L(1,2,3,5,-1)         182.8146         estimate D2E/DX2                !
 ! A16   L(2,6,5,9,-1)         180.828          estimate D2E/DX2                !
 ! A17   L(1,2,3,5,-2)         179.9992         estimate D2E/DX2                !
 ! A18   L(2,6,5,9,-2)         179.9672         estimate D2E/DX2                !
 ! D1    D(1,2,3,6)           -179.9733         estimate D2E/DX2                !
 ! D2    D(1,2,5,4)            179.917          estimate D2E/DX2                !
 ! D3    D(1,2,5,7)             -0.0961         estimate D2E/DX2                !
 ! D4    D(9,3,6,5)              0.0974         estimate D2E/DX2                !
 ! D5    D(2,3,9,4)              0.0291         estimate D2E/DX2                !
 ! D6    D(6,3,9,4)              0.0575         estimate D2E/DX2                !
 ! D7    D(8,4,5,6)            121.8881         estimate D2E/DX2                !
 ! D8    D(8,4,5,7)            -58.1267         estimate D2E/DX2                !
 ! D9    D(9,4,5,6)              0.1067         estimate D2E/DX2                !
 ! D10   D(9,4,5,7)           -179.9081         estimate D2E/DX2                !
 ! D11   D(10,4,5,6)          -121.6403         estimate D2E/DX2                !
 ! D12   D(10,4,5,7)            58.3449         estimate D2E/DX2                !
 ! D13   D(5,4,9,3)             -0.1246         estimate D2E/DX2                !
 ! D14   D(8,4,9,3)            -78.1325         estimate D2E/DX2                !
 ! D15   D(10,4,9,3)           120.902          estimate D2E/DX2                !
 ! D16   D(4,5,6,3)             -0.1489         estimate D2E/DX2                !
 ! D17   D(7,5,6,3)            179.8821         estimate D2E/DX2                !
 --------------------------------------------------------------------------------
 Trust Radius=3.00D-01 FncErr=1.00D-07 GrdErr=1.00D-06 EigMax=2.50D+02 EigMin=1.00D-04
 Number of steps in this run=     58 maximum allowed number of steps=    100.
 GradGradGradGradGradGradGradGradGradGradGradGradGradGradGradGradGradGrad

                          Input orientation:
 ---------------------------------------------------------------------
 Center     Atomic      Atomic             Coordinates (Angstroms)
 Number     Number       Type             X           Y           Z
 ---------------------------------------------------------------------
      1          8           0       -2.296154   -0.730841   -0.000790
      2          6           0       -1.705751    0.260788    0.000013
      3          8           0       -1.162473    1.284508    0.000807
      4          6           0        2.160311    0.771856   -0.000697
      5          6           0        1.755726   -0.672832    0.000441
      6          8           0        0.598194   -0.348666   -0.000155
      7          1           0        2.597505   -1.408222    0.001046
      8          1           0        2.695411    0.086099    1.126391
      9          1           0        1.275482    1.418090    0.000414
     10          1           0        2.783264    0.973643   -0.885220
 ---------------------------------------------------------------------
                    Distance matrix (angstroms):
                    1          2          3          4          5
     1  O    0.000000
     2  C    1.154082   0.000000
     3  O    2.312329   1.158945   0.000000
     4  C    4.702997   3.899696   3.362099   0.000000
     5  C    4.052295   3.585174   3.513839   1.500271   0.000000
     6  O    2.919471   2.383190   2.401501   1.922441   1.202067
     7  H    4.940318   4.615583   4.624741   2.223484   1.117761
     8  H    5.182050   4.546369   4.193613   1.423700   1.651286
     9  H    4.168272   3.197983   2.441612   1.095692   2.145365
    10  H    5.430283   4.630665   4.055924   1.100531   2.133333
                    6          7          8          9         10
     6  O    0.000000
     7  H    2.262721   0.000000
     8  H    2.420009   1.873227   0.000000
     9  H    1.892127   3.120222   2.249049   0.000000
    10  H    2.703030   2.548187   2.200462   1.804241   0.000000
 Stoichiometry    C3H4O3
 Framework group  C1[X(C3H4O3)]
 Deg. of freedom    24
 Full point group                 C1      NOp   1
 Largest Abelian subgroup         C1      NOp   1
 Largest concise Abelian subgroup C1      NOp   1
                         Standard orientation:
 ---------------------------------------------------------------------
 Center     Atomic      Atomic             Coordinates (Angstroms)
 Number     Number       Type             X           Y           Z
 ---------------------------------------------------------------------
      1          8           0       -2.298831   -0.812674   -0.019993
      2          6           0       -1.698191    0.172430    0.006598
      3          8           0       -1.144341    1.190092    0.034301
      4          6           0        2.172922    0.643706    0.003732
      5          6           0        1.753405   -0.796205   -0.034675
      6          8           0        0.599299   -0.460322   -0.020984
      7          1           0        2.587518   -1.539890   -0.058744
      8          1           0        2.705442   -0.079481    1.108425
      9          1           0        1.294845    1.298667    0.027154
     10          1           0        2.794352    0.864347   -0.877354
 ---------------------------------------------------------------------
 Rotational constants (GHZ):           8.9521857           1.9133476           1.5968888
 Standard basis: def2SVP (5D, 7F)
 There are   110 symmetry adapted cartesian basis functions of A   symmetry.
 There are   104 symmetry adapted basis functions of A   symmetry.
   104 basis functions,   178 primitive gaussians,   110 cartesian basis functions
    23 alpha electrons       23 beta electrons
       nuclear repulsion energy       215.8882208764 Hartrees.
 NAtoms=   10 NActive=   10 NUniq=   10 SFac= 1.00D+00 NAtFMM=   60 NAOKFM=F Big=F
 Integral buffers will be    131072 words long.
 Raffenetti 2 integral format.
 Two-electron integral symmetry is turned on.
 One-electron integrals computed using PRISM.
   1 Symmetry operations used in ECPInt.
 ECPInt:  NShTT=    1176 NPrTT=    4368 LenC2=    1163 LenP2D=    3481.
 LDataN:  DoStor=T MaxTD1= 4 Len=   56
 NBasis=   104 RedAO= T EigKep=  4.94D-03  NBF=   104
 NBsUse=   104 1.00D-06 EigRej= -1.00D+00 NBFU=   104
 ExpMin= 1.22D-01 ExpMax= 2.27D+03 ExpMxC= 3.41D+02 IAcc=3 IRadAn=         5 AccDes= 0.00D+00
 Harris functional with IExCor= 1009 and IRadAn=       5 diagonalized for initial guess.
 HarFok:  IExCor= 1009 AccDes= 0.00D+00 IRadAn=         5 IDoV= 1 UseB2=F ITyADJ=14
 ICtDFT=  3500011 ScaDFX=  1.000000  1.000000  1.000000  1.000000
 FoFCou: FMM=F IPFlag=           0 FMFlag=      100000 FMFlg1=           0
         NFxFlg=           0 DoJE=T BraDBF=F KetDBF=T FulRan=T
         wScrn=  0.000000 ICntrl=       500 IOpCl=  0 I1Cent=   200000004 NGrid=           0
         NMat0=    1 NMatS0=      1 NMatT0=    0 NMatD0=    1 NMtDS0=    0 NMtDT0=    0
 Petite list used in FoFCou.
 Keep R1 ints in memory in canonical form, NReq=74801768.
 Requested convergence on RMS density matrix=1.00D-08 within 128 cycles.
 Requested convergence on MAX density matrix=1.00D-06.
 Requested convergence on             energy=1.00D-06.
 No special actions if energy rises.
 Integral accuracy reduced to 1.0D-05 until final iterations.
 Initial convergence to 1.0D-05 achieved.  Increase integral accuracy.
 SCF Done:  E(RM062X) =  -341.818966894     A.U. after   18 cycles
            NFock= 18  Conv=0.66D-08     -V/T= 2.0068

 **********************************************************************

            Population analysis using the SCF Density.

 **********************************************************************

 Orbital symmetries:
       Occupied  (A) (A) (A) (A) (A) (A) (A) (A) (A) (A) (A) (A)
                 (A) (A) (A) (A) (A) (A) (A) (A) (A) (A) (A)
       Virtual   (A) (A) (A) (A) (A) (A) (A) (A) (A) (A) (A) (A)
                 (A) (A) (A) (A) (A) (A) (A) (A) (A) (A) (A) (A)
                 (A) (A) (A) (A) (A) (A) (A) (A) (A) (A) (A) (A)
                 (A) (A) (A) (A) (A) (A) (A) (A) (A) (A) (A) (A)
                 (A) (A) (A) (A) (A) (A) (A) (A) (A) (A) (A) (A)
                 (A) (A) (A) (A) (A) (A) (A) (A) (A) (A) (A) (A)
                 (A) (A) (A) (A) (A) (A) (A) (A) (A)
 The electronic state is 1-A.
 Alpha  occ. eigenvalues --  -19.68681 -19.68239 -19.62142 -10.72475 -10.66114
 Alpha  occ. eigenvalues --  -10.58478  -1.24959  -1.20124  -1.18602  -0.82704
 Alpha  occ. eigenvalues --   -0.69306  -0.62140  -0.60539  -0.58103  -0.57873
 Alpha  occ. eigenvalues --   -0.55766  -0.52831  -0.49361  -0.47806  -0.41691
 Alpha  occ. eigenvalues --   -0.41294  -0.38462  -0.26692
 Alpha virt. eigenvalues --    0.00012   0.05193   0.10399   0.11647   0.11841
 Alpha virt. eigenvalues --    0.14093   0.15374   0.17483   0.22440   0.29477
 Alpha virt. eigenvalues --    0.41337   0.42577   0.48006   0.49316   0.51879
 Alpha virt. eigenvalues --    0.53900   0.55409   0.58604   0.59457   0.60331
 Alpha virt. eigenvalues --    0.64733   0.68440   0.71853   0.72733   0.79269
 Alpha virt. eigenvalues --    0.84577   0.86334   0.93741   0.99673   1.00425
 Alpha virt. eigenvalues --    1.10273   1.13093   1.15656   1.19383   1.22632
 Alpha virt. eigenvalues --    1.24925   1.27976   1.30032   1.34187   1.37822
 Alpha virt. eigenvalues --    1.47180   1.51739   1.58266   1.61114   1.64492
 Alpha virt. eigenvalues --    1.66848   1.67677   1.68048   1.71267   1.74509
 Alpha virt. eigenvalues --    1.80166   1.81644   1.84721   1.91032   2.01479
 Alpha virt. eigenvalues --    2.05438   2.10728   2.16320   2.27958   2.40582
 Alpha virt. eigenvalues --    2.49836   2.59803   2.64339   2.66039   2.74630
 Alpha virt. eigenvalues --    2.76411   2.76562   2.77314   2.80993   2.86037
 Alpha virt. eigenvalues --    2.86729   2.91410   2.97174   3.00090   3.23725
 Alpha virt. eigenvalues --    3.42704   3.63483   3.63593   3.65401   3.79707
 Alpha virt. eigenvalues --    3.95159
          Condensed to atoms (all electrons):
               1          2          3          4          5          6
     1  O    7.521653   0.687815  -0.024973  -0.000098  -0.000154  -0.006446
     2  C    0.687815   4.270221   0.661602   0.000781  -0.000491   0.029623
     3  O   -0.024973   0.661602   7.579169  -0.005523   0.000209  -0.026700
     4  C   -0.000098   0.000781  -0.005523   4.985783   0.465281  -0.276022
     5  C   -0.000154  -0.000491   0.000209   0.465281   4.798905   0.472508
     6  O   -0.006446   0.029623  -0.026700  -0.276022   0.472508   8.078722
     7  H    0.000037  -0.000208  -0.000065  -0.093202   0.318996   0.004322
     8  H    0.000014  -0.000190   0.000062   0.241587  -0.115660   0.009093
     9  H   -0.000083  -0.002084   0.016956   0.432480  -0.018780  -0.028337
    10  H    0.000005  -0.000035   0.000051   0.340090  -0.051289   0.019680
               7          8          9         10
     1  O    0.000037   0.000014  -0.000083   0.000005
     2  C   -0.000208  -0.000190  -0.002084  -0.000035
     3  O   -0.000065   0.000062   0.016956   0.000051
     4  C   -0.093202   0.241587   0.432480   0.340090
     5  C    0.318996  -0.115660  -0.018780  -0.051289
     6  O    0.004322   0.009093  -0.028337   0.019680
     7  H    0.657317   0.028616   0.001686   0.013270
     8  H    0.028616   0.822613  -0.008527   0.003636
     9  H    0.001686  -0.008527   0.521316  -0.029611
    10  H    0.013270   0.003636  -0.029611   0.644463
 Mulliken charges:
               1
     1  O   -0.177769
     2  C    0.352967
     3  O   -0.200788
     4  C   -0.091157
     5  C    0.130476
     6  O   -0.276442
     7  H    0.069231
     8  H    0.018758
     9  H    0.114986
    10  H    0.059740
 Sum of Mulliken charges =  -0.00000
 Mulliken charges with hydrogens summed into heavy atoms:
               1
     1  O   -0.177769
     2  C    0.352967
     3  O   -0.200788
     4  C    0.102327
     5  C    0.199707
     6  O   -0.276442
 Electronic spatial extent (au):  <R**2>=            698.5865
 Charge=             -0.0000 electrons
 Dipole moment (field-independent basis, Debye):
    X=              2.6855    Y=             -0.6610    Z=             -0.3889  Tot=              2.7928
 Quadrupole moment (field-independent basis, Debye-Ang):
   XX=            -31.0227   YY=            -35.8938   ZZ=            -33.0092
   XY=             -5.8166   XZ=             -1.2213   YZ=             -0.8401
 Traceless Quadrupole moment (field-independent basis, Debye-Ang):
   XX=              2.2858   YY=             -2.5852   ZZ=              0.2994
   XY=             -5.8166   XZ=             -1.2213   YZ=             -0.8401
 Octapole moment (field-independent basis, Debye-Ang**2):
  XXX=             -4.4552  YYY=             -4.0277  ZZZ=             -2.0182  XYY=              2.9410
  XXY=             -5.4741  XXZ=             -3.9147  XZZ=             -5.5959  YZZ=             -0.6485
  YYZ=             -1.4290  XYZ=             -1.8269
 Hexadecapole moment (field-independent basis, Debye-Ang**3):
 XXXX=           -709.5030 YYYY=           -158.4214 ZZZZ=            -39.4985 XXXY=            -52.9707
 XXXZ=            -15.5671 YYYX=             -6.1309 YYYZ=             -0.3408 ZZZX=             -5.5384
 ZZZY=             -1.2658 XXYY=           -143.3400 XXZZ=           -119.1466 YYZZ=            -33.0872
 XXYZ=             -5.5860 YYXZ=             -3.3495 ZZXY=             -1.8620
 N-N= 2.158882208764D+02 E-N=-1.233643205936D+03  KE= 3.394964551053D+02
   1 Symmetry operations used in ECPInt.
 ECPInt:  NShTT=    1176 NPrTT=    4368 LenC2=    1163 LenP2D=    3481.
 LDataN:  DoStor=T MaxTD1= 5 Len=  102
 Calling FoFJK, ICntrl=      2127 FMM=F ISym2X=0 I1Cent= 0 IOpClX= 0 NMat=1 NMatS=1 NMatT=0.
 ***** Axes restored to original set *****
 -------------------------------------------------------------------
 Center     Atomic                   Forces (Hartrees/Bohr)
 Number     Number              X              Y              Z
 -------------------------------------------------------------------
      1        8          -0.001909825   -0.003741596   -0.000134750
      2        6           0.001550923    0.010440398    0.000491614
      3        8          -0.014841971    0.004960983   -0.000233257
      4        6           0.120261502   -0.046070718    0.022663903
      5        6           0.001552985    0.133356034   -0.040940099
      6        8          -0.118578369   -0.162997727    0.011600273
      7        1          -0.024940867   -0.025482938    0.004695224
      8        1          -0.001912346    0.075446811   -0.034138642
      9        1           0.012053291    0.003018848    0.019927156
     10        1           0.026764676    0.011069904    0.016068578
 -------------------------------------------------------------------
 Cartesian Forces:  Max     0.162997727 RMS     0.054006981

 GradGradGradGradGradGradGradGradGradGradGradGradGradGradGradGradGradGrad
 Berny optimization.
 FormGI is forming the generalized inverse of G from B-inverse, IUseBI=4.
 Internal  Forces:  Max     0.092775248 RMS     0.027183819
 Search for a local minimum.
 Step number   1 out of a maximum of   58
 All quantities printed in internal units (Hartrees-Bohrs-Radians)
 Mixed Optimization -- RFO/linear search
 Second derivative matrix not updated -- first step.
 ITU=  0
     Eigenvalues ---    0.00330   0.00593   0.01813   0.02536   0.03612
     Eigenvalues ---    0.04696   0.04886   0.05878   0.07414   0.07837
     Eigenvalues ---    0.12020   0.16000   0.16344   0.17148   0.26184
     Eigenvalues ---    0.31792   0.32713   0.33623   0.87165   1.22324
     Eigenvalues ---    1.317461000.000001000.000001000.000001000.00000
     Eigenvalues --- 1000.000001000.000001000.000001000.000001000.00000
     Eigenvalues --- 1000.000001000.000001000.000001000.000001000.00000
     Eigenvalues --- 1000.000001000.000001000.000001000.000001000.00000
     Eigenvalues --- 1000.000001000.000001000.000001000.000001000.00000
     Eigenvalues --- 1000.000001000.000001000.00000
 RFO step:  Lambda=-5.69434899D-02 EMin= 3.30028700D-03
 Linear search not attempted -- first point.
 Maximum step size (   0.300) exceeded in Quadratic search.
    -- Step size scaled by   0.667
 Iteration  1 RMS(Cart)=  0.04572530 RMS(Int)=  0.00438483
 Iteration  2 RMS(Cart)=  0.00313994 RMS(Int)=  0.00207024
 Iteration  3 RMS(Cart)=  0.00001579 RMS(Int)=  0.00207019
 Iteration  4 RMS(Cart)=  0.00000005 RMS(Int)=  0.00207019
 Iteration  1 RMS(Cart)=  0.00007482 RMS(Int)=  0.00008635
 Iteration  2 RMS(Cart)=  0.00003415 RMS(Int)=  0.00009645
 Iteration  3 RMS(Cart)=  0.00001563 RMS(Int)=  0.00010660
 Iteration  4 RMS(Cart)=  0.00000716 RMS(Int)=  0.00011206
 Iteration  5 RMS(Cart)=  0.00000328 RMS(Int)=  0.00011469
 Iteration  6 RMS(Cart)=  0.00000150 RMS(Int)=  0.00011592
 Iteration  7 RMS(Cart)=  0.00000069 RMS(Int)=  0.00011649
 Variable       Old X    -DE/DX   Delta X   Delta X   Delta X     New X
                                 (Linear)    (Quad)   (Total)
    R1        2.18090   0.00419   0.00000   0.00203   0.00203   2.18293
    R2        2.19009   0.00473   0.00000  -0.00229  -0.00230   2.18779
    R3        4.50358  -0.00346   0.00000   0.03371   0.03374   4.53732
    R4        4.53818  -0.00238   0.00000   0.05071   0.05068   4.58886
    R5        4.61398   0.03154   0.00000   0.07462   0.07461   4.68859
    R6        2.83510  -0.01977   0.00000  -0.13728  -0.13636   2.69874
    R7        3.63289   0.09278   0.00000   0.00000  -0.00000   3.63288
    R8        2.69040  -0.08079   0.00000   0.00000  -0.00000   2.69040
    R9        2.07056   0.01465   0.00000  -0.00209  -0.00206   2.06849
   R10        2.07970   0.00427   0.00000   0.00723   0.00723   2.08693
   R11        2.27158   0.00106   0.00000  -0.01451  -0.01349   2.25808
   R12        2.11226  -0.00201   0.00000  -0.00358  -0.00358   2.10868
   R13        3.12048   0.03138   0.00000   0.00000   0.00000   3.12048
    A1        1.84921  -0.00017   0.00000  -0.00357  -0.00356   1.84565
    A2        2.11343   0.00956   0.00000  -0.01037  -0.01044   2.10299
    A3        0.80259   0.01070   0.00000  -0.00544  -0.00550   0.79709
    A4        1.19924   0.03783   0.00000   0.03589   0.03584   1.23507
    A5        1.92855  -0.03221   0.00000   0.00839   0.00670   1.93525
    A6        1.90691   0.02658   0.00000   0.11156   0.10846   2.01537
    A7        2.19790  -0.01524   0.00000  -0.04896  -0.05318   2.14472
    A8        2.10813  -0.01033   0.00000  -0.05461  -0.06096   2.04717
    A9        1.92814   0.01274   0.00000   0.04123   0.03396   1.96210
   A10        1.57080   0.06066   0.00000   0.06555   0.06697   1.63777
   A11        2.01579   0.00727   0.00000   0.08276   0.08158   2.09737
   A12        2.69660  -0.06793   0.00000  -0.14830  -0.14906   2.54754
   A13        2.66680  -0.04603   0.00000  -0.05428  -0.05441   2.61239
   A14        2.45605   0.00688   0.00000  -0.01423  -0.01420   2.44185
   A15        3.19072  -0.00043   0.00000   0.00660   0.00659   3.19730
   A16        3.15604  -0.04463   0.00000  -0.05954  -0.05953   3.09651
   A17        3.14158  -0.00000   0.00000  -0.00013  -0.00015   3.14143
   A18        3.14102   0.00056   0.00000   0.01054   0.01077   3.15179
    D1       -3.14113  -0.00016   0.00000  -0.00117  -0.00117   3.14089
    D2        3.14014   0.00097   0.00000  -0.00624  -0.00663   3.13351
    D3       -0.00168  -0.00430   0.00000  -0.03739  -0.03710  -0.03878
    D4        0.00170  -0.00197   0.00000  -0.02242  -0.02066  -0.01896
    D5        0.00051   0.00095   0.00000   0.02693   0.02724   0.02775
    D6        0.00100   0.00031   0.00000   0.02771   0.02795   0.02895
    D7        2.12735  -0.00262   0.00000  -0.03780  -0.04005   2.08730
    D8       -1.01450   0.00028   0.00000  -0.01564  -0.01427  -1.02877
    D9        0.00186  -0.00080   0.00000   0.01042   0.01132   0.01318
   D10       -3.13999   0.00211   0.00000   0.03258   0.03709  -3.10289
   D11       -2.12302  -0.01342   0.00000  -0.11949  -0.12118  -2.24421
   D12        1.01831  -0.01051   0.00000  -0.09733  -0.09540   0.92291
   D13       -0.00217   0.00027   0.00000  -0.03305  -0.03381  -0.03598
   D14       -1.36367  -0.02245   0.00000  -0.07250  -0.06899  -1.43266
   D15        2.11014   0.02078   0.00000   0.13979   0.13932   2.24946
   D16       -0.00260   0.00225   0.00000   0.01522   0.01332   0.01072
   D17        3.13953  -0.00393   0.00000  -0.03144  -0.02665   3.11288
         Item               Value     Threshold  Converged?
 Maximum Force            0.063951     0.000450     NO
 RMS     Force            0.016953     0.000300     NO
 Maximum Displacement     0.181409     0.001800     NO
 RMS     Displacement     0.045395     0.001200     NO
 Predicted change in Energy=-2.954586D-02
 GradGradGradGradGradGradGradGradGradGradGradGradGradGradGradGradGradGrad

                          Input orientation:
 ---------------------------------------------------------------------
 Center     Atomic      Atomic             Coordinates (Angstroms)
 Number     Number       Type             X           Y           Z
 ---------------------------------------------------------------------
      1          8           0       -2.312092   -0.742490    0.021027
      2          6           0       -1.721675    0.250337    0.011406
      3          8           0       -1.186270    1.276779    0.002027
      4          6           0        2.163778    0.743334   -0.040683
      5          6           0        1.764444   -0.627657   -0.020004
      6          8           0        0.597600   -0.370804   -0.001246
      7          1           0        2.533832   -1.435652   -0.001508
      8          1           0        2.691162    0.118720    1.124926
      9          1           0        1.291473    1.404172   -0.017763
     10          1           0        2.879262    1.017684   -0.835933
 ---------------------------------------------------------------------
                    Distance matrix (angstroms):
                    1          2          3          4          5
     1  O    0.000000
     2  C    1.155158   0.000000
     3  O    2.311987   1.157726   0.000000
     4  C    4.716449   3.916951   3.392522   0.000000
     5  C    4.078360   3.595120   3.511990   1.428114   0.000000
     6  O    2.933420   2.401045   2.428319   1.922439   1.194927
     7  H    4.895300   4.577343   4.603961   2.210532   1.115866
     8  H    5.195462   4.553063   4.199581   1.423700   1.651287
     9  H    4.194680   3.226647   2.481095   1.094600   2.086154
    10  H    5.548220   4.740825   4.159068   1.104358   2.148419
                    6          7          8          9         10
     6  O    0.000000
     7  H    2.209727   0.000000
     8  H    2.427117   1.926052   0.000000
     9  H    1.905853   3.099729   2.217489   0.000000
    10  H    2.798317   2.614277   2.165291   1.827525   0.000000
 Stoichiometry    C3H4O3
 Framework group  C1[X(C3H4O3)]
 Deg. of freedom    24
 Full point group                 C1      NOp   1
 Largest Abelian subgroup         C1      NOp   1
 Largest concise Abelian subgroup C1      NOp   1
                         Standard orientation:
 ---------------------------------------------------------------------
 Center     Atomic      Atomic             Coordinates (Angstroms)
 Number     Number       Type             X           Y           Z
 ---------------------------------------------------------------------
      1          8           0       -2.312208   -0.807589   -0.021029
      2          6           0       -1.706816    0.175855    0.005968
      3          8           0       -1.155922    1.193722    0.034123
      4          6           0        2.185850    0.610966   -0.012447
      5          6           0        1.765749   -0.753671   -0.040547
      6          8           0        0.602842   -0.479827   -0.018009
      7          1           0        2.522741   -1.573479   -0.046477
      8          1           0        2.698104   -0.061179    1.133300
      9          1           0        1.323530    1.283873    0.029381
     10          1           0        2.909226    0.901434   -0.794727
 ---------------------------------------------------------------------
 Rotational constants (GHZ):           9.1005442           1.8897370           1.5841819
 Standard basis: def2SVP (5D, 7F)
 There are   110 symmetry adapted cartesian basis functions of A   symmetry.
 There are   104 symmetry adapted basis functions of A   symmetry.
   104 basis functions,   178 primitive gaussians,   110 cartesian basis functions
    23 alpha electrons       23 beta electrons
       nuclear repulsion energy       216.1265957121 Hartrees.
 NAtoms=   10 NActive=   10 NUniq=   10 SFac= 1.00D+00 NAtFMM=   60 NAOKFM=F Big=F
 Integral buffers will be    131072 words long.
 Raffenetti 2 integral format.
 Two-electron integral symmetry is turned on.
 One-electron integrals computed using PRISM.
   1 Symmetry operations used in ECPInt.
 ECPInt:  NShTT=    1176 NPrTT=    4368 LenC2=    1163 LenP2D=    3479.
 LDataN:  DoStor=T MaxTD1= 4 Len=   56
 NBasis=   104 RedAO= T EigKep=  4.10D-03  NBF=   104
 NBsUse=   104 1.00D-06 EigRej= -1.00D+00 NBFU=   104
 Initial guess from the checkpoint file:  "cage_free2_rct_epoxide_opening_modred.chk"
 B after Tr=     0.000000   -0.000000    0.000000
         Rot=    0.999999   -0.000464    0.000719    0.001066 Ang=  -0.16 deg.
 ExpMin= 1.22D-01 ExpMax= 2.27D+03 ExpMxC= 3.41D+02 IAcc=3 IRadAn=         5 AccDes= 0.00D+00
 Harris functional with IExCor= 1009 and IRadAn=       5 diagonalized for initial guess.
 HarFok:  IExCor= 1009 AccDes= 0.00D+00 IRadAn=         5 IDoV= 1 UseB2=F ITyADJ=14
 ICtDFT=  3500011 ScaDFX=  1.000000  1.000000  1.000000  1.000000
 FoFCou: FMM=F IPFlag=           0 FMFlag=      100000 FMFlg1=           0
         NFxFlg=           0 DoJE=T BraDBF=F KetDBF=T FulRan=T
         wScrn=  0.000000 ICntrl=       500 IOpCl=  0 I1Cent=   200000004 NGrid=           0
         NMat0=    1 NMatS0=      1 NMatT0=    0 NMatD0=    1 NMtDS0=    0 NMtDT0=    0
 Petite list used in FoFCou.
 Keep R1 ints in memory in canonical form, NReq=74801768.
 Requested convergence on RMS density matrix=1.00D-08 within 128 cycles.
 Requested convergence on MAX density matrix=1.00D-06.
 Requested convergence on             energy=1.00D-06.
 No special actions if energy rises.
 Integral accuracy reduced to 1.0D-05 until final iterations.
 Initial convergence to 1.0D-05 achieved.  Increase integral accuracy.
 SCF Done:  E(RM062X) =  -341.851120671     A.U. after   15 cycles
            NFock= 15  Conv=0.91D-08     -V/T= 2.0066
   1 Symmetry operations used in ECPInt.
 ECPInt:  NShTT=    1176 NPrTT=    4368 LenC2=    1163 LenP2D=    3479.
 LDataN:  DoStor=T MaxTD1= 5 Len=  102
 Calling FoFJK, ICntrl=      2127 FMM=F ISym2X=0 I1Cent= 0 IOpClX= 0 NMat=1 NMatS=1 NMatT=0.
 ***** Axes restored to original set *****
 -------------------------------------------------------------------
 Center     Atomic                   Forces (Hartrees/Bohr)
 Number     Number              X              Y              Z
 -------------------------------------------------------------------
      1        8          -0.000086247   -0.002276946   -0.000107520
      2        6          -0.001035608    0.007163551    0.000380875
      3        8          -0.012352119    0.006074463   -0.000108101
      4        6           0.130179449   -0.000127473    0.029438296
      5        6          -0.005471289    0.073286942   -0.040591689
      6        8          -0.116631814   -0.145682479    0.013693656
      7        1          -0.020088405   -0.016865369    0.002818079
      8        1          -0.004603113    0.068773620   -0.036888568
      9        1           0.012034821    0.004279443    0.014905135
     10        1           0.018054326    0.005374250    0.016459840
 -------------------------------------------------------------------
 Cartesian Forces:  Max     0.145682479 RMS     0.047589142

 GradGradGradGradGradGradGradGradGradGradGradGradGradGradGradGradGradGrad
 Berny optimization.
 Using GEDIIS/GDIIS optimizer.
 FormGI is forming the generalized inverse of G from B-inverse, IUseBI=4.
 Internal  Forces:  Max     0.095098132 RMS     0.024521158
 Search for a local minimum.
 Step number   2 out of a maximum of   58
 All quantities printed in internal units (Hartrees-Bohrs-Radians)
 Mixed Optimization -- RFO/linear search
 Update second derivatives using D2CorX and points    1    2
 DE= -3.22D-02 DEPred=-2.95D-02 R= 1.09D+00
 TightC=F SS=  1.41D+00  RLast= 3.82D-01 DXNew= 5.0454D-01 1.1462D+00
 Trust test= 1.09D+00 RLast= 3.82D-01 DXMaxT set to 5.05D-01
 ITU=  1  0
 Use linear search instead of GDIIS.
     Eigenvalues ---    0.00331   0.00572   0.01540   0.02569   0.03486
     Eigenvalues ---    0.04068   0.04870   0.05914   0.07429   0.08146
     Eigenvalues ---    0.12201   0.12798   0.16460   0.17363   0.26111
     Eigenvalues ---    0.31789   0.32975   0.33709   0.84406   1.22481
     Eigenvalues ---    1.317431000.000001000.000001000.000001000.00000
     Eigenvalues --- 1000.000001000.000001000.000001000.000001000.00000
     Eigenvalues --- 1000.000001000.000001000.000001000.000001000.00000
     Eigenvalues --- 1000.000001000.000001000.000001000.000001000.00000
     Eigenvalues --- 1000.000001000.000001000.000001000.000001000.00000
     Eigenvalues --- 1000.000001000.000001000.00000
 RFO step:  Lambda=-5.79982382D-03 EMin= 3.30969882D-03
 Quartic linear search produced a step of  1.42769.
 Iteration  1 RMS(Cart)=  0.08280310 RMS(Int)=  0.02327834
 Iteration  2 RMS(Cart)=  0.02207468 RMS(Int)=  0.00992139
 Iteration  3 RMS(Cart)=  0.00075940 RMS(Int)=  0.00988641
 Iteration  4 RMS(Cart)=  0.00000989 RMS(Int)=  0.00988640
 Iteration  5 RMS(Cart)=  0.00000025 RMS(Int)=  0.00988640
 Iteration  1 RMS(Cart)=  0.00036280 RMS(Int)=  0.00029810
 Iteration  2 RMS(Cart)=  0.00014092 RMS(Int)=  0.00033173
 Iteration  3 RMS(Cart)=  0.00005729 RMS(Int)=  0.00036256
 Iteration  4 RMS(Cart)=  0.00002419 RMS(Int)=  0.00037805
 Iteration  5 RMS(Cart)=  0.00001050 RMS(Int)=  0.00038519
 Iteration  6 RMS(Cart)=  0.00000464 RMS(Int)=  0.00038842
 Iteration  7 RMS(Cart)=  0.00000208 RMS(Int)=  0.00038987
 Iteration  8 RMS(Cart)=  0.00000094 RMS(Int)=  0.00039053
 Variable       Old X    -DE/DX   Delta X   Delta X   Delta X     New X
                                 (Linear)    (Quad)   (Total)
    R1        2.18293   0.00200   0.00290  -0.00063   0.00227   2.18521
    R2        2.18779   0.00567  -0.00329   0.00019  -0.00376   2.18402
    R3        4.53732  -0.00399   0.04817   0.04929   0.09852   4.63583
    R4        4.58886   0.00149   0.07235   0.12968   0.20059   4.78945
    R5        4.68859   0.02670   0.10652  -0.00774   0.09797   4.78656
    R6        2.69874   0.01256  -0.19468   0.03383  -0.15945   2.53930
    R7        3.63288   0.09510  -0.00000   0.00000  -0.00000   3.63288
    R8        2.69040  -0.07993  -0.00000   0.00000  -0.00000   2.69040
    R9        2.06849   0.01068  -0.00295  -0.01094  -0.01316   2.05533
   R10        2.08693   0.00118   0.01032  -0.00946   0.00086   2.08780
   R11        2.25808   0.00998  -0.01926  -0.00610  -0.02335   2.23473
   R12        2.10868  -0.00159  -0.00511  -0.00295  -0.00806   2.10062
   R13        3.12048   0.03093   0.00000   0.00000   0.00000   3.12048
    A1        1.84565  -0.00203  -0.00508  -0.02377  -0.02843   1.81722
    A2        2.10299   0.01110  -0.01490  -0.00932  -0.02663   2.07636
    A3        0.79709   0.01416  -0.00785   0.02133   0.01074   0.80783
    A4        1.23507   0.03176   0.05117  -0.00894   0.04253   1.27760
    A5        1.93525  -0.02490   0.00957   0.06833   0.06882   2.00407
    A6        2.01537   0.01811   0.15485  -0.02096   0.11088   2.12625
    A7        2.14472  -0.01476  -0.07593  -0.04964  -0.13985   2.00487
    A8        2.04717  -0.01161  -0.08703  -0.00586  -0.11187   1.93530
    A9        1.96210   0.01077   0.04849   0.02123   0.03421   1.99631
   A10        1.63777   0.04693   0.09562  -0.01340   0.08835   1.72612
   A11        2.09737   0.00430   0.11648   0.06857   0.17689   2.27426
   A12        2.54754  -0.05135  -0.21281  -0.05620  -0.27033   2.27722
   A13        2.61239  -0.03926  -0.07768  -0.04561  -0.12224   2.49015
   A14        2.44185   0.00309  -0.02027  -0.02925  -0.04584   2.39601
   A15        3.19730  -0.00035   0.00940   0.01696   0.02591   3.22322
   A16        3.09651  -0.03786  -0.08499  -0.05567  -0.13968   2.95684
   A17        3.14143  -0.00001  -0.00021   0.00047   0.00040   3.14183
   A18        3.15179   0.00054   0.01537  -0.02080  -0.00366   3.14812
    D1        3.14089  -0.00007  -0.00167  -0.00131  -0.00217   3.13872
    D2        3.13351   0.00170  -0.00947   0.06177   0.04515  -3.10453
    D3       -0.03878  -0.00321  -0.05297  -0.00240  -0.03879  -0.07757
    D4       -0.01896  -0.00039  -0.02950   0.00379  -0.01703  -0.03599
    D5        0.02775   0.00038   0.03889  -0.00108   0.03559   0.06334
    D6        0.02895  -0.00051   0.03990  -0.04798  -0.00429   0.02466
    D7        2.08730  -0.00544  -0.05718  -0.10928  -0.17207   1.91523
    D8       -1.02877  -0.00137  -0.02037  -0.08163  -0.09142  -1.12020
    D9        0.01318  -0.00182   0.01615  -0.04030  -0.02034  -0.00716
   D10       -3.10289   0.00225   0.05296  -0.01265   0.06031  -3.04259
   D11       -2.24421  -0.00996  -0.17301  -0.11531  -0.29935  -2.54356
   D12        0.92291  -0.00590  -0.13620  -0.08766  -0.21870   0.70420
   D13       -0.03598   0.00215  -0.04827   0.07110   0.01636  -0.01962
   D14       -1.43266  -0.01795  -0.09850   0.05533  -0.02078  -1.45344
   D15        2.24946   0.01466   0.19890   0.12035   0.31307   2.56252
   D16        0.01072   0.00145   0.01901   0.01848   0.02706   0.03778
   D17        3.11288  -0.00173  -0.03805  -0.01938  -0.03995   3.07293
         Item               Value     Threshold  Converged?
 Maximum Force            0.038952     0.000450     NO
 RMS     Force            0.011069     0.000300     NO
 Maximum Displacement     0.281959     0.001800     NO
 RMS     Displacement     0.099201     0.001200     NO
 Predicted change in Energy=-3.058247D-02
 GradGradGradGradGradGradGradGradGradGradGradGradGradGradGradGradGradGrad

                          Input orientation:
 ---------------------------------------------------------------------
 Center     Atomic      Atomic             Coordinates (Angstroms)
 Number     Number       Type             X           Y           Z
 ---------------------------------------------------------------------
      1          8           0       -2.304769   -0.749502    0.119532
      2          6           0       -1.715850    0.243335    0.051565
      3          8           0       -1.210146    1.280519   -0.013531
      4          6           0        2.153720    0.714211   -0.115722
      5          6           0        1.807328   -0.583999   -0.098544
      6          8           0        0.632695   -0.459201   -0.042534
      7          1           0        2.439712   -1.496204   -0.038347
      8          1           0        2.552942    0.198541    1.149831
      9          1           0        1.318513    1.410145   -0.083274
     10          1           0        3.027369    1.076577   -0.686726
 ---------------------------------------------------------------------
                    Distance matrix (angstroms):
                    1          2          3          4          5
     1  O    0.000000
     2  C    1.156361   0.000000
     3  O    2.310171   1.155736   0.000000
     4  C    4.698503   3.901703   3.412732   0.000000
     5  C    4.121200   3.622126   3.548070   1.343738   0.000000
     6  O    2.956220   2.453177   2.534468   1.922439   1.182571
     7  H    4.805475   4.505860   4.586095   2.230182   1.111599
     8  H    5.055459   4.408036   4.084718   1.423699   1.651287
     9  H    4.222958   3.253764   2.532939   1.087634   2.053237
    10  H    5.693532   4.872114   4.295499   1.104815   2.142889
                    6          7          8          9         10
     6  O    0.000000
     7  H    2.083435   0.000000
     8  H    2.354084   2.072860   0.000000
     9  H    1.991597   3.115440   2.124229   0.000000
    10  H    2.916858   2.717524   2.090209   1.842719   0.000000
 Stoichiometry    C3H4O3
 Framework group  C1[X(C3H4O3)]
 Deg. of freedom    24
 Full point group                 C1      NOp   1
 Largest Abelian subgroup         C1      NOp   1
 Largest concise Abelian subgroup C1      NOp   1
                         Standard orientation:
 ---------------------------------------------------------------------
 Center     Atomic      Atomic             Coordinates (Angstroms)
 Number     Number       Type             X           Y           Z
 ---------------------------------------------------------------------
      1          8           0       -2.312967   -0.807482    0.009356
      2          6           0       -1.709115    0.178683    0.006127
      3          8           0       -1.187936    1.210234    0.005111
      4          6           0        2.169727    0.599936   -0.014191
      5          6           0        1.805905   -0.692498   -0.067854
      6          8           0        0.631808   -0.553180   -0.044171
      7          1           0        2.423904   -1.615663   -0.029202
      8          1           0        2.520200    0.021463    1.238589
      9          1           0        1.343133    1.305837    0.023167
     10          1           0        3.066414    0.975052   -0.539414
 ---------------------------------------------------------------------
 Rotational constants (GHZ):           8.9567364           1.8733232           1.5676931
 Standard basis: def2SVP (5D, 7F)
 There are   110 symmetry adapted cartesian basis functions of A   symmetry.
 There are   104 symmetry adapted basis functions of A   symmetry.
   104 basis functions,   178 primitive gaussians,   110 cartesian basis functions
    23 alpha electrons       23 beta electrons
       nuclear repulsion energy       216.1629320316 Hartrees.
 NAtoms=   10 NActive=   10 NUniq=   10 SFac= 1.00D+00 NAtFMM=   60 NAOKFM=F Big=F
 Integral buffers will be    131072 words long.
 Raffenetti 2 integral format.
 Two-electron integral symmetry is turned on.
 One-electron integrals computed using PRISM.
   1 Symmetry operations used in ECPInt.
 ECPInt:  NShTT=    1176 NPrTT=    4368 LenC2=    1163 LenP2D=    3479.
 LDataN:  DoStor=T MaxTD1= 4 Len=   56
 NBasis=   104 RedAO= T EigKep=  3.13D-03  NBF=   104
 NBsUse=   104 1.00D-06 EigRej= -1.00D+00 NBFU=   104
 Initial guess from the checkpoint file:  "cage_free2_rct_epoxide_opening_modred.chk"
 B after Tr=     0.000000    0.000000    0.000000
         Rot=    0.999994    0.001690    0.002277   -0.001851 Ang=   0.39 deg.
 ExpMin= 1.22D-01 ExpMax= 2.27D+03 ExpMxC= 3.41D+02 IAcc=3 IRadAn=         5 AccDes= 0.00D+00
 Harris functional with IExCor= 1009 and IRadAn=       5 diagonalized for initial guess.
 HarFok:  IExCor= 1009 AccDes= 0.00D+00 IRadAn=         5 IDoV= 1 UseB2=F ITyADJ=14
 ICtDFT=  3500011 ScaDFX=  1.000000  1.000000  1.000000  1.000000
 FoFCou: FMM=F IPFlag=           0 FMFlag=      100000 FMFlg1=           0
         NFxFlg=           0 DoJE=T BraDBF=F KetDBF=T FulRan=T
         wScrn=  0.000000 ICntrl=       500 IOpCl=  0 I1Cent=   200000004 NGrid=           0
         NMat0=    1 NMatS0=      1 NMatT0=    0 NMatD0=    1 NMtDS0=    0 NMtDT0=    0
 Petite list used in FoFCou.
 Keep R1 ints in memory in canonical form, NReq=74801768.
 Requested convergence on RMS density matrix=1.00D-08 within 128 cycles.
 Requested convergence on MAX density matrix=1.00D-06.
 Requested convergence on             energy=1.00D-06.
 No special actions if energy rises.
 Integral accuracy reduced to 1.0D-05 until final iterations.
 Initial convergence to 1.0D-05 achieved.  Increase integral accuracy.
 SCF Done:  E(RM062X) =  -341.878447708     A.U. after   16 cycles
            NFock= 16  Conv=0.68D-08     -V/T= 2.0061
   1 Symmetry operations used in ECPInt.
 ECPInt:  NShTT=    1176 NPrTT=    4368 LenC2=    1163 LenP2D=    3479.
 LDataN:  DoStor=T MaxTD1= 5 Len=  102
 Calling FoFJK, ICntrl=      2127 FMM=F ISym2X=0 I1Cent= 0 IOpClX= 0 NMat=1 NMatS=1 NMatT=0.
 ***** Axes restored to original set *****
 -------------------------------------------------------------------
 Center     Atomic                   Forces (Hartrees/Bohr)
 Number     Number              X              Y              Z
 -------------------------------------------------------------------
      1        8           0.003313961   -0.000999408   -0.000170125
      2        6          -0.006701801    0.001664594    0.000312804
      3        8          -0.004341660    0.007198033    0.000031793
      4        6           0.152039394    0.089361792    0.052295125
      5        6          -0.023264480   -0.038839974   -0.029821462
      6        8          -0.127016187   -0.116448213    0.009524317
      7        1          -0.001867948   -0.001427104   -0.001883626
      8        1          -0.002587489    0.057072666   -0.046773998
      9        1           0.003240277    0.002033052    0.004896322
     10        1           0.007185934    0.000384562    0.011588852
 -------------------------------------------------------------------
 Cartesian Forces:  Max     0.152039394 RMS     0.049117346

 GradGradGradGradGradGradGradGradGradGradGradGradGradGradGradGradGradGrad
 Berny optimization.
 Using GEDIIS/GDIIS optimizer.
 FormGI is forming the generalized inverse of G from B-inverse, IUseBI=4.
 Internal  Forces:  Max     0.109625841 RMS     0.024852203
 Search for a local minimum.
 Step number   3 out of a maximum of   58
 All quantities printed in internal units (Hartrees-Bohrs-Radians)
 Mixed Optimization -- RFO/linear search
 Update second derivatives using D2CorX and points    2    3
 DE= -2.73D-02 DEPred=-3.06D-02 R= 8.94D-01
 TightC=F SS=  1.41D+00  RLast= 7.58D-01 DXNew= 8.4853D-01 2.2739D+00
 Trust test= 8.94D-01 RLast= 7.58D-01 DXMaxT set to 8.49D-01
 ITU=  1  1  0
 Use linear search instead of GDIIS.
     Eigenvalues ---    0.00335   0.00555   0.01241   0.02493   0.03207
     Eigenvalues ---    0.03638   0.04854   0.05690   0.07253   0.08056
     Eigenvalues ---    0.13161   0.14260   0.16582   0.17981   0.30083
     Eigenvalues ---    0.31788   0.33593   0.35042   0.81799   1.22870
     Eigenvalues ---    1.317531000.000001000.000001000.000001000.00000
     Eigenvalues --- 1000.000001000.000001000.000001000.000001000.00000
     Eigenvalues --- 1000.000001000.000001000.000001000.000001000.00000
     Eigenvalues --- 1000.000001000.000001000.000001000.000001000.00000
     Eigenvalues --- 1000.000001000.000001000.000001000.000001000.00000
     Eigenvalues --- 1000.000001000.000001000.00000
 RFO step:  Lambda=-7.43396831D-03 EMin= 3.34748592D-03
 Quartic linear search produced a step of  0.17795.
 Iteration  1 RMS(Cart)=  0.05259715 RMS(Int)=  0.00713931
 Iteration  2 RMS(Cart)=  0.00477553 RMS(Int)=  0.00418515
 Iteration  3 RMS(Cart)=  0.00005325 RMS(Int)=  0.00418461
 Iteration  4 RMS(Cart)=  0.00000040 RMS(Int)=  0.00418461
 Iteration  1 RMS(Cart)=  0.00031302 RMS(Int)=  0.00023062
 Iteration  2 RMS(Cart)=  0.00010064 RMS(Int)=  0.00025473
 Iteration  3 RMS(Cart)=  0.00003259 RMS(Int)=  0.00027189
 Iteration  4 RMS(Cart)=  0.00001072 RMS(Int)=  0.00027846
 Iteration  5 RMS(Cart)=  0.00000364 RMS(Int)=  0.00028078
 Iteration  6 RMS(Cart)=  0.00000130 RMS(Int)=  0.00028160
 Iteration  7 RMS(Cart)=  0.00000050 RMS(Int)=  0.00028189
 Variable       Old X    -DE/DX   Delta X   Delta X   Delta X     New X
                                 (Linear)    (Quad)   (Total)
    R1        2.18521  -0.00084   0.00040  -0.00077  -0.00037   2.18484
    R2        2.18402   0.00786  -0.00067   0.00194   0.00059   2.18462
    R3        4.63583  -0.00485   0.01753   0.07424   0.09263   4.72846
    R4        4.78945   0.00486   0.03570   0.12439   0.15872   4.94817
    R5        4.78656   0.01720   0.01743  -0.00372   0.01292   4.79948
    R6        2.53930   0.06949  -0.02837   0.07094   0.04083   2.58013
    R7        3.63288   0.10963  -0.00000   0.00000   0.00001   3.63289
    R8        2.69040  -0.08225  -0.00000   0.00000   0.00000   2.69040
    R9        2.05533   0.00764  -0.00234  -0.00196  -0.00355   2.05178
   R10        2.08780  -0.00018   0.00015  -0.00046  -0.00031   2.08749
   R11        2.23473   0.02747  -0.00416  -0.00440  -0.01016   2.22457
   R12        2.10062   0.00001  -0.00143   0.00046  -0.00098   2.09964
   R13        3.12048   0.03074   0.00000   0.00000  -0.00000   3.12048
    A1        1.81722  -0.00532  -0.00506  -0.03070  -0.03531   1.78191
    A2        2.07636   0.01349  -0.00474  -0.01000  -0.01688   2.05948
    A3        0.80783   0.01837   0.00191   0.00695   0.00597   0.81380
    A4        1.27760   0.02055   0.00757  -0.01911  -0.01097   1.26663
    A5        2.00407  -0.01936   0.01225   0.04340   0.04930   2.05337
    A6        2.12625   0.01035   0.01973   0.04783   0.05180   2.17805
    A7        2.00487  -0.00858  -0.02489  -0.04331  -0.06904   1.93584
    A8        1.93530  -0.01073  -0.01991  -0.09787  -0.11934   1.81595
    A9        1.99631   0.00859   0.00609   0.01831   0.00558   2.00189
   A10        1.72612   0.02240   0.01572  -0.03444  -0.01618   1.70994
   A11        2.27426  -0.00860   0.03148   0.01918   0.04881   2.32307
   A12        2.27722  -0.01381  -0.04810   0.01601  -0.03321   2.24401
   A13        2.49015  -0.02525  -0.02175  -0.01105  -0.03076   2.45939
   A14        2.39601   0.00385  -0.00816  -0.00541  -0.00948   2.38652
   A15        3.22322  -0.00203   0.00461  -0.00312   0.00104   3.22426
   A16        2.95684  -0.02368  -0.02486  -0.02099  -0.04373   2.91311
   A17        3.14183   0.00001   0.00007  -0.00036  -0.00027   3.14156
   A18        3.14812   0.00014  -0.00065   0.01189   0.01148   3.15961
    D1        3.13872   0.00008  -0.00039  -0.00019  -0.00048   3.13824
    D2       -3.10453   0.00108   0.00803  -0.02206  -0.01514  -3.11967
    D3       -0.07757  -0.00026  -0.00690  -0.00833  -0.01303  -0.09060
    D4       -0.03599   0.00093  -0.00303  -0.01028  -0.01217  -0.04816
    D5        0.06334  -0.00079   0.00633   0.01677   0.02290   0.08624
    D6        0.02466  -0.00123  -0.00076   0.02908   0.02913   0.05379
    D7        1.91523  -0.00071  -0.03062  -0.03998  -0.07050   1.84473
    D8       -1.12020  -0.00018  -0.01627  -0.04727  -0.06124  -1.18144
    D9       -0.00716  -0.00196  -0.00362   0.02208   0.02020   0.01304
   D10       -3.04259  -0.00143   0.01073   0.01479   0.02945  -3.01313
   D11       -2.54356  -0.00344  -0.05327  -0.17409  -0.23232  -2.77588
   D12        0.70420  -0.00291  -0.03892  -0.18138  -0.22307   0.48114
   D13       -0.01962   0.00259   0.00291  -0.04273  -0.04243  -0.06205
   D14       -1.45344  -0.01025  -0.00370  -0.02039  -0.01695  -1.47039
   D15        2.56252   0.00551   0.05571   0.14822   0.19949   2.76201
   D16        0.03778   0.00017   0.00482  -0.00243   0.00071   0.03848
   D17        3.07293   0.00012  -0.00711   0.00516  -0.00062   3.07232
         Item               Value     Threshold  Converged?
 Maximum Force            0.013642     0.000450     NO
 RMS     Force            0.003790     0.000300     NO
 Maximum Displacement     0.205063     0.001800     NO
 RMS     Displacement     0.054531     0.001200     NO
 Predicted change in Energy=-5.063136D-03
 GradGradGradGradGradGradGradGradGradGradGradGradGradGradGradGradGradGrad

                          Input orientation:
 ---------------------------------------------------------------------
 Center     Atomic      Atomic             Coordinates (Angstroms)
 Number     Number       Type             X           Y           Z
 ---------------------------------------------------------------------
      1          8           0       -2.295671   -0.737307    0.154520
      2          6           0       -1.717620    0.260319    0.068979
      3          8           0       -1.224034    1.302471   -0.013160
      4          6           0        2.132464    0.708236   -0.175653
      5          6           0        1.827728   -0.621596   -0.122302
      6          8           0        0.657932   -0.517901   -0.041020
      7          1           0        2.448356   -1.540441   -0.051250
      8          1           0        2.487878    0.241050    1.121398
      9          1           0        1.310910    1.416000   -0.121050
     10          1           0        3.073570    1.123591   -0.578212
 ---------------------------------------------------------------------
                    Distance matrix (angstroms):
                    1          2          3          4          5
     1  O    0.000000
     2  C    1.156165   0.000000
     3  O    2.310241   1.156051   0.000000
     4  C    4.669795   3.883764   3.412565   0.000000
     5  C    4.134300   3.658395   3.609321   1.365344   0.000000
     6  O    2.968189   2.502194   2.618458   1.922442   1.177193
     7  H    4.815927   4.540104   4.644356   2.274162   1.111082
     8  H    4.977386   4.335224   4.023944   1.423700   1.651286
     9  H    4.209524   3.247107   2.539778   1.085754   2.102118
    10  H    5.729624   4.911171   4.338281   1.104651   2.192180
                    6          7          8          9         10
     6  O    0.000000
     7  H    2.061870   0.000000
     8  H    2.296937   2.133161   0.000000
     9  H    2.042733   3.168469   2.075918   0.000000
    10  H    2.969576   2.786691   2.002645   1.844308   0.000000
 Stoichiometry    C3H4O3
 Framework group  C1[X(C3H4O3)]
 Deg. of freedom    24
 Full point group                 C1      NOp   1
 Largest Abelian subgroup         C1      NOp   1
 Largest concise Abelian subgroup C1      NOp   1
                         Standard orientation:
 ---------------------------------------------------------------------
 Center     Atomic      Atomic             Coordinates (Angstroms)
 Number     Number       Type             X           Y           Z
 ---------------------------------------------------------------------
      1          8           0       -2.296785   -0.822731    0.012979
      2          6           0       -1.716867    0.177446    0.005263
      3          8           0       -1.221543    1.221991   -0.000559
      4          6           0        2.139695    0.633833   -0.042317
      5          6           0        1.834728   -0.696695   -0.071596
      6          8           0        0.662316   -0.596254   -0.037798
      7          1           0        2.452815   -1.618562   -0.020302
      8          1           0        2.437032    0.099836    1.243514
      9          1           0        1.315527    1.338588    0.011786
     10          1           0        3.097382    1.068581   -0.380081
 ---------------------------------------------------------------------
 Rotational constants (GHZ):           8.5946594           1.8698544           1.5526396
 Standard basis: def2SVP (5D, 7F)
 There are   110 symmetry adapted cartesian basis functions of A   symmetry.
 There are   104 symmetry adapted basis functions of A   symmetry.
   104 basis functions,   178 primitive gaussians,   110 cartesian basis functions
    23 alpha electrons       23 beta electrons
       nuclear repulsion energy       215.1212593443 Hartrees.
 NAtoms=   10 NActive=   10 NUniq=   10 SFac= 1.00D+00 NAtFMM=   60 NAOKFM=F Big=F
 Integral buffers will be    131072 words long.
 Raffenetti 2 integral format.
 Two-electron integral symmetry is turned on.
 One-electron integrals computed using PRISM.
   1 Symmetry operations used in ECPInt.
 ECPInt:  NShTT=    1176 NPrTT=    4368 LenC2=    1163 LenP2D=    3473.
 LDataN:  DoStor=T MaxTD1= 4 Len=   56
 NBasis=   104 RedAO= T EigKep=  3.40D-03  NBF=   104
 NBsUse=   104 1.00D-06 EigRej= -1.00D+00 NBFU=   104
 Initial guess from the checkpoint file:  "cage_free2_rct_epoxide_opening_modred.chk"
 B after Tr=    -0.000000   -0.000000   -0.000000
         Rot=    0.999986    0.001975    0.000913   -0.004917 Ang=   0.62 deg.
 ExpMin= 1.22D-01 ExpMax= 2.27D+03 ExpMxC= 3.41D+02 IAcc=3 IRadAn=         5 AccDes= 0.00D+00
 Harris functional with IExCor= 1009 and IRadAn=       5 diagonalized for initial guess.
 HarFok:  IExCor= 1009 AccDes= 0.00D+00 IRadAn=         5 IDoV= 1 UseB2=F ITyADJ=14
 ICtDFT=  3500011 ScaDFX=  1.000000  1.000000  1.000000  1.000000
 FoFCou: FMM=F IPFlag=           0 FMFlag=      100000 FMFlg1=           0
         NFxFlg=           0 DoJE=T BraDBF=F KetDBF=T FulRan=T
         wScrn=  0.000000 ICntrl=       500 IOpCl=  0 I1Cent=   200000004 NGrid=           0
         NMat0=    1 NMatS0=      1 NMatT0=    0 NMatD0=    1 NMtDS0=    0 NMtDT0=    0
 Petite list used in FoFCou.
 Keep R1 ints in memory in canonical form, NReq=74801768.
 Requested convergence on RMS density matrix=1.00D-08 within 128 cycles.
 Requested convergence on MAX density matrix=1.00D-06.
 Requested convergence on             energy=1.00D-06.
 No special actions if energy rises.
 Integral accuracy reduced to 1.0D-05 until final iterations.
 Initial convergence to 1.0D-05 achieved.  Increase integral accuracy.
 SCF Done:  E(RM062X) =  -341.883505714     A.U. after   15 cycles
            NFock= 15  Conv=0.74D-08     -V/T= 2.0063
   1 Symmetry operations used in ECPInt.
 ECPInt:  NShTT=    1176 NPrTT=    4368 LenC2=    1163 LenP2D=    3473.
 LDataN:  DoStor=T MaxTD1= 5 Len=  102
 Calling FoFJK, ICntrl=      2127 FMM=F ISym2X=0 I1Cent= 0 IOpClX= 0 NMat=1 NMatS=1 NMatT=0.
 ***** Axes restored to original set *****
 -------------------------------------------------------------------
 Center     Atomic                   Forces (Hartrees/Bohr)
 Number     Number              X              Y              Z
 -------------------------------------------------------------------
      1        8           0.003545839   -0.000639518   -0.000209141
      2        6          -0.006306635    0.000453077    0.000318092
      3        8          -0.001338160    0.005579169   -0.000062518
      4        6           0.151675809    0.077610762    0.065739844
      5        6          -0.008748049   -0.019213878   -0.030635670
      6        8          -0.138413967   -0.113585810    0.013197643
      7        1           0.002502492    0.001402748   -0.001998505
      8        1          -0.003299945    0.051975500   -0.048874283
      9        1          -0.001860486   -0.001426222   -0.000668593
     10        1           0.002243102   -0.002155829    0.003193130
 -------------------------------------------------------------------
 Cartesian Forces:  Max     0.151675809 RMS     0.049055887

 GradGradGradGradGradGradGradGradGradGradGradGradGradGradGradGradGradGrad
 Berny optimization.
 Using GEDIIS/GDIIS optimizer.
 FormGI is forming the generalized inverse of G from B-inverse, IUseBI=4.
 Internal  Forces:  Max     0.106212883 RMS     0.023565833
 Search for a local minimum.
 Step number   4 out of a maximum of   58
 All quantities printed in internal units (Hartrees-Bohrs-Radians)
 Mixed Optimization -- RFO/linear search
 Update second derivatives using D2CorX and points    3    4
 DE= -5.06D-03 DEPred=-5.06D-03 R= 9.99D-01
 TightC=F SS=  1.41D+00  RLast= 4.75D-01 DXNew= 1.4270D+00 1.4259D+00
 Trust test= 9.99D-01 RLast= 4.75D-01 DXMaxT set to 1.43D+00
 ITU=  1  1  1  0
 Use linear search instead of GDIIS.
     Eigenvalues ---    0.00336   0.00552   0.01159   0.02292   0.02836
     Eigenvalues ---    0.03587   0.04851   0.05521   0.07175   0.07640
     Eigenvalues ---    0.13371   0.15463   0.16762   0.18383   0.30946
     Eigenvalues ---    0.31790   0.33628   0.36753   0.86355   1.23073
     Eigenvalues ---    1.317461000.000001000.000001000.000001000.00000
     Eigenvalues --- 1000.000001000.000001000.000001000.000001000.00000
     Eigenvalues --- 1000.000001000.000001000.000001000.000001000.00000
     Eigenvalues --- 1000.000001000.000001000.000001000.000001000.00000
     Eigenvalues --- 1000.000001000.000001000.000001000.000001000.00000
     Eigenvalues --- 1000.000001000.000001000.00000
 RFO step:  Lambda=-1.92376606D-03 EMin= 3.35622613D-03
 Quartic linear search produced a step of  0.31839.
 Iteration  1 RMS(Cart)=  0.03582741 RMS(Int)=  0.00210393
 Iteration  2 RMS(Cart)=  0.00145861 RMS(Int)=  0.00152433
 Iteration  3 RMS(Cart)=  0.00000271 RMS(Int)=  0.00152433
 Iteration  4 RMS(Cart)=  0.00000000 RMS(Int)=  0.00152433
 Iteration  1 RMS(Cart)=  0.00011423 RMS(Int)=  0.00009151
 Iteration  2 RMS(Cart)=  0.00003776 RMS(Int)=  0.00010127
 Iteration  3 RMS(Cart)=  0.00001284 RMS(Int)=  0.00010869
 Iteration  4 RMS(Cart)=  0.00000458 RMS(Int)=  0.00011178
 Iteration  5 RMS(Cart)=  0.00000173 RMS(Int)=  0.00011297
 Iteration  6 RMS(Cart)=  0.00000070 RMS(Int)=  0.00011344
 Variable       Old X    -DE/DX   Delta X   Delta X   Delta X     New X
                                 (Linear)    (Quad)   (Total)
    R1        2.18484  -0.00124  -0.00012  -0.00110  -0.00122   2.18362
    R2        2.18462   0.00825   0.00019   0.00215   0.00202   2.18664
    R3        4.72846  -0.00552   0.02949   0.06457   0.09453   4.82299
    R4        4.94817   0.00013   0.05053   0.07821   0.12814   5.07631
    R5        4.79948   0.01738   0.00411   0.02171   0.02542   4.82490
    R6        2.58013   0.04748   0.01300  -0.02562  -0.01329   2.56684
    R7        3.63289   0.10621   0.00000   0.00000   0.00000   3.63289
    R8        2.69040  -0.07799   0.00000   0.00000   0.00000   2.69040
    R9        2.05178   0.01015  -0.00113   0.00533   0.00445   2.05622
   R10        2.08749  -0.00006  -0.00010  -0.00036  -0.00046   2.08703
   R11        2.22457   0.04084  -0.00324   0.01246   0.00853   2.23311
   R12        2.09964   0.00011  -0.00031   0.00021  -0.00010   2.09954
   R13        3.12048   0.02536  -0.00000   0.00000  -0.00000   3.12048
    A1        1.78191  -0.00430  -0.01124  -0.03192  -0.04289   1.73903
    A2        2.05948   0.01244  -0.00537  -0.00907  -0.01568   2.04380
    A3        0.81380   0.01554   0.00190  -0.00700  -0.00626   0.80754
    A4        1.26663   0.02181  -0.00349   0.00686   0.00356   1.27020
    A5        2.05337  -0.02062   0.01570   0.00785   0.02111   2.07448
    A6        2.17805   0.00757   0.01649  -0.01316  -0.00303   2.17502
    A7        1.93584  -0.00830  -0.02198   0.00211  -0.02020   1.91563
    A8        1.81595  -0.00884  -0.03800  -0.03720  -0.07548   1.74048
    A9        2.00189   0.01080   0.00178   0.01440   0.00953   2.01142
   A10        1.70994   0.02520  -0.00515   0.00736   0.00286   1.71280
   A11        2.32307  -0.01560   0.01554  -0.02219  -0.00763   2.31544
   A12        2.24401  -0.00955  -0.01057   0.02023   0.00888   2.25288
   A13        2.45939  -0.02709  -0.00979  -0.01957  -0.02852   2.43087
   A14        2.38652   0.00714  -0.00302   0.01357   0.01205   2.39858
   A15        3.22426  -0.00311   0.00033  -0.02251  -0.02245   3.20181
   A16        2.91311  -0.02521  -0.01392  -0.02651  -0.03946   2.87366
   A17        3.14156  -0.00000  -0.00009  -0.00010  -0.00016   3.14141
   A18        3.15961   0.00010   0.00366  -0.00161   0.00179   3.16140
    D1        3.13824   0.00020  -0.00015   0.00008  -0.00004   3.13820
    D2       -3.11967   0.00196  -0.00482  -0.01860  -0.02421   3.13931
    D3       -0.09060   0.00039  -0.00415   0.03134   0.02844  -0.06216
    D4       -0.04816   0.00159  -0.00387   0.02415   0.02000  -0.02816
    D5        0.08624  -0.00204   0.00729  -0.06806  -0.06087   0.02537
    D6        0.05379  -0.00232   0.00928  -0.03590  -0.02629   0.02750
    D7        1.84473   0.00039  -0.02245  -0.01442  -0.03657   1.80816
    D8       -1.18144  -0.00023  -0.01950  -0.06694  -0.08576  -1.26720
    D9        0.01304  -0.00393   0.00643  -0.01853  -0.01110   0.00194
   D10       -3.01313  -0.00454   0.00938  -0.07106  -0.06029  -3.07342
   D11       -2.77588   0.00208  -0.07397  -0.05278  -0.12753  -2.90340
   D12        0.48114   0.00146  -0.07102  -0.10530  -0.17671   0.30443
   D13       -0.06205   0.00554  -0.01351   0.04696   0.03277  -0.02928
   D14       -1.47039  -0.00984  -0.00540   0.03559   0.03230  -1.43808
   D15        2.76201   0.00027   0.06351   0.07236   0.13570   2.89771
   D16        0.03848   0.00061   0.00022  -0.01357  -0.01342   0.02506
   D17        3.07232   0.00044  -0.00020   0.03145   0.03160   3.10391
         Item               Value     Threshold  Converged?
 Maximum Force            0.008777     0.000450     NO
 RMS     Force            0.002275     0.000300     NO
 Maximum Displacement     0.119935     0.001800     NO
 RMS     Displacement     0.035659     0.001200     NO
 Predicted change in Energy=-8.778022D-04
 GradGradGradGradGradGradGradGradGradGradGradGradGradGradGradGradGradGrad

                          Input orientation:
 ---------------------------------------------------------------------
 Center     Atomic      Atomic             Coordinates (Angstroms)
 Number     Number       Type             X           Y           Z
 ---------------------------------------------------------------------
      1          8           0       -2.291407   -0.729353    0.161167
      2          6           0       -1.738619    0.282098    0.079808
      3          8           0       -1.247056    1.326640    0.000937
      4          6           0        2.122220    0.692944   -0.202157
      5          6           0        1.845342   -0.634467   -0.122600
      6          8           0        0.669935   -0.554900   -0.030288
      7          1           0        2.491564   -1.537319   -0.082155
      8          1           0        2.455455    0.271085    1.116142
      9          1           0        1.299666    1.404221   -0.163858
     10          1           0        3.094415    1.113475   -0.514745
 ---------------------------------------------------------------------
                    Distance matrix (angstroms):
                    1          2          3          4          5
     1  O    0.000000
     2  C    1.155519   0.000000
     3  O    2.311590   1.157118   0.000000
     4  C    4.651347   3.892862   3.434361   0.000000
     5  C    4.147556   3.704840   3.663896   1.358312   0.000000
     6  O    2.972648   2.552219   2.686266   1.922443   1.181709
     7  H    4.856833   4.607707   4.710249   2.263822   1.111026
     8  H    4.944245   4.320228   4.008300   1.423700   1.651286
     9  H    4.189699   3.248032   2.553227   1.088107   2.110856
    10  H    5.732359   4.939929   4.377184   1.104410   2.183864
                    6          7          8          9         10
     6  O    0.000000
     7  H    2.070307   0.000000
     8  H    2.276980   2.169688   0.000000
     9  H    2.062173   3.174894   2.063552   0.000000
    10  H    2.982663   2.752685   1.943626   1.851696   0.000000
 Stoichiometry    C3H4O3
 Framework group  C1[X(C3H4O3)]
 Deg. of freedom    24
 Full point group                 C1      NOp   1
 Largest Abelian subgroup         C1      NOp   1
 Largest concise Abelian subgroup C1      NOp   1
                         Standard orientation:
 ---------------------------------------------------------------------
 Center     Atomic      Atomic             Coordinates (Angstroms)
 Number     Number       Type             X           Y           Z
 ---------------------------------------------------------------------
      1          8           0       -2.278771   -0.845148    0.008389
      2          6           0       -1.738370    0.176213    0.004701
      3          8           0       -1.259746    1.229700    0.002083
      4          6           0        2.124834    0.650855   -0.064201
      5          6           0        1.864954   -0.682365   -0.064194
      6          8           0        0.685344   -0.622818   -0.026654
      7          1           0        2.522303   -1.577627   -0.036305
      8          1           0        2.399506    0.167838    1.246590
      9          1           0        1.290489    1.348560   -0.031778
     10          1           0        3.104568    1.099131   -0.306878
 ---------------------------------------------------------------------
 Rotational constants (GHZ):           8.3986860           1.8542502           1.5350731
 Standard basis: def2SVP (5D, 7F)
 There are   110 symmetry adapted cartesian basis functions of A   symmetry.
 There are   104 symmetry adapted basis functions of A   symmetry.
   104 basis functions,   178 primitive gaussians,   110 cartesian basis functions
    23 alpha electrons       23 beta electrons
       nuclear repulsion energy       214.2781989893 Hartrees.
 NAtoms=   10 NActive=   10 NUniq=   10 SFac= 1.00D+00 NAtFMM=   60 NAOKFM=F Big=F
 Integral buffers will be    131072 words long.
 Raffenetti 2 integral format.
 Two-electron integral symmetry is turned on.
 One-electron integrals computed using PRISM.
   1 Symmetry operations used in ECPInt.
 ECPInt:  NShTT=    1176 NPrTT=    4368 LenC2=    1162 LenP2D=    3474.
 LDataN:  DoStor=T MaxTD1= 4 Len=   56
 NBasis=   104 RedAO= T EigKep=  3.34D-03  NBF=   104
 NBsUse=   104 1.00D-06 EigRej= -1.00D+00 NBFU=   104
 Initial guess from the checkpoint file:  "cage_free2_rct_epoxide_opening_modred.chk"
 B after Tr=     0.000000   -0.000000    0.000000
         Rot=    0.999984    0.001997    0.000429   -0.005345 Ang=   0.66 deg.
 ExpMin= 1.22D-01 ExpMax= 2.27D+03 ExpMxC= 3.41D+02 IAcc=3 IRadAn=         5 AccDes= 0.00D+00
 Harris functional with IExCor= 1009 and IRadAn=       5 diagonalized for initial guess.
 HarFok:  IExCor= 1009 AccDes= 0.00D+00 IRadAn=         5 IDoV= 1 UseB2=F ITyADJ=14
 ICtDFT=  3500011 ScaDFX=  1.000000  1.000000  1.000000  1.000000
 FoFCou: FMM=F IPFlag=           0 FMFlag=      100000 FMFlg1=           0
         NFxFlg=           0 DoJE=T BraDBF=F KetDBF=T FulRan=T
         wScrn=  0.000000 ICntrl=       500 IOpCl=  0 I1Cent=   200000004 NGrid=           0
         NMat0=    1 NMatS0=      1 NMatT0=    0 NMatD0=    1 NMtDS0=    0 NMtDT0=    0
 Petite list used in FoFCou.
 Keep R1 ints in memory in canonical form, NReq=74801768.
 Requested convergence on RMS density matrix=1.00D-08 within 128 cycles.
 Requested convergence on MAX density matrix=1.00D-06.
 Requested convergence on             energy=1.00D-06.
 No special actions if energy rises.
 Integral accuracy reduced to 1.0D-05 until final iterations.
 Initial convergence to 1.0D-05 achieved.  Increase integral accuracy.
 SCF Done:  E(RM062X) =  -341.884688130     A.U. after   14 cycles
            NFock= 14  Conv=0.95D-08     -V/T= 2.0064
   1 Symmetry operations used in ECPInt.
 ECPInt:  NShTT=    1176 NPrTT=    4368 LenC2=    1162 LenP2D=    3474.
 LDataN:  DoStor=T MaxTD1= 5 Len=  102
 Calling FoFJK, ICntrl=      2127 FMM=F ISym2X=0 I1Cent= 0 IOpClX= 0 NMat=1 NMatS=1 NMatT=0.
 ***** Axes restored to original set *****
 -------------------------------------------------------------------
 Center     Atomic                   Forces (Hartrees/Bohr)
 Number     Number              X              Y              Z
 -------------------------------------------------------------------
      1        8           0.001688255    0.000070312   -0.000110530
      2        6          -0.001738668    0.000079647    0.000039704
      3        8          -0.001881461    0.003552859    0.000030819
      4        6           0.151242363    0.091418451    0.071466391
      5        6          -0.017237094   -0.025219701   -0.031169756
      6        8          -0.128593389   -0.114343798    0.014860909
      7        1           0.001591960    0.001257908   -0.000362445
      8        1          -0.004296658    0.047680649   -0.050331744
      9        1          -0.001291905   -0.003106531   -0.002512115
     10        1           0.000516596   -0.001389796   -0.001911233
 -------------------------------------------------------------------
 Cartesian Forces:  Max     0.151242363 RMS     0.049312043

 GradGradGradGradGradGradGradGradGradGradGradGradGradGradGradGradGradGrad
 Berny optimization.
 Using GEDIIS/GDIIS optimizer.
 FormGI is forming the generalized inverse of G from B-inverse, IUseBI=4.
 Internal  Forces:  Max     0.106038316 RMS     0.023326164
 Search for a local minimum.
 Step number   5 out of a maximum of   58
 All quantities printed in internal units (Hartrees-Bohrs-Radians)
 Mixed Optimization -- RFO/linear search
 Update second derivatives using D2CorX and points    4    5
 DE= -1.18D-03 DEPred=-8.78D-04 R= 1.35D+00
 TightC=F SS=  1.41D+00  RLast= 3.55D-01 DXNew= 2.3981D+00 1.0652D+00
 Trust test= 1.35D+00 RLast= 3.55D-01 DXMaxT set to 1.43D+00
 ITU=  1  1  1  1  0
 Use linear search instead of GDIIS.
     Eigenvalues ---    0.00332   0.00550   0.01162   0.01865   0.02679
     Eigenvalues ---    0.03583   0.04863   0.05390   0.07159   0.07598
     Eigenvalues ---    0.13401   0.15058   0.15880   0.18568   0.30860
     Eigenvalues ---    0.31791   0.33677   0.37461   0.88169   1.23342
     Eigenvalues ---    1.316921000.000001000.000001000.000001000.00000
     Eigenvalues --- 1000.000001000.000001000.000001000.000001000.00000
     Eigenvalues --- 1000.000001000.000001000.000001000.000001000.00000
     Eigenvalues --- 1000.000001000.000001000.000001000.000001000.00000
     Eigenvalues --- 1000.000001000.000001000.000001000.000001000.00000
     Eigenvalues --- 1000.000001000.000001000.00000
 RFO step:  Lambda=-6.10242376D-04 EMin= 3.32127619D-03
 Quartic linear search produced a step of  0.15748.
 Iteration  1 RMS(Cart)=  0.01633661 RMS(Int)=  0.00035060
 Iteration  2 RMS(Cart)=  0.00028348 RMS(Int)=  0.00024880
 Iteration  3 RMS(Cart)=  0.00000015 RMS(Int)=  0.00024880
 Iteration  1 RMS(Cart)=  0.00000529 RMS(Int)=  0.00000366
 Iteration  2 RMS(Cart)=  0.00000174 RMS(Int)=  0.00000404
 Iteration  3 RMS(Cart)=  0.00000058 RMS(Int)=  0.00000431
 Variable       Old X    -DE/DX   Delta X   Delta X   Delta X     New X
                                 (Linear)    (Quad)   (Total)
    R1        2.18362  -0.00088  -0.00019  -0.00077  -0.00096   2.18265
    R2        2.18664   0.00614   0.00032   0.00043   0.00072   2.18736
    R3        4.82299  -0.00664   0.01489   0.03323   0.04824   4.87123
    R4        5.07631   0.00025   0.02018   0.05999   0.08006   5.15636
    R5        4.82490   0.01580   0.00400   0.01033   0.01428   4.83918
    R6        2.56684   0.05375  -0.00209   0.00239   0.00033   2.56716
    R7        3.63289   0.10604   0.00000   0.00000  -0.00000   3.63289
    R8        2.69040  -0.07690   0.00000   0.00000  -0.00000   2.69040
    R9        2.05622   0.00714   0.00070  -0.00057   0.00013   2.05636
   R10        2.08703   0.00047  -0.00007   0.00186   0.00179   2.08882
   R11        2.23311   0.03251   0.00134  -0.00108   0.00030   2.23341
   R12        2.09954  -0.00011  -0.00002  -0.00039  -0.00041   2.09913
   R13        3.12048   0.02450  -0.00000   0.00000   0.00000   3.12048
    A1        1.73903  -0.00260  -0.00675  -0.01533  -0.02203   1.71700
    A2        2.04380   0.01281  -0.00247  -0.01655  -0.01935   2.02445
    A3        0.80754   0.01628  -0.00099  -0.00685  -0.00792   0.79962
[...]
 -------------------------------------------------------------------
 Cartesian Forces:  Max     0.142013796 RMS     0.049730456

 GradGradGradGradGradGradGradGradGradGradGradGradGradGradGradGradGradGrad
 Berny optimization.
 Using GEDIIS/GDIIS optimizer.
 FormGI is forming the generalized inverse of G from B-inverse, IUseBI=4.
 Internal  Forces:  Max     0.112346693 RMS     0.024517794
 Search for a local minimum.
 Step number  58 out of a maximum of   58
 All quantities printed in internal units (Hartrees-Bohrs-Radians)
 Mixed Optimization -- RFO/linear search
 Update second derivatives using D2CorX and points   10   11   12   13   14
                                                     15   16   17   18   19
                                                     20   21   23   24   25
                                                     26   58   22
 ITU=  0  0  0  0  0  0  0  0  0  0  0  0  0  0  0  0  0  0  0  0
 ITU=  0  0  0  0  0  0  0  0  0  0 -1 -1 -1 -1 -1 -1  1  1  1 -1
 ITU=  1 -1 -1  1  1  1  1  1  1
 Use linear search instead of GDIIS.
 Skip linear search -- no minimum in search direction.
 Steepest descent instead of Quadratic search.
 Steepest descent step scaled to max of 0.05000.
 Iteration  1 RMS(Cart)=  0.01038027 RMS(Int)=  0.00011669
 Iteration  2 RMS(Cart)=  0.00002741 RMS(Int)=  0.00000582
 Iteration  3 RMS(Cart)=  0.00000003 RMS(Int)=  0.00000582
 Iteration  1 RMS(Cart)=  0.00000046 RMS(Int)=  0.00000051
 Variable       Old X    -DE/DX   Delta X   Delta X   Delta X     New X
                                 (Linear)    (Quad)   (Total)
    R1        2.16129   0.02390   0.00000   0.05000   0.05000   2.21129
    R2        2.17949   0.01939   0.00000   0.03179   0.03179   2.21128
    R3        5.30148  -0.00562   0.00000  -0.00273  -0.00272   5.29876
    R4        5.68652   0.00144   0.00000  -0.00054  -0.00055   5.68597
    R5        4.01004   0.01280   0.00000   0.00749   0.00748   4.01752
    R6        2.56610   0.05338   0.00000  -0.00092  -0.00092   2.56518
    R7        3.63289   0.11235   0.00000   0.00000   0.00000   3.63289
    R8        2.69040  -0.07852   0.00000   0.00000   0.00000   2.69040
    R9        2.05068   0.00595   0.00000  -0.00039  -0.00039   2.05029
   R10        2.08852   0.00000   0.00000   0.00001   0.00001   2.08852
   R11        2.23256   0.03411   0.00000  -0.00082  -0.00082   2.23174
   R12        2.09946  -0.00001   0.00000  -0.00003  -0.00003   2.09944
   R13        3.12048   0.02587   0.00000   0.00000  -0.00000   3.12048
    A1        1.62784  -0.00033   0.00000   0.00226   0.00225   1.63009
    A2        1.73304   0.01315   0.00000   0.00104   0.00102   1.73406
    A3        0.74553   0.02129   0.00000   0.00051   0.00051   0.74604
    A4        1.27039   0.02091   0.00000   0.00025   0.00025   1.27064
    A5        2.05464  -0.02168   0.00000   0.00038   0.00038   2.05502
    A6        2.15602   0.01032   0.00000  -0.00013  -0.00013   2.15590
    A7        1.97590  -0.00948   0.00000   0.00035   0.00035   1.97625
    A8        1.75151  -0.00574   0.00000   0.00006   0.00006   1.75157
    A9        2.02802   0.00940   0.00000  -0.00044  -0.00044   2.02758
   A10        1.71342   0.02920   0.00000   0.00085   0.00085   1.71427
   A11        2.29906  -0.01502   0.00000   0.00049   0.00049   2.29955
   A12        2.26930  -0.01418   0.00000  -0.00136  -0.00136   2.26794
   A13        2.09904  -0.02258   0.00000   0.00117   0.00117   2.10021
   A14        2.79355  -0.00625   0.00000  -0.00323  -0.00323   2.79032
   A15        3.17555  -0.00055   0.00000  -0.00238  -0.00238   3.17317
   A16        2.40252  -0.01951   0.00000   0.00698   0.00699   2.40952
   A17        3.14815   0.00008   0.00000  -0.00050  -0.00049   3.14766
   A18        2.94856   0.00012   0.00000  -0.00103  -0.00101   2.94755
    D1        3.12793   0.00002   0.00000  -0.00026  -0.00026   3.12766
    D2       -2.43898   0.00055   0.00000  -0.00418  -0.00416  -2.44315
    D3        0.34610   0.00113   0.00000  -0.00068  -0.00068   0.34542
    D4       -0.14941   0.00159   0.00000  -0.00152  -0.00152  -0.15093
    D5        0.98720  -0.00319   0.00000  -0.00334  -0.00335   0.98384
    D6        0.21805  -0.00254   0.00000   0.00046   0.00046   0.21851
    D7        1.79651   0.00032   0.00000  -0.00021  -0.00021   1.79630
    D8       -1.29115   0.00028   0.00000   0.00020   0.00020  -1.29095
    D9       -0.08245  -0.00176   0.00000  -0.00066  -0.00065  -0.08310
   D10        3.11308  -0.00179   0.00000  -0.00025  -0.00025   3.11283
   D11       -2.89543   0.00390   0.00000   0.00006   0.00007  -2.89536
   D12        0.30010   0.00386   0.00000   0.00047   0.00047   0.30057
   D13       -0.18432   0.00444   0.00000  -0.00020  -0.00020  -0.18452
   D14       -1.61631  -0.00809   0.00000  -0.00080  -0.00080  -1.61710
   D15        2.65277  -0.00008   0.00000  -0.00083  -0.00083   2.65195
   D16        0.14829   0.00082   0.00000   0.00164   0.00164   0.14993
   D17       -3.04587   0.00078   0.00000   0.00133   0.00133  -3.04454
         Item               Value     Threshold  Converged?
 Maximum Force            0.023903     0.000450     NO
 RMS     Force            0.004330     0.000300     NO
 Maximum Displacement     0.041905     0.001800     NO
 RMS     Displacement     0.010388     0.001200     NO
 Predicted change in Energy=-2.769721D-03
 Optimization stopped.
    -- Number of steps exceeded,  NStep=  58
    -- Flag reset to prevent archiving.
                           ----------------------------
                           ! Non-Optimized Parameters !
                           ! (Angstroms and Degrees)  !
 --------------------------                            --------------------------
 ! Name  Definition              Value          Derivative Info.                !
 --------------------------------------------------------------------------------
 ! R1    R(1,2)                  1.1702         -DE/DX =    0.0239              !
 ! R2    R(2,3)                  1.1702         -DE/DX =    0.0194              !
 ! R3    R(2,6)                  2.804          -DE/DX =   -0.0056              !
 ! R4    R(3,6)                  3.0089         -DE/DX =    0.0014              !
 ! R5    R(3,9)                  2.126          -DE/DX =    0.0128              !
 ! R6    R(4,5)                  1.3574         -DE/DX =    0.0534              !
 ! R7    R(4,6)                  1.9224         -DE/DX =    0.1123              !
 ! R8    R(4,8)                  1.4237         -DE/DX =   -0.0785              !
 ! R9    R(4,9)                  1.085          -DE/DX =    0.006               !
 ! R10   R(4,10)                 1.1052         -DE/DX =    0.0                 !
 ! R11   R(5,6)                  1.181          -DE/DX =    0.0341              !
 ! R12   R(5,7)                  1.111          -DE/DX =    0.0                 !
 ! R13   R(5,8)                  1.6513         -DE/DX =    0.0259              !
 ! A1    A(1,2,6)               93.3974         -DE/DX =   -0.0003              !
 ! A2    A(2,3,9)               99.3546         -DE/DX =    0.0131              !
 ! A3    A(6,3,9)               42.7449         -DE/DX =    0.0213              !
 ! A4    A(5,4,8)               72.8024         -DE/DX =    0.0209              !
 ! A5    A(5,4,9)              117.7441         -DE/DX =   -0.0217              !
 ! A6    A(5,4,10)             123.5238         -DE/DX =    0.0103              !
 ! A7    A(8,4,9)              113.2309         -DE/DX =   -0.0095              !
 ! A8    A(8,4,10)             100.3578         -DE/DX =   -0.0057              !
 ! A9    A(9,4,10)             116.1718         -DE/DX =    0.0094              !
 ! A10   A(4,5,6)               98.2204         -DE/DX =    0.0292              !
 ! A11   A(4,5,7)              131.7547         -DE/DX =   -0.015               !
 ! A12   A(6,5,7)              129.9434         -DE/DX =   -0.0142              !
 ! A13   A(3,6,5)              120.3332         -DE/DX =   -0.0226              !
 ! A14   A(3,9,4)              159.8738         -DE/DX =   -0.0062              !
 ! A15   L(1,2,3,5,-1)         181.8093         -DE/DX =   -0.0005              !
 ! A16   L(2,6,5,9,-1)         138.0552         -DE/DX =   -0.0195              !
 ! A17   L(1,2,3,5,-2)         180.3475         -DE/DX =    0.0001              !
 ! A18   L(2,6,5,9,-2)         168.882          -DE/DX =    0.0001              !
 ! D1    D(1,2,3,6)            179.202          -DE/DX =    0.0                 !
 ! D2    D(1,2,5,4)           -139.9819         -DE/DX =    0.0006              !
 ! D3    D(1,2,5,7)             19.7912         -DE/DX =    0.0011              !
 ! D4    D(9,3,6,5)             -8.6475         -DE/DX =    0.0016              !
 ! D5    D(2,3,9,4)             56.37           -DE/DX =   -0.0032              !
 ! D6    D(6,3,9,4)             12.5198         -DE/DX =   -0.0025              !
 ! D7    D(8,4,5,6)            102.9206         -DE/DX =    0.0003              !
 ! D8    D(8,4,5,7)            -73.9662         -DE/DX =    0.0003              !
 ! D9    D(9,4,5,6)             -4.7615         -DE/DX =   -0.0018              !
 ! D10   D(9,4,5,7)            178.3518         -DE/DX =   -0.0018              !
 ! D11   D(10,4,5,6)          -165.8921         -DE/DX =    0.0039              !
 ! D12   D(10,4,5,7)            17.2211         -DE/DX =    0.0039              !
 ! D13   D(5,4,9,3)            -10.5723         -DE/DX =    0.0044              !
 ! D14   D(8,4,9,3)            -92.6532         -DE/DX =   -0.0081              !
 ! D15   D(10,4,9,3)           151.9453         -DE/DX =   -0.0001              !
 ! D16   D(4,5,6,3)              8.5901         -DE/DX =    0.0008              !
 ! D17   D(7,5,6,3)           -174.4391         -DE/DX =    0.0008              !
 --------------------------------------------------------------------------------
 GradGradGradGradGradGradGradGradGradGradGradGradGradGradGradGradGradGrad

                          Input orientation:
 ---------------------------------------------------------------------
 Center     Atomic      Atomic             Coordinates (Angstroms)
 Number     Number       Type             X           Y           Z
 ---------------------------------------------------------------------
      1          8           0       -2.008531   -0.307710    0.745785
      2          6           0       -1.558066    0.499152    0.071903
      3          8           0       -1.136855    1.334521   -0.602581
      4          6           0        1.906309    0.640328   -0.085671
      5          6           0        1.979657   -0.708925   -0.220159
      6          8           0        0.823547   -0.930859   -0.319721
      7          1           0        2.841609   -1.409238   -0.190312
      8          1           0        2.145103    0.100199    1.209767
      9          1           0        0.930377    1.104933   -0.182089
     10          1           0        2.778365    1.312023   -0.184672
 ---------------------------------------------------------------------
                    Distance matrix (angstroms):
                    1          2          3          4          5
     1  O    0.000000
     2  C    1.143705   0.000000
     3  O    2.296700   1.153338   0.000000
     4  C    4.112915   3.470829   3.163850   0.000000
     5  C    4.123065   3.749698   3.746273   1.357922   0.000000
     6  O    3.089383   2.805420   3.009174   1.922441   1.181421
     7  H    5.060978   4.802901   4.850397   2.255318   1.110987
     8  H    4.199326   3.894529   3.947075   1.423700   1.651286
     9  H    3.390235   2.573681   2.122020   1.085172   2.095834
    10  H    5.138449   4.419415   3.937524   1.105195   2.173344
                    6          7          8          9         10
     6  O    0.000000
     7  H    2.078020   0.000000
     8  H    2.269124   2.173417   0.000000
     9  H    2.043234   3.158154   2.102930   0.000000
    10  H    2.978266   2.722001   1.952946   1.859557   0.000000
 Stoichiometry    C3H4O3
 Framework group  C1[X(C3H4O3)]
 Deg. of freedom    24
 Full point group                 C1      NOp   1
 Largest Abelian subgroup         C1      NOp   1
 Largest concise Abelian subgroup C1      NOp   1
                         Standard orientation:
 ---------------------------------------------------------------------
 Center     Atomic      Atomic             Coordinates (Angstroms)
 Number     Number       Type             X           Y           Z
 ---------------------------------------------------------------------
      1          8           0       -2.049709   -0.921644    0.375029
      2          6           0       -1.696406    0.102350    0.008050
      3          8           0       -1.376827    1.149158   -0.355616
      4          6           0        1.687892    0.794615    0.345624
      5          6           0        2.012109   -0.432566   -0.136934
      6          8           0        0.926585   -0.785262   -0.441893
      7          1           0        2.979858   -0.976084   -0.185328
      8          1           0        1.911121   -0.053560    1.467093
      9          1           0        0.656046    1.117346    0.252151
     10          1           0        2.431009    1.587891    0.545489
 ---------------------------------------------------------------------
 Rotational constants (GHZ):           7.1435949           1.9556384           1.6503866

 **********************************************************************

            Population analysis using the SCF Density.

 **********************************************************************

 Orbital symmetries:
       Occupied  (A) (A) (A) (A) (A) (A) (A) (A) (A) (A) (A) (A)
                 (A) (A) (A) (A) (A) (A) (A) (A) (A) (A) (A)
       Virtual   (A) (A) (A) (A) (A) (A) (A) (A) (A) (A) (A) (A)
                 (A) (A) (A) (A) (A) (A) (A) (A) (A) (A) (A) (A)
                 (A) (A) (A) (A) (A) (A) (A) (A) (A) (A) (A) (A)
                 (A) (A) (A) (A) (A) (A) (A) (A) (A) (A) (A) (A)
                 (A) (A) (A) (A) (A) (A) (A) (A) (A) (A) (A) (A)
                 (A) (A) (A) (A) (A) (A) (A) (A) (A) (A) (A) (A)
                 (A) (A) (A) (A) (A) (A) (A) (A) (A)
 The electronic state is 1-A.
 Alpha  occ. eigenvalues --  -19.70039 -19.70004 -19.59282 -10.73665 -10.63891
 Alpha  occ. eigenvalues --  -10.58651  -1.26893  -1.22073  -1.18223  -0.84688
 Alpha  occ. eigenvalues --   -0.67943  -0.63430  -0.60080  -0.59829  -0.59379
 Alpha  occ. eigenvalues --   -0.57883  -0.53550  -0.50608  -0.48137  -0.43212
 Alpha  occ. eigenvalues --   -0.42871  -0.35412  -0.30022
 Alpha virt. eigenvalues --    0.03581   0.05039   0.10644   0.11057   0.11704
 Alpha virt. eigenvalues --    0.13190   0.15454   0.21602   0.27545   0.32002
 Alpha virt. eigenvalues --    0.38756   0.41641   0.46756   0.48722   0.52186
 Alpha virt. eigenvalues --    0.53227   0.56375   0.58655   0.62792   0.66030
 Alpha virt. eigenvalues --    0.70545   0.70817   0.71129   0.78355   0.85738
 Alpha virt. eigenvalues --    0.86457   0.88915   0.92403   0.97495   1.04522
 Alpha virt. eigenvalues --    1.10422   1.12765   1.18653   1.21017   1.21410
 Alpha virt. eigenvalues --    1.23560   1.28212   1.31044   1.35971   1.41435
 Alpha virt. eigenvalues --    1.46143   1.50730   1.58840   1.61039   1.62627
 Alpha virt. eigenvalues --    1.66243   1.66961   1.67186   1.68843   1.72338
 Alpha virt. eigenvalues --    1.76247   1.81939   1.85959   1.96209   2.02296
 Alpha virt. eigenvalues --    2.16756   2.19717   2.23703   2.32891   2.45832
 Alpha virt. eigenvalues --    2.50661   2.60250   2.62694   2.63463   2.75225
 Alpha virt. eigenvalues --    2.75713   2.77377   2.81504   2.85731   2.86229
 Alpha virt. eigenvalues --    2.90413   2.97574   3.03013   3.03137   3.25402
 Alpha virt. eigenvalues --    3.60945   3.64143   3.64430   3.66160   3.71585
 Alpha virt. eigenvalues --    3.95271
          Condensed to atoms (all electrons):
               1          2          3          4          5          6
     1  O    7.479868   0.701580  -0.024580   0.000156   0.000398  -0.002466
     2  C    0.701580   4.281504   0.640813  -0.000564  -0.002060   0.025100
     3  O   -0.024580   0.640813   7.575910  -0.013777  -0.001008  -0.003326
     4  C    0.000156  -0.000564  -0.013777   4.939135   0.395805  -0.171599
     5  C    0.000398  -0.002060  -0.001008   0.395805   4.624343   0.565333
     6  O   -0.002466   0.025100  -0.003326  -0.171599   0.565333   7.967887
     7  H   -0.000004   0.000216  -0.000038  -0.087728   0.378108  -0.019850
     8  H    0.000075   0.000185  -0.000075   0.277642  -0.054998  -0.031154
     9  H   -0.001152  -0.008663   0.031799   0.423177  -0.004986  -0.037268
    10  H   -0.000005   0.000439   0.000114   0.326032  -0.036482   0.018461
               7          8          9         10
     1  O   -0.000004   0.000075  -0.001152  -0.000005
     2  C    0.000216   0.000185  -0.008663   0.000439
     3  O   -0.000038  -0.000075   0.031799   0.000114
     4  C   -0.087728   0.277642   0.423177   0.326032
     5  C    0.378108  -0.054998  -0.004986  -0.036482
     6  O   -0.019850  -0.031154  -0.037268   0.018461
     7  H    0.671611   0.001790   0.000937   0.009729
     8  H    0.001790   0.761689  -0.007408  -0.012872
     9  H    0.000937  -0.007408   0.535788  -0.040542
    10  H    0.009729  -0.012872  -0.040542   0.691702
 Mulliken charges:
               1
     1  O   -0.153869
     2  C    0.361450
     3  O   -0.205834
     4  C   -0.088278
     5  C    0.135548
     6  O   -0.311116
     7  H    0.045229
     8  H    0.065126
     9  H    0.108319
    10  H    0.043424
 Sum of Mulliken charges =  -0.00000
 Mulliken charges with hydrogens summed into heavy atoms:
               1
     1  O   -0.153869
     2  C    0.361450
     3  O   -0.205834
     4  C    0.128591
     5  C    0.180778
     6  O   -0.311116
 Electronic spatial extent (au):  <R**2>=            687.9473
 Charge=             -0.0000 electrons
 Dipole moment (field-independent basis, Debye):
    X=              2.2698    Y=              0.9667    Z=              1.0012  Tot=              2.6625
 Quadrupole moment (field-independent basis, Debye-Ang):
   XX=            -26.4124   YY=            -37.6213   ZZ=            -33.9874
   XY=             -1.8147   XZ=              1.2139   YZ=              0.1759
 Traceless Quadrupole moment (field-independent basis, Debye-Ang):
   XX=              6.2613   YY=             -4.9476   ZZ=             -1.3137
   XY=             -1.8147   XZ=              1.2139   YZ=              0.1759
 Octapole moment (field-independent basis, Debye-Ang**2):
  XXX=              6.3891  YYY=             -1.6378  ZZZ=             -2.8652  XYY=              2.4501
  XXY=             -2.0309  XXZ=             -2.1215  XZZ=             -4.2597  YZZ=             -1.4317
  YYZ=              0.5155  XYZ=             -3.3435
 Hexadecapole moment (field-independent basis, Debye-Ang**3):
 XXXX=           -572.1715 YYYY=           -168.2883 ZZZZ=            -62.7802 XXXY=            -28.6968
 XXXZ=             -1.4449 YYYX=             -0.2433 YYYZ=             -1.5930 ZZZX=             -4.9518
 ZZZY=             -3.8907 XXYY=           -134.3817 XXZZ=           -112.9770 YYZZ=            -39.1739
 XXYZ=              3.3624 YYXZ=             -0.9248 ZZXY=             -2.7316
 N-N= 2.150687714629D+02 E-N=-1.232100836034D+03  KE= 3.398023423066D+02


 IF MATHEMATICALLY YOU END UP WITH THE INCORRECT ANSWER,
 TRY MULTIPLYING BY THE PAGE NUMBER.
 Error termination request processed by link 9999.
 Error termination via Lnk1e in /home/users/astar/bmsi/zhangx5/programs/g16/l9999.exe at Tue Feb  7 22:24:15 2023.
 Job cpu time:       0 days  2 hours 48 minutes 40.4 seconds.
 Elapsed time:       0 days  0 hours  3 minutes  1.1 seconds.
 File lengths (MBytes):  RWF=     10 Int=      0 D2E=      0 Chk=      2 Scr=      1
