110
cationic_failed_scan.xyz    Empirical formula: C54H47LiN3O5    Energy(Hartree): -2630.892524    
C        1.1855120000    0.3963750000    1.0599250000
O        0.7989140000    0.8777930000    2.1061770000
C        1.1088090000    1.3024710000   -0.1525490000
N        1.9113540000    1.3742850000   -1.2212740000
N        0.2291760000    2.3066610000   -0.2884080000
C        3.0298500000    0.5299360000   -1.5590720000
N        1.5450940000    2.3738220000   -2.0470510000
C        0.5187080000    2.9285920000   -1.4654520000
C       -0.9037570000    2.7236490000    0.5574790000
C        4.1416930000    0.5133160000   -0.7132660000
C        2.9153440000   -0.2834370000   -2.6957970000
C       -0.3512000000    4.0213240000   -2.0227340000
H       -1.3111680000    1.7954070000    0.9760230000
C        5.1412160000   -0.4222690000   -0.9925840000
C        3.9486960000   -1.1863690000   -2.9345150000
H       -0.7605070000    3.6624130000   -2.9850750000
H        0.2637990000    4.9108320000   -2.2172850000
C        5.0532960000   -1.2920280000   -2.0813900000
O       -1.1271650000   -0.1755740000    0.0284710000
C        6.1060340000   -2.3358190000   -2.3345940000
H        5.7018030000   -3.3369780000   -2.1193010000
H        6.4263740000   -2.3274930000   -3.3854850000
H        6.9877890000   -2.1805090000   -1.7008670000
C        1.7204720000   -0.2095680000   -3.6069840000
H        0.7744290000   -0.1966400000   -3.0422960000
H        1.7451000000    0.7105410000   -4.2081120000
H        1.7047680000   -1.0687440000   -4.2888300000
C        4.2628830000    1.4489240000    0.4590460000
H        3.8355490000    2.4351310000    0.2307210000
H        3.7573690000    1.0500340000    1.3542790000
H        5.3183610000    1.5838320000    0.7263440000
H        3.8782360000   -1.8473940000   -3.8017710000
H        6.0134860000   -0.4681850000   -0.3368130000
C       -1.9244380000    3.3101140000   -0.4135140000
H       -2.2990030000    2.5132670000   -1.0860030000
O       -1.3697550000    4.3828630000   -1.1360320000
H       -2.7769200000    3.7100810000    0.1481710000
C       -0.4464880000    3.7089520000    1.6596550000
H       -0.1399470000    3.1153780000    2.5299830000
H       -1.3269900000    4.2994190000    1.9523990000
C        0.6906430000    4.6242680000    1.2677860000
C        2.0109580000    4.2040660000    1.4728880000
C        0.4692500000    5.8765800000    0.6838450000
C        3.0856410000    5.0061990000    1.0889630000
H        2.1916780000    3.2389640000    1.9561820000
C        1.5417780000    6.6814020000    0.3008000000
H       -0.5536540000    6.2178110000    0.5177130000
C        2.8526000000    6.2464010000    0.4961070000
H        4.1086940000    4.6696610000    1.2663230000
H        1.3522910000    7.6584590000   -0.1462790000
H        3.6903930000    6.8788610000    0.2000590000
C        1.7878660000   -0.9470470000    0.9159940000
C        1.5070530000   -1.6476750000   -0.2188940000
C        2.6519620000   -1.5110970000    1.9411900000
C        2.0810650000   -2.9261610000   -0.4835730000
H        0.8204020000   -1.2214440000   -0.9511520000
C        3.2450680000   -2.7830200000    1.7005690000
C        2.9524890000   -0.8353060000    3.1500050000
C        1.7894310000   -3.5937670000   -1.6963690000
C        2.9744970000   -3.4962360000    0.4564190000
C        4.0991300000   -3.3266560000    2.6869000000
H        2.5130010000    0.1406300000    3.3480650000
C        3.7945110000   -1.3939740000    4.0905040000
C        2.3794040000   -4.8035430000   -1.9883630000
H        1.0977110000   -3.1225000000   -2.3998220000
C        3.5645150000   -4.7393150000    0.1298070000
C        4.3700130000   -2.6538210000    3.8601280000
H        4.5570880000   -4.3012620000    2.5280960000
H        4.0101650000   -0.8540530000    5.0132980000
C        3.2750640000   -5.3750810000   -1.0623520000
H        2.1581240000   -5.3179710000   -2.9239950000
H        4.2616180000   -5.2160830000    0.8165560000
H        5.0310240000   -3.0999120000    4.6037570000
H        3.7454340000   -6.3334000000   -1.2869420000
C       -1.6793900000   -0.5407280000   -1.1747100000
H       -2.0897760000    0.3210990000   -1.7488120000
H       -0.9445950000   -1.0225520000   -1.8675820000
C       -2.7806790000   -1.5646150000   -0.9400450000
C       -4.0654530000   -1.1880440000   -0.5927850000
C       -2.4047950000   -2.9338220000   -0.8356270000
C       -5.0338320000   -2.1692240000   -0.1917560000
C       -3.2989400000   -3.8905660000   -0.4302360000
H       -1.3755550000   -3.2109380000   -1.0798540000
C       -6.3819050000   -1.8354320000    0.1238700000
C       -4.6368860000   -3.5359210000   -0.1056840000
H       -2.9987060000   -4.9376240000   -0.3558530000
C       -7.2752910000   -2.8047410000    0.5133970000
H       -6.7142050000   -0.7997270000    0.0398810000
C       -5.5840100000   -4.5140220000    0.3015390000
C       -6.8742210000   -4.1591490000    0.6080850000
H       -8.3055030000   -2.5306070000    0.7445190000
H       -5.2649100000   -5.5563040000    0.3625180000
H       -7.5944100000   -4.9173060000    0.9176280000
C       -4.4884650000    0.2450040000   -0.6290110000
C       -4.6805460000    1.0030620000    0.5478510000
C       -4.8229560000    0.8355060000   -1.8504440000
C       -5.2422540000    2.2863550000    0.4815080000
C       -5.3361030000    2.1329500000   -1.9126170000
H       -4.6978760000    0.2516370000   -2.7641720000
C       -5.5586080000    2.8619510000   -0.7446990000
H       -5.4210070000    2.8383910000    1.4080640000
H       -5.5906090000    2.5658620000   -2.8813080000
H       -5.9864300000    3.8637390000   -0.7907290000
C       -4.3205820000    0.5191200000    1.8970950000
H       -4.8268810000    1.0531990000    2.7320050000
O       -3.5204530000   -0.3541400000    2.1565140000
H       -0.0232830000   -0.7094330000    2.9858450000
O       -0.6861410000   -1.4093010000    2.8635260000
Li      -1.8751670000   -1.0459810000    1.4310370000
H       -0.8677530000   -1.7745450000    3.7342340000
