 Entering Gaussian System, Link 0=/home/users/astar/bmsi/zhangx5/programs/g16/g16
 Input=/scratch/users/astar/ihpc/vummalet/xinglong/yx/ts_guess/R_scan_scan.com
 Output=/scratch/users/astar/ihpc/vummalet/xinglong/yx/ts_guess/R_scan_scan.log
 Initial command:
 /home/users/astar/bmsi/zhangx5/programs/g16/l1.exe "/scratch/users/astar/ihpc/vummalet/xinglong/yx/ts_guess/Gau-2901931.inp" -scrdir="/scratch/users/astar/ihpc/vummalet/xinglong/yx/ts_guess/"
 Entering Link 1 = /home/users/astar/bmsi/zhangx5/programs/g16/l1.exe PID=   2901933.

 Copyright (c) 1988-2017, Gaussian, Inc.  All Rights Reserved.

 This is part of the Gaussian(R) 16 program.  It is based on
 the Gaussian(R) 09 system (copyright 2009, Gaussian, Inc.),
 the Gaussian(R) 03 system (copyright 2003, Gaussian, Inc.),
 the Gaussian(R) 98 system (copyright 1998, Gaussian, Inc.),
 the Gaussian(R) 94 system (copyright 1995, Gaussian, Inc.),
 the Gaussian 92(TM) system (copyright 1992, Gaussian, Inc.),
 the Gaussian 90(TM) system (copyright 1990, Gaussian, Inc.),
 the Gaussian 88(TM) system (copyright 1988, Gaussian, Inc.),
 the Gaussian 86(TM) system (copyright 1986, Carnegie Mellon
 University), and the Gaussian 82(TM) system (copyright 1983,
 Carnegie Mellon University). Gaussian is a federally registered
 trademark of Gaussian, Inc.

 This software contains proprietary and confidential information,
 including trade secrets, belonging to Gaussian, Inc.

 This software is provided under written license and may be
 used, copied, transmitted, or stored only in accord with that
 written license.

 The following legend is applicable only to US Government
 contracts under FAR:

                    RESTRICTED RIGHTS LEGEND

 Use, reproduction and disclosure by the US Government is
 subject to restrictions as set forth in subparagraphs (a)
 and (c) of the Commercial Computer Software - Restricted
 Rights clause in FAR 52.227-19.

 Gaussian, Inc.
 340 Quinnipiac St., Bldg. 40, Wallingford CT 06492


 ---------------------------------------------------------------
 Warning -- This program may not be used in any manner that
 competes with the business of Gaussian, Inc. or will provide
 assistance to any competitor of Gaussian, Inc.  The licensee
 of this program is prohibited from giving any competitor of
 Gaussian, Inc. access to this program.  By using this program,
 the user acknowledges that Gaussian, Inc. is engaged in the
 business of creating and licensing software in the field of
 computational chemistry and represents and warrants to the
 licensee that it is not a competitor of Gaussian, Inc. and that
 it will not use this program in any manner prohibited above.
 ---------------------------------------------------------------


 Cite this work as:
 Gaussian 16, Revision B.01,
 M. J. Frisch, G. W. Trucks, H. B. Schlegel, G. E. Scuseria,
 M. A. Robb, J. R. Cheeseman, G. Scalmani, V. Barone,
 G. A. Petersson, H. Nakatsuji, X. Li, M. Caricato, A. V. Marenich,
 J. Bloino, B. G. Janesko, R. Gomperts, B. Mennucci, H. P. Hratchian,
 J. V. Ortiz, A. F. Izmaylov, J. L. Sonnenberg, D. Williams-Young,
 F. Ding, F. Lipparini, F. Egidi, J. Goings, B. Peng, A. Petrone,
 T. Henderson, D. Ranasinghe, V. G. Zakrzewski, J. Gao, N. Rega,
 G. Zheng, W. Liang, M. Hada, M. Ehara, K. Toyota, R. Fukuda,
 J. Hasegawa, M. Ishida, T. Nakajima, Y. Honda, O. Kitao, H. Nakai,
 T. Vreven, K. Throssell, J. A. Montgomery, Jr., J. E. Peralta,
 F. Ogliaro, M. J. Bearpark, J. J. Heyd, E. N. Brothers, K. N. Kudin,
 V. N. Staroverov, T. A. Keith, R. Kobayashi, J. Normand,
 K. Raghavachari, A. P. Rendell, J. C. Burant, S. S. Iyengar,
 J. Tomasi, M. Cossi, J. M. Millam, M. Klene, C. Adamo, R. Cammi,
 J. W. Ochterski, R. L. Martin, K. Morokuma, O. Farkas,
 J. B. Foresman, and D. J. Fox, Gaussian, Inc., Wallingford CT, 2016.

 ******************************************
 Gaussian 16:  ES64L-G16RevB.01 20-Dec-2017
                15-Jun-2024
 ******************************************
 %chk=R_scan_scan.chk
 %nprocshared=64
 Will use up to   64 processors via shared memory.
 %mem=64GB
 ----------------------------------------------------
 # opt=(modredundant,maxstep=10) M062X def2svp scf=qc
 ----------------------------------------------------
 1/8=10,18=120,19=15,26=3,38=1/1,3;
 2/9=110,12=2,17=6,18=5,40=1/2;
 3/5=43,7=101,11=2,25=1,30=1,71=1,74=-55/1,2,3;
 4//1;
 5/5=2,8=3,38=5/8;
 6/7=2,8=2,9=2,10=2,28=1/1;
 7//1,2,3,16;
 1/8=10,18=20,19=15,26=3/3(2);
 2/9=110/2;
 99//99;
 2/9=110/2;
 3/5=43,7=101,11=2,25=1,30=1,71=1,74=-55/1,2,3;
 4/5=5,16=3,69=1/1;
 5/5=2,8=3,38=5/8;
 7//1,2,3,16;
 1/8=10,18=20,19=15,26=3/3(-5);
 2/9=110/2;
 6/7=2,8=2,9=2,10=2,19=2,28=1/1;
 99/9=1/99;
 ------------
 Gaussian job
 ------------
 Symbolic Z-matrix:
 Charge =  1 Multiplicity = 1
 C                     1.18209  -0.39561  -1.05564
 O                     0.79162  -0.87588  -2.10115
 C                     1.10428  -1.30284   0.15563
 N                     1.91222  -1.38382   1.2196
 N                     0.21843  -2.30119   0.29268
 C                     3.03802  -0.54794   1.55408
 N                     1.5425   -2.38275   2.04456
 C                     0.50913  -2.92849   1.46652
 C                    -0.9223   -2.70595  -0.54911
 C                     4.14792  -0.53945   0.70563
 C                     2.93228   0.26625   2.69101
 C                    -0.36589  -4.01702   2.02398
 H                    -1.32424  -1.77177  -0.96052
 C                     5.1534    0.39112   0.9807
 C                     3.97269   1.16158   2.92729
 H                    -0.76753  -3.65958   2.99005
 H                     0.24381  -4.91173   2.21131
 C                     5.07462   1.26121   2.06983
 O                    -1.12483   0.19162  -0.0199
 C                     6.13386   2.29927   2.31913
 H                     5.73336   3.30264   2.10712
 H                     6.45948   2.28785   3.3684
 H                     7.01161   2.14036   1.68075
 C                     1.73869   0.20099   3.6045
 H                     0.79119   0.19616   3.04198
 H                     1.75744  -0.71991   4.20473
 H                     1.73123   1.05936   4.2875
 C                     4.26247  -1.47914  -0.46412
 H                     3.82586  -2.46089  -0.23433
 H                     3.76273  -1.07742  -1.36122
 H                     5.3172   -1.62446  -0.72899
 H                     3.90906   1.82322   3.7946
 H                     6.02409   0.43109   0.32242
 C                    -1.94224  -3.28772   0.42541
 H                    -2.30803  -2.49077   1.10265
 O                    -1.39169  -4.36733   1.1412
 H                    -2.80045  -3.67981  -0.13318
 C                    -0.48082  -3.6911   -1.65688
 H                    -0.16924  -3.09639  -2.52341
 H                    -1.3691   -4.26974  -1.94943
 C                     0.64599  -4.62251  -1.27287
 C                     1.97062  -4.2186   -1.48323
 C                     0.41126  -5.87356  -0.69159
 C                     3.03671  -5.0361   -1.10794
 H                     2.16074  -3.2541   -1.96418
 C                     1.47522  -6.69375  -0.31719
 H                    -0.61521  -6.20162  -0.52069
 C                     2.79052  -6.27537  -0.51837
 H                     4.06317  -4.71246  -1.28962
 H                     1.27536  -7.66976   0.12765
 H                     3.62153  -6.9198   -0.22907
 C                     1.79267   0.94399  -0.9131
 C                     1.51899   1.64577   0.22292
 C                     2.65906   1.50257  -1.93919
 C                     2.1018    2.9204    0.48732
 H                     0.83012   1.22563   0.95613
 C                     3.26377   2.7687   -1.69732
 C                     2.95203   0.82578  -3.14911
 C                     1.81518   3.59026   1.70003
 C                     3.00051   3.48295  -0.45212
 C                     4.12128   3.30623  -2.68395
 H                     2.50349  -0.14592  -3.34788
 C                     3.79807   1.37814  -4.08974
 C                     2.41611   4.79437   1.99302
 H                     1.11817   3.12556   2.40259
 C                     3.60187   4.72032  -0.12447
 C                     4.38497   2.63251  -3.85834
 H                     4.58753   4.2768   -2.52461
 H                     4.00805   0.83749  -5.01341
 C                     3.31784   5.3579    1.06805
 H                     2.19895   5.31036   2.92876
 H                     4.30355   5.19114  -0.81064
 H                     5.04892   3.0738   -4.60221
 H                     3.79703   6.31164   1.29354
 C                    -1.67673   0.56012   1.18275
 H                    -2.09101  -0.29935   1.75761
 H                    -0.93984   1.04131   1.87388
 C                    -2.77525   1.58569   0.9429
 C                    -4.05997   1.21008   0.59447
 C                    -2.39603   2.95355   0.83245
 C                    -5.02539   2.1913    0.18622
 C                    -3.28731   3.91016   0.42056
 H                    -1.36674   3.22972   1.07735
 C                    -6.37323   1.85869  -0.13143
 C                    -4.6253    3.55676   0.09447
 H                    -2.98472   4.95622   0.3418
 C                    -7.2636    2.82801  -0.52791
 H                    -6.70781   0.82403  -0.04356
 C                    -5.56931   4.53481  -0.31984
 C                    -6.8595    4.18108  -0.62798
 H                    -8.29374   2.55489  -0.76052
 H                    -5.24794   5.57614  -0.38512
 H                    -7.57729   4.93924  -0.94304
 C                    -4.48712  -0.22174   0.63924
 C                    -4.68194  -0.98687  -0.53248
 C                    -4.82394  -0.80286   1.86452
 C                    -5.24821  -2.26766  -0.45758
 C                    -5.34131  -2.09815   1.93548
 H                    -4.69682  -0.21334   2.77434
 C                    -5.56622  -2.83415   0.77243
 H                    -5.42912  -2.82533  -1.38034
 H                    -5.59702  -2.52374   2.9071
 H                    -5.99717  -3.83427   0.82491
 C                    -4.32232  -0.51291  -1.88522
 H                    -4.83484  -1.04827  -2.71552
 O                    -3.5151    0.35134  -2.15217
 H                    -0.03768   0.70485  -2.9866
 O                    -0.69707   1.40577  -2.86629
 Li                   -1.87737   1.05691  -1.42095
 H                    -0.89133   1.76386  -3.74054

 Add virtual bond connecting atoms H77        and H56        Dist= 3.78D+00.
 Add virtual bond connecting atoms H107       and O2         Dist= 3.77D+00.
 The following ModRedundant input section has been read:
 B       1      19 S  10 -0.100


 GradGradGradGradGradGradGradGradGradGradGradGradGradGradGradGradGradGrad
 Berny optimization.
 Initialization pass.
                           ----------------------------
                           !    Initial Parameters    !
                           ! (Angstroms and Degrees)  !
 --------------------------                            --------------------------
 ! Name  Definition              Value          Derivative Info.                !
 --------------------------------------------------------------------------------
 ! R1    R(1,2)                  1.215          estimate D2E/DX2                !
 ! R2    R(1,3)                  1.5154         estimate D2E/DX2                !
 ! R3    R(1,19)                 2.5961         Scan                            !
 ! R4    R(1,52)                 1.4791         estimate D2E/DX2                !
 ! R5    R(2,107)                1.9926         estimate D2E/DX2                !
 ! R6    R(3,4)                  1.3384         estimate D2E/DX2                !
 ! R7    R(3,5)                  1.3417         estimate D2E/DX2                !
 ! R8    R(4,6)                  1.4415         estimate D2E/DX2                !
 ! R9    R(4,7)                  1.3473         estimate D2E/DX2                !
 ! R10   R(5,8)                  1.3623         estimate D2E/DX2                !
 ! R11   R(5,9)                  1.4744         estimate D2E/DX2                !
 ! R12   R(6,10)                 1.3971         estimate D2E/DX2                !
 ! R13   R(6,11)                 1.4024         estimate D2E/DX2                !
 ! R14   R(7,8)                  1.3038         estimate D2E/DX2                !
 ! R15   R(8,12)                 1.5038         estimate D2E/DX2                !
 ! R16   R(9,13)                 1.097          estimate D2E/DX2                !
 ! R17   R(9,34)                 1.5259         estimate D2E/DX2                !
 ! R18   R(9,38)                 1.5468         estimate D2E/DX2                !
 ! R19   R(10,14)                1.3974         estimate D2E/DX2                !
 ! R20   R(10,28)                1.5048         estimate D2E/DX2                !
 ! R21   R(11,15)                1.3928         estimate D2E/DX2                !
 ! R22   R(11,24)                1.5045         estimate D2E/DX2                !
 ! R23   R(12,16)                1.1056         estimate D2E/DX2                !
 ! R24   R(12,17)                1.0988         estimate D2E/DX2                !
 ! R25   R(12,36)                1.398          estimate D2E/DX2                !
 ! R26   R(14,18)                1.3962         estimate D2E/DX2                !
 ! R27   R(14,33)                1.0923         estimate D2E/DX2                !
 ! R28   R(15,18)                1.3998         estimate D2E/DX2                !
 ! R29   R(15,32)                1.0927         estimate D2E/DX2                !
 ! R30   R(18,20)                1.5039         estimate D2E/DX2                !
 ! R31   R(19,75)                1.3736         estimate D2E/DX2                !
 ! R32   R(19,109)               1.8105         estimate D2E/DX2                !
 ! R33   R(20,21)                1.101          estimate D2E/DX2                !
 ! R34   R(20,22)                1.0987         estimate D2E/DX2                !
 ! R35   R(20,23)                1.0969         estimate D2E/DX2                !
 ! R36   R(24,25)                1.1019         estimate D2E/DX2                !
 ! R37   R(24,26)                1.0994         estimate D2E/DX2                !
 ! R38   R(24,27)                1.097          estimate D2E/DX2                !
 ! R39   R(28,29)                1.0988         estimate D2E/DX2                !
 ! R40   R(28,30)                1.1027         estimate D2E/DX2                !
 ! R41   R(28,31)                1.0971         estimate D2E/DX2                !
 ! R42   R(34,35)                1.108          estimate D2E/DX2                !
 ! R43   R(34,36)                1.4075         estimate D2E/DX2                !
 ! R44   R(34,37)                1.0965         estimate D2E/DX2                !
 ! R45   R(38,39)                1.0962         estimate D2E/DX2                !
 ! R46   R(38,40)                1.0997         estimate D2E/DX2                !
 ! R47   R(38,41)                1.5115         estimate D2E/DX2                !
 ! R48   R(41,42)                1.4007         estimate D2E/DX2                !
 ! R49   R(41,43)                1.3993         estimate D2E/DX2                !
 ! R50   R(42,44)                1.3949         estimate D2E/DX2                !
 ! R51   R(42,45)                1.0944         estimate D2E/DX2                !
 ! R52   R(43,46)                1.3946         estimate D2E/DX2                !
 ! R53   R(43,47)                1.0911         estimate D2E/DX2                !
 ! R54   R(44,48)                1.3943         estimate D2E/DX2                !
 ! R55   R(44,49)                1.0915         estimate D2E/DX2                !
 ! R56   R(46,48)                1.3948         estimate D2E/DX2                !
 ! R57   R(46,50)                1.0911         estimate D2E/DX2                !
 ! R58   R(48,51)                1.0907         estimate D2E/DX2                !
 ! R59   R(52,53)                1.3631         estimate D2E/DX2                !
 ! R60   R(52,54)                1.4545         estimate D2E/DX2                !
 ! R61   R(53,55)                1.4263         estimate D2E/DX2                !
 ! R62   R(53,56)                1.0902         estimate D2E/DX2                !
 ! R63   R(54,57)                1.4238         estimate D2E/DX2                !
 ! R64   R(54,58)                1.417          estimate D2E/DX2                !
 ! R65   R(55,59)                1.4148         estimate D2E/DX2                !
 ! R66   R(55,60)                1.4166         estimate D2E/DX2                !
 ! R67   R(56,77)                2.0023         estimate D2E/DX2                !
 ! R68   R(57,60)                1.4594         estimate D2E/DX2                !
 ! R69   R(57,61)                1.4134         estimate D2E/DX2                !
 ! R70   R(58,62)                1.0885         estimate D2E/DX2                !
 ! R71   R(58,63)                1.3805         estimate D2E/DX2                !
 ! R72   R(59,64)                1.3773         estimate D2E/DX2                !
 ! R73   R(59,65)                1.0933         estimate D2E/DX2                !
 ! R74   R(60,66)                1.4142         estimate D2E/DX2                !
 ! R75   R(61,67)                1.3794         estimate D2E/DX2                !
 ! R76   R(61,68)                1.0885         estimate D2E/DX2                !
 ! R77   R(63,67)                1.4041         estimate D2E/DX2                !
 ! R78   R(63,69)                1.0907         estimate D2E/DX2                !
 ! R79   R(64,70)                1.4093         estimate D2E/DX2                !
 ! R80   R(64,71)                1.0904         estimate D2E/DX2                !
 ! R81   R(66,70)                1.3818         estimate D2E/DX2                !
 ! R82   R(66,72)                1.0885         estimate D2E/DX2                !
 ! R83   R(67,73)                1.0904         estimate D2E/DX2                !
 ! R84   R(70,74)                1.0909         estimate D2E/DX2                !
 ! R85   R(75,76)                1.1139         estimate D2E/DX2                !
 ! R86   R(75,77)                1.119          estimate D2E/DX2                !
 ! R87   R(75,78)                1.5219         estimate D2E/DX2                !
 ! R88   R(78,79)                1.3831         estimate D2E/DX2                !
 ! R89   R(78,80)                1.4237         estimate D2E/DX2                !
 ! R90   R(79,81)                1.4358         estimate D2E/DX2                !
 ! R91   R(79,94)                1.4948         estimate D2E/DX2                !
 ! R92   R(80,82)                1.3708         estimate D2E/DX2                !
 ! R93   R(80,83)                1.0935         estimate D2E/DX2                !
 ! R94   R(81,84)                1.4241         estimate D2E/DX2                !
 ! R95   R(81,85)                1.4258         estimate D2E/DX2                !
 ! R96   R(82,85)                1.4218         estimate D2E/DX2                !
 ! R97   R(82,86)                1.0918         estimate D2E/DX2                !
 ! R98   R(84,87)                1.3746         estimate D2E/DX2                !
 ! R99   R(84,88)                1.0909         estimate D2E/DX2                !
 ! R100  R(85,89)                1.4211         estimate D2E/DX2                !
 ! R101  R(87,90)                1.4157         estimate D2E/DX2                !
 ! R102  R(87,91)                1.0908         estimate D2E/DX2                !
 ! R103  R(89,90)                1.3728         estimate D2E/DX2                !
 ! R104  R(89,92)                1.0917         estimate D2E/DX2                !
 ! R105  R(90,93)                1.0905         estimate D2E/DX2                !
 ! R106  R(94,95)                1.4129         estimate D2E/DX2                !
 ! R107  R(94,96)                1.3973         estimate D2E/DX2                !
 ! R108  R(95,97)                1.4024         estimate D2E/DX2                !
 ! R109  R(95,104)               1.4778         estimate D2E/DX2                !
 ! R110  R(96,98)                1.3966         estimate D2E/DX2                !
 ! R111  R(96,99)                1.0915         estimate D2E/DX2                !
 ! R112  R(97,100)               1.391          estimate D2E/DX2                !
 ! R113  R(97,101)               1.0933         estimate D2E/DX2                !
 ! R114  R(98,100)               1.3946         estimate D2E/DX2                !
 ! R115  R(98,102)               1.0911         estimate D2E/DX2                !
 ! R116  R(100,103)              1.0903         estimate D2E/DX2                !
 ! R117  R(104,105)              1.113          estimate D2E/DX2                !
 ! R118  R(104,106)              1.2123         estimate D2E/DX2                !
 ! R119  R(107,108)              0.9698         estimate D2E/DX2                !
 ! R120  R(108,109)              1.8984         estimate D2E/DX2                !
 ! R121  R(108,110)              0.9645         estimate D2E/DX2                !
 ! A1    A(2,1,3)              115.7644         estimate D2E/DX2                !
 ! A2    A(2,1,52)             125.0024         estimate D2E/DX2                !
 ! A3    A(3,1,52)             119.1042         estimate D2E/DX2                !
 ! A4    A(1,2,107)            101.6866         estimate D2E/DX2                !
 ! A5    A(1,3,4)              129.8407         estimate D2E/DX2                !
 ! A6    A(1,3,5)              124.1266         estimate D2E/DX2                !
 ! A7    A(4,3,5)              105.8031         estimate D2E/DX2                !
 ! A8    A(3,4,6)              128.3752         estimate D2E/DX2                !
 ! A9    A(3,4,7)              111.4675         estimate D2E/DX2                !
 ! A10   A(6,4,7)              120.144          estimate D2E/DX2                !
 ! A11   A(3,5,8)              106.8428         estimate D2E/DX2                !
 ! A12   A(3,5,9)              131.0555         estimate D2E/DX2                !
 ! A13   A(8,5,9)              122.0497         estimate D2E/DX2                !
 ! A14   A(4,6,10)             118.8854         estimate D2E/DX2                !
 ! A15   A(4,6,11)             117.7667         estimate D2E/DX2                !
 ! A16   A(10,6,11)            123.2791         estimate D2E/DX2                !
 ! A17   A(4,7,8)              104.8559         estimate D2E/DX2                !
 ! A18   A(5,8,7)              111.0026         estimate D2E/DX2                !
 ! A19   A(5,8,12)             121.9088         estimate D2E/DX2                !
 ! A20   A(7,8,12)             126.8588         estimate D2E/DX2                !
 ! A21   A(5,9,13)             105.2965         estimate D2E/DX2                !
 ! A22   A(5,9,34)             104.9033         estimate D2E/DX2                !
 ! A23   A(5,9,38)             111.2795         estimate D2E/DX2                !
 ! A24   A(13,9,34)            108.6189         estimate D2E/DX2                !
 ! A25   A(13,9,38)            112.2311         estimate D2E/DX2                !
 ! A26   A(34,9,38)            113.912          estimate D2E/DX2                !
 ! A27   A(6,10,14)            117.1391         estimate D2E/DX2                !
 ! A28   A(6,10,28)            121.9218         estimate D2E/DX2                !
 ! A29   A(14,10,28)           120.9372         estimate D2E/DX2                !
 ! A30   A(6,11,15)            117.0274         estimate D2E/DX2                !
 ! A31   A(6,11,24)            121.7956         estimate D2E/DX2                !
 ! A32   A(15,11,24)           121.166          estimate D2E/DX2                !
 ! A33   A(8,12,16)            107.5346         estimate D2E/DX2                !
 ! A34   A(8,12,17)            109.2532         estimate D2E/DX2                !
 ! A35   A(8,12,36)            111.9792         estimate D2E/DX2                !
 ! A36   A(16,12,17)           108.4126         estimate D2E/DX2                !
 ! A37   A(16,12,36)           111.4835         estimate D2E/DX2                !
 ! A38   A(17,12,36)           108.1064         estimate D2E/DX2                !
 ! A39   A(10,14,18)           121.867          estimate D2E/DX2                !
 ! A40   A(10,14,33)           118.6414         estimate D2E/DX2                !
 ! A41   A(18,14,33)           119.4913         estimate D2E/DX2                !
 ! A42   A(11,15,18)           121.997          estimate D2E/DX2                !
 ! A43   A(11,15,32)           118.7099         estimate D2E/DX2                !
 ! A44   A(18,15,32)           119.2714         estimate D2E/DX2                !
 ! A45   A(14,18,15)           118.5479         estimate D2E/DX2                !
 ! A46   A(14,18,20)           121.3128         estimate D2E/DX2                !
 ! A47   A(15,18,20)           120.1349         estimate D2E/DX2                !
 ! A48   A(75,19,109)          112.4775         estimate D2E/DX2                !
 ! A49   A(18,20,21)           109.9336         estimate D2E/DX2                !
 ! A50   A(18,20,22)           111.0927         estimate D2E/DX2                !
 ! A51   A(18,20,23)           111.5388         estimate D2E/DX2                !
 ! A52   A(21,20,22)           107.529          estimate D2E/DX2                !
 ! A53   A(21,20,23)           108.1227         estimate D2E/DX2                !
 ! A54   A(22,20,23)           108.4899         estimate D2E/DX2                !
 ! A55   A(11,24,25)           111.8646         estimate D2E/DX2                !
 ! A56   A(11,24,26)           110.7516         estimate D2E/DX2                !
 ! A57   A(11,24,27)           110.4568         estimate D2E/DX2                !
 ! A58   A(25,24,26)           106.8399         estimate D2E/DX2                !
 ! A59   A(25,24,27)           108.3864         estimate D2E/DX2                !
 ! A60   A(26,24,27)           108.3992         estimate D2E/DX2                !
 ! A61   A(10,28,29)           111.416          estimate D2E/DX2                !
 ! A62   A(10,28,30)           111.741          estimate D2E/DX2                !
 ! A63   A(10,28,31)           110.0937         estimate D2E/DX2                !
 ! A64   A(29,28,30)           108.3954         estimate D2E/DX2                !
 ! A65   A(29,28,31)           108.3097         estimate D2E/DX2                !
 ! A66   A(30,28,31)           106.7103         estimate D2E/DX2                !
 ! A67   A(9,34,35)            109.6823         estimate D2E/DX2                !
 ! A68   A(9,34,36)            110.8413         estimate D2E/DX2                !
 ! A69   A(9,34,37)            109.5205         estimate D2E/DX2                !
 ! A70   A(35,34,36)           111.7163         estimate D2E/DX2                !
 ! A71   A(35,34,37)           108.0712         estimate D2E/DX2                !
 ! A72   A(36,34,37)           106.915          estimate D2E/DX2                !
 ! A73   A(12,36,34)           114.58           estimate D2E/DX2                !
 ! A74   A(9,38,39)            107.5608         estimate D2E/DX2                !
 ! A75   A(9,38,40)            107.162          estimate D2E/DX2                !
 ! A76   A(9,38,41)            115.0422         estimate D2E/DX2                !
 ! A77   A(39,38,40)           107.7435         estimate D2E/DX2                !
 ! A78   A(39,38,41)           108.8594         estimate D2E/DX2                !
 ! A79   A(40,38,41)           110.2123         estimate D2E/DX2                !
 ! A80   A(38,41,42)           119.2842         estimate D2E/DX2                !
 ! A81   A(38,41,43)           122.0999         estimate D2E/DX2                !
 ! A82   A(42,41,43)           118.6082         estimate D2E/DX2                !
 ! A83   A(41,42,44)           120.8882         estimate D2E/DX2                !
 ! A84   A(41,42,45)           118.9739         estimate D2E/DX2                !
 ! A85   A(44,42,45)           120.1302         estimate D2E/DX2                !
 ! A86   A(41,43,46)           120.6202         estimate D2E/DX2                !
 ! A87   A(41,43,47)           119.4515         estimate D2E/DX2                !
 ! A88   A(46,43,47)           119.9244         estimate D2E/DX2                !
 ! A89   A(42,44,48)           119.9825         estimate D2E/DX2                !
 ! A90   A(42,44,49)           120.0128         estimate D2E/DX2                !
 ! A91   A(48,44,49)           119.9981         estimate D2E/DX2                !
 ! A92   A(43,46,48)           120.2846         estimate D2E/DX2                !
 ! A93   A(43,46,50)           119.7228         estimate D2E/DX2                !
 ! A94   A(48,46,50)           119.9908         estimate D2E/DX2                !
 ! A95   A(44,48,46)           119.61           estimate D2E/DX2                !
 ! A96   A(44,48,51)           120.1856         estimate D2E/DX2                !
 ! A97   A(46,48,51)           120.1988         estimate D2E/DX2                !
 ! A98   A(1,52,53)            117.629          estimate D2E/DX2                !
 ! A99   A(1,52,54)            121.7178         estimate D2E/DX2                !
 ! A100  A(53,52,54)           120.6529         estimate D2E/DX2                !
 ! A101  A(52,53,55)           122.1793         estimate D2E/DX2                !
 ! A102  A(52,53,56)           119.2716         estimate D2E/DX2                !
 ! A103  A(55,53,56)           118.5488         estimate D2E/DX2                !
 ! A104  A(52,54,57)           118.3369         estimate D2E/DX2                !
 ! A105  A(52,54,58)           122.828          estimate D2E/DX2                !
 ! A106  A(57,54,58)           118.8144         estimate D2E/DX2                !
 ! A107  A(53,55,59)           119.9507         estimate D2E/DX2                !
 ! A108  A(53,55,60)           119.4196         estimate D2E/DX2                !
 ! A109  A(59,55,60)           120.5954         estimate D2E/DX2                !
 ! A110  A(53,56,77)           154.4575         estimate D2E/DX2                !
 ! A111  A(54,57,60)           120.2333         estimate D2E/DX2                !
 ! A112  A(54,57,61)           118.5081         estimate D2E/DX2                !
 ! A113  A(60,57,61)           121.258          estimate D2E/DX2                !
 ! A114  A(54,58,62)           119.8078         estimate D2E/DX2                !
 ! A115  A(54,58,63)           121.1598         estimate D2E/DX2                !
 ! A116  A(62,58,63)           119.0323         estimate D2E/DX2                !
 ! A117  A(55,59,64)           120.5245         estimate D2E/DX2                !
 ! A118  A(55,59,65)           118.6029         estimate D2E/DX2                !
 ! A119  A(64,59,65)           120.8679         estimate D2E/DX2                !
 ! A120  A(55,60,57)           119.0723         estimate D2E/DX2                !
 ! A121  A(55,60,66)           117.6181         estimate D2E/DX2                !
 ! A122  A(57,60,66)           123.3095         estimate D2E/DX2                !
 ! A123  A(57,61,67)           121.6382         estimate D2E/DX2                !
 ! A124  A(57,61,68)           119.7894         estimate D2E/DX2                !
 ! A125  A(67,61,68)           118.5721         estimate D2E/DX2                !
 ! A126  A(58,63,67)           120.0889         estimate D2E/DX2                !
 ! A127  A(58,63,69)           119.7818         estimate D2E/DX2                !
 ! A128  A(67,63,69)           120.1292         estimate D2E/DX2                !
 ! A129  A(59,64,70)           119.2836         estimate D2E/DX2                !
 ! A130  A(59,64,71)           120.6217         estimate D2E/DX2                !
 ! A131  A(70,64,71)           120.0947         estimate D2E/DX2                !
 ! A132  A(60,66,70)           121.0821         estimate D2E/DX2                !
 ! A133  A(60,66,72)           120.4309         estimate D2E/DX2                !
 ! A134  A(70,66,72)           118.4868         estimate D2E/DX2                !
 ! A135  A(61,67,63)           119.7859         estimate D2E/DX2                !
 ! A136  A(61,67,73)           119.9721         estimate D2E/DX2                !
 ! A137  A(63,67,73)           120.2419         estimate D2E/DX2                !
 ! A138  A(64,70,66)           120.893          estimate D2E/DX2                !
 ! A139  A(64,70,74)           119.6667         estimate D2E/DX2                !
 ! A140  A(66,70,74)           119.44           estimate D2E/DX2                !
 ! A141  A(19,75,76)           113.2219         estimate D2E/DX2                !
 ! A142  A(19,75,77)           113.0507         estimate D2E/DX2                !
 ! A143  A(19,75,78)           109.4402         estimate D2E/DX2                !
 ! A144  A(76,75,77)           104.949          estimate D2E/DX2                !
 ! A145  A(76,75,78)           109.4408         estimate D2E/DX2                !
 ! A146  A(77,75,78)           106.4322         estimate D2E/DX2                !
 ! A147  A(56,77,75)           109.7916         estimate D2E/DX2                !
 ! A148  A(75,78,79)           121.8145         estimate D2E/DX2                !
 ! A149  A(75,78,80)           117.8662         estimate D2E/DX2                !
 ! A150  A(79,78,80)           119.2598         estimate D2E/DX2                !
 ! A151  A(78,79,81)           120.7037         estimate D2E/DX2                !
 ! A152  A(78,79,94)           121.1979         estimate D2E/DX2                !
 ! A153  A(81,79,94)           118.0973         estimate D2E/DX2                !
 ! A154  A(78,80,82)           121.3711         estimate D2E/DX2                !
 ! A155  A(78,80,83)           118.4235         estimate D2E/DX2                !
 ! A156  A(82,80,83)           120.2036         estimate D2E/DX2                !
 ! A157  A(79,81,84)           122.6954         estimate D2E/DX2                !
 ! A158  A(79,81,85)           118.9532         estimate D2E/DX2                !
 ! A159  A(84,81,85)           118.3514         estimate D2E/DX2                !
 ! A160  A(80,82,85)           120.4859         estimate D2E/DX2                !
 ! A161  A(80,82,86)           120.6694         estimate D2E/DX2                !
 ! A162  A(85,82,86)           118.844          estimate D2E/DX2                !
 ! A163  A(81,84,87)           120.8411         estimate D2E/DX2                !
 ! A164  A(81,84,88)           119.5903         estimate D2E/DX2                !
 ! A165  A(87,84,88)           119.5612         estimate D2E/DX2                !
 ! A166  A(81,85,82)           119.1664         estimate D2E/DX2                !
 ! A167  A(81,85,89)           119.438          estimate D2E/DX2                !
 ! A168  A(82,85,89)           121.3957         estimate D2E/DX2                !
 ! A169  A(84,87,90)           120.6292         estimate D2E/DX2                !
 ! A170  A(84,87,91)           119.7779         estimate D2E/DX2                !
 ! A171  A(90,87,91)           119.5911         estimate D2E/DX2                !
 ! A172  A(85,89,90)           120.8245         estimate D2E/DX2                !
 ! A173  A(85,89,92)           118.5785         estimate D2E/DX2                !
 ! A174  A(90,89,92)           120.5967         estimate D2E/DX2                !
 ! A175  A(87,90,89)           119.9122         estimate D2E/DX2                !
 ! A176  A(87,90,93)           119.8027         estimate D2E/DX2                !
 ! A177  A(89,90,93)           120.2837         estimate D2E/DX2                !
 ! A178  A(79,94,95)           122.2259         estimate D2E/DX2                !
 ! A179  A(79,94,96)           119.5702         estimate D2E/DX2                !
 ! A180  A(95,94,96)           117.9535         estimate D2E/DX2                !
 ! A181  A(94,95,97)           120.3947         estimate D2E/DX2                !
 ! A182  A(94,95,104)          123.4965         estimate D2E/DX2                !
 ! A183  A(97,95,104)          116.1083         estimate D2E/DX2                !
 ! A184  A(94,96,98)           121.303          estimate D2E/DX2                !
 ! A185  A(94,96,99)           118.5696         estimate D2E/DX2                !
 ! A186  A(98,96,99)           120.112          estimate D2E/DX2                !
 ! A187  A(95,97,100)          120.7623         estimate D2E/DX2                !
 ! A188  A(95,97,101)          119.1833         estimate D2E/DX2                !
 ! A189  A(100,97,101)         120.0512         estimate D2E/DX2                !
 ! A190  A(96,98,100)          120.453          estimate D2E/DX2                !
 ! A191  A(96,98,102)          119.5917         estimate D2E/DX2                !
 ! A192  A(100,98,102)         119.9321         estimate D2E/DX2                !
 ! A193  A(97,100,98)          119.0536         estimate D2E/DX2                !
 ! A194  A(97,100,103)         120.4305         estimate D2E/DX2                !
 ! A195  A(98,100,103)         120.5111         estimate D2E/DX2                !
 ! A196  A(95,104,105)         114.6174         estimate D2E/DX2                !
 ! A197  A(95,104,106)         126.3152         estimate D2E/DX2                !
 ! A198  A(105,104,106)        119.029          estimate D2E/DX2                !
 ! A199  A(2,107,108)          143.2433         estimate D2E/DX2                !
 ! A200  A(107,108,109)        112.604          estimate D2E/DX2                !
 ! A201  A(107,108,110)        107.027          estimate D2E/DX2                !
 ! A202  A(109,108,110)        129.2802         estimate D2E/DX2                !
 ! A203  A(19,109,108)         114.7443         estimate D2E/DX2                !
 ! D1    D(3,1,2,107)          144.8076         estimate D2E/DX2                !
 ! D2    D(52,1,2,107)         -39.3774         estimate D2E/DX2                !
 ! D3    D(2,1,3,4)            146.3554         estimate D2E/DX2                !
 ! D4    D(2,1,3,5)            -27.3328         estimate D2E/DX2                !
 ! D5    D(52,1,3,4)           -29.7216         estimate D2E/DX2                !
 ! D6    D(52,1,3,5)           156.5902         estimate D2E/DX2                !
 ! D7    D(2,1,52,53)          144.4087         estimate D2E/DX2                !
 ! D8    D(2,1,52,54)          -35.7654         estimate D2E/DX2                !
 ! D9    D(3,1,52,53)          -39.9051         estimate D2E/DX2                !
 ! D10   D(3,1,52,54)          139.9208         estimate D2E/DX2                !
 ! D11   D(1,2,107,108)        -54.989          estimate D2E/DX2                !
 ! D12   D(1,3,4,6)              5.1579         estimate D2E/DX2                !
 ! D13   D(1,3,4,7)           -176.1888         estimate D2E/DX2                !
 ! D14   D(5,3,4,6)            179.7306         estimate D2E/DX2                !
 ! D15   D(5,3,4,7)             -1.6161         estimate D2E/DX2                !
 ! D16   D(1,3,5,8)            176.6144         estimate D2E/DX2                !
 ! D17   D(1,3,5,9)             -6.0278         estimate D2E/DX2                !
 ! D18   D(4,3,5,8)              1.6474         estimate D2E/DX2                !
 ! D19   D(4,3,5,9)            179.0052         estimate D2E/DX2                !
 ! D20   D(3,4,6,10)           -63.7626         estimate D2E/DX2                !
 ! D21   D(3,4,6,11)           113.3203         estimate D2E/DX2                !
 ! D22   D(7,4,6,10)           117.6867         estimate D2E/DX2                !
 ! D23   D(7,4,6,11)           -65.2304         estimate D2E/DX2                !
 ! D24   D(3,4,7,8)              0.894          estimate D2E/DX2                !
 ! D25   D(6,4,7,8)            179.6731         estimate D2E/DX2                !
 ! D26   D(3,5,8,7)             -1.183          estimate D2E/DX2                !
 ! D27   D(3,5,8,12)           173.6626         estimate D2E/DX2                !
 ! D28   D(9,5,8,7)           -178.8325         estimate D2E/DX2                !
 ! D29   D(9,5,8,12)            -3.9869         estimate D2E/DX2                !
 ! D30   D(3,5,9,13)           -33.959          estimate D2E/DX2                !
 ! D31   D(3,5,9,34)          -148.4979         estimate D2E/DX2                !
 ! D32   D(3,5,9,38)            87.8749         estimate D2E/DX2                !
 ! D33   D(8,5,9,13)           143.057          estimate D2E/DX2                !
 ! D34   D(8,5,9,34)            28.5182         estimate D2E/DX2                !
 ! D35   D(8,5,9,38)           -95.109          estimate D2E/DX2                !
 ! D36   D(4,6,10,14)          173.0374         estimate D2E/DX2                !
 ! D37   D(4,6,10,28)           -6.4748         estimate D2E/DX2                !
 ! D38   D(11,6,10,14)          -3.8749         estimate D2E/DX2                !
 ! D39   D(11,6,10,28)         176.6129         estimate D2E/DX2                !
 ! D40   D(4,6,11,15)         -173.9272         estimate D2E/DX2                !
 ! D41   D(4,6,11,24)            4.8819         estimate D2E/DX2                !
 ! D42   D(10,6,11,15)           3.0175         estimate D2E/DX2                !
 ! D43   D(10,6,11,24)        -178.1735         estimate D2E/DX2                !
 ! D44   D(4,7,8,5)              0.1936         estimate D2E/DX2                !
 ! D45   D(4,7,8,12)          -174.3369         estimate D2E/DX2                !
 ! D46   D(5,8,12,16)         -116.9829         estimate D2E/DX2                !
 ! D47   D(5,8,12,17)          125.5504         estimate D2E/DX2                !
 ! D48   D(5,8,12,36)            5.817          estimate D2E/DX2                !
 ! D49   D(7,8,12,16)           57.0001         estimate D2E/DX2                !
 ! D50   D(7,8,12,17)          -60.4666         estimate D2E/DX2                !
 ! D51   D(7,8,12,36)          179.8            estimate D2E/DX2                !
 ! D52   D(5,9,34,35)           65.4778         estimate D2E/DX2                !
 ! D53   D(5,9,34,36)          -58.3471         estimate D2E/DX2                !
 ! D54   D(5,9,34,37)         -176.0749         estimate D2E/DX2                !
 ! D55   D(13,9,34,35)         -46.7158         estimate D2E/DX2                !
 ! D56   D(13,9,34,36)        -170.5407         estimate D2E/DX2                !
 ! D57   D(13,9,34,37)          71.7315         estimate D2E/DX2                !
 ! D58   D(38,9,34,35)        -172.5968         estimate D2E/DX2                !
 ! D59   D(38,9,34,36)          63.5783         estimate D2E/DX2                !
 ! D60   D(38,9,34,37)         -54.1495         estimate D2E/DX2                !
 ! D61   D(5,9,38,39)          -88.257          estimate D2E/DX2                !
 ! D62   D(5,9,38,40)          156.1305         estimate D2E/DX2                !
 ! D63   D(5,9,38,41)           33.2149         estimate D2E/DX2                !
 ! D64   D(13,9,38,39)          29.4557         estimate D2E/DX2                !
 ! D65   D(13,9,38,40)         -86.1568         estimate D2E/DX2                !
 ! D66   D(13,9,38,41)         150.9276         estimate D2E/DX2                !
 ! D67   D(34,9,38,39)         153.4092         estimate D2E/DX2                !
 ! D68   D(34,9,38,40)          37.7967         estimate D2E/DX2                !
 ! D69   D(34,9,38,41)         -85.1189         estimate D2E/DX2                !
 ! D70   D(6,10,14,18)           1.2592         estimate D2E/DX2                !
 ! D71   D(6,10,14,33)        -178.9298         estimate D2E/DX2                !
 ! D72   D(28,10,14,18)       -179.2236         estimate D2E/DX2                !
 ! D73   D(28,10,14,33)          0.5875         estimate D2E/DX2                !
 ! D74   D(6,10,28,29)         -35.759          estimate D2E/DX2                !
 ! D75   D(6,10,28,30)          85.6635         estimate D2E/DX2                !
 ! D76   D(6,10,28,31)        -155.9448         estimate D2E/DX2                !
 ! D77   D(14,10,28,29)        144.7472         estimate D2E/DX2                !
 ! D78   D(14,10,28,30)        -93.8304         estimate D2E/DX2                !
 ! D79   D(14,10,28,31)         24.5613         estimate D2E/DX2                !
 ! D80   D(6,11,15,18)           0.5039         estimate D2E/DX2                !
 ! D81   D(6,11,15,32)         178.8012         estimate D2E/DX2                !
 ! D82   D(24,11,15,18)       -178.3131         estimate D2E/DX2                !
 ! D83   D(24,11,15,32)         -0.0158         estimate D2E/DX2                !
 ! D84   D(6,11,24,25)         -46.0148         estimate D2E/DX2                !
 ! D85   D(6,11,24,26)          73.0537         estimate D2E/DX2                !
 ! D86   D(6,11,24,27)        -166.841          estimate D2E/DX2                !
 ! D87   D(15,11,24,25)        132.7454         estimate D2E/DX2                !
 ! D88   D(15,11,24,26)       -108.1862         estimate D2E/DX2                !
 ! D89   D(15,11,24,27)         11.9192         estimate D2E/DX2                !
 ! D90   D(8,12,36,34)         -37.1848         estimate D2E/DX2                !
 ! D91   D(16,12,36,34)         83.3462         estimate D2E/DX2                !
 ! D92   D(17,12,36,34)       -157.5879         estimate D2E/DX2                !
 ! D93   D(10,14,18,15)          2.0032         estimate D2E/DX2                !
 ! D94   D(10,14,18,20)       -177.2302         estimate D2E/DX2                !
 ! D95   D(33,14,18,15)       -177.8063         estimate D2E/DX2                !
 ! D96   D(33,14,18,20)          2.9603         estimate D2E/DX2                !
 ! D97   D(11,15,18,14)         -2.9246         estimate D2E/DX2                !
 ! D98   D(11,15,18,20)        176.3181         estimate D2E/DX2                !
 ! D99   D(32,15,18,14)        178.7873         estimate D2E/DX2                !
 ! D100  D(32,15,18,20)         -1.9699         estimate D2E/DX2                !
 ! D101  D(14,18,20,21)        108.9689         estimate D2E/DX2                !
 ! D102  D(14,18,20,22)       -132.1316         estimate D2E/DX2                !
 ! D103  D(14,18,20,23)        -10.9554         estimate D2E/DX2                !
 ! D104  D(15,18,20,21)        -70.2525         estimate D2E/DX2                !
 ! D105  D(15,18,20,22)         48.6471         estimate D2E/DX2                !
 ! D106  D(15,18,20,23)        169.8232         estimate D2E/DX2                !
 ! D107  D(109,19,75,76)       123.0236         estimate D2E/DX2                !
 ! D108  D(109,19,75,77)      -117.7917         estimate D2E/DX2                !
 ! D109  D(109,19,75,78)         0.6456         estimate D2E/DX2                !
 ! D110  D(75,19,109,108)      147.4146         estimate D2E/DX2                !
 ! D111  D(9,34,36,12)          67.1005         estimate D2E/DX2                !
 ! D112  D(35,34,36,12)        -55.5515         estimate D2E/DX2                !
 ! D113  D(37,34,36,12)       -173.5933         estimate D2E/DX2                !
 ! D114  D(9,38,41,42)         -89.0407         estimate D2E/DX2                !
 ! D115  D(9,38,41,43)          89.9328         estimate D2E/DX2                !
 ! D116  D(39,38,41,42)         31.7236         estimate D2E/DX2                !
 ! D117  D(39,38,41,43)       -149.303          estimate D2E/DX2                !
 ! D118  D(40,38,41,42)        149.6892         estimate D2E/DX2                !
 ! D119  D(40,38,41,43)        -31.3374         estimate D2E/DX2                !
 ! D120  D(38,41,42,44)        178.2439         estimate D2E/DX2                !
 ! D121  D(38,41,42,45)         -2.7644         estimate D2E/DX2                !
 ! D122  D(43,41,42,44)         -0.7655         estimate D2E/DX2                !
 ! D123  D(43,41,42,45)        178.2262         estimate D2E/DX2                !
 ! D124  D(38,41,43,46)       -178.3107         estimate D2E/DX2                !
 ! D125  D(38,41,43,47)          0.9686         estimate D2E/DX2                !
 ! D126  D(42,41,43,46)          0.6694         estimate D2E/DX2                !
 ! D127  D(42,41,43,47)        179.9487         estimate D2E/DX2                !
 ! D128  D(41,42,44,48)          0.1899         estimate D2E/DX2                !
 ! D129  D(41,42,44,49)        179.2565         estimate D2E/DX2                !
 ! D130  D(45,42,44,48)       -178.7902         estimate D2E/DX2                !
 ! D131  D(45,42,44,49)          0.2764         estimate D2E/DX2                !
 ! D132  D(41,43,46,48)          0.0001         estimate D2E/DX2                !
 ! D133  D(41,43,46,50)       -179.5199         estimate D2E/DX2                !
 ! D134  D(47,43,46,48)       -179.2758         estimate D2E/DX2                !
 ! D135  D(47,43,46,50)          1.2042         estimate D2E/DX2                !
 ! D136  D(42,44,48,46)          0.492          estimate D2E/DX2                !
 ! D137  D(42,44,48,51)        179.6346         estimate D2E/DX2                !
 ! D138  D(49,44,48,46)       -178.5748         estimate D2E/DX2                !
 ! D139  D(49,44,48,51)          0.5678         estimate D2E/DX2                !
 ! D140  D(43,46,48,44)         -0.587          estimate D2E/DX2                !
 ! D141  D(43,46,48,51)       -179.7295         estimate D2E/DX2                !
 ! D142  D(50,46,48,44)        178.9317         estimate D2E/DX2                !
 ! D143  D(50,46,48,51)         -0.2108         estimate D2E/DX2                !
 ! D144  D(1,52,53,55)         177.2086         estimate D2E/DX2                !
 ! D145  D(1,52,53,56)          -2.9902         estimate D2E/DX2                !
 ! D146  D(54,52,53,55)         -2.6192         estimate D2E/DX2                !
 ! D147  D(54,52,53,56)        177.182          estimate D2E/DX2                !
 ! D148  D(1,52,54,57)        -176.8011         estimate D2E/DX2                !
 ! D149  D(1,52,54,58)           1.5246         estimate D2E/DX2                !
 ! D150  D(53,52,54,57)          3.0196         estimate D2E/DX2                !
 ! D151  D(53,52,54,58)       -178.6547         estimate D2E/DX2                !
 ! D152  D(52,53,55,59)       -178.1465         estimate D2E/DX2                !
 ! D153  D(52,53,55,60)         -0.2672         estimate D2E/DX2                !
 ! D154  D(56,53,55,59)          2.0509         estimate D2E/DX2                !
 ! D155  D(56,53,55,60)        179.9302         estimate D2E/DX2                !
 ! D156  D(52,53,56,77)       -100.872          estimate D2E/DX2                !
 ! D157  D(55,53,56,77)         78.9365         estimate D2E/DX2                !
 ! D158  D(52,54,57,60)         -0.626          estimate D2E/DX2                !
 ! D159  D(52,54,57,61)        179.1219         estimate D2E/DX2                !
 ! D160  D(58,54,57,60)       -179.0202         estimate D2E/DX2                !
 ! D161  D(58,54,57,61)          0.7277         estimate D2E/DX2                !
 ! D162  D(52,54,58,62)          1.3043         estimate D2E/DX2                !
 ! D163  D(52,54,58,63)       -178.8555         estimate D2E/DX2                !
 ! D164  D(57,54,58,62)        179.6223         estimate D2E/DX2                !
 ! D165  D(57,54,58,63)         -0.5374         estimate D2E/DX2                !
 ! D166  D(53,55,59,64)        177.1926         estimate D2E/DX2                !
 ! D167  D(53,55,59,65)         -2.0275         estimate D2E/DX2                !
 ! D168  D(60,55,59,64)         -0.6613         estimate D2E/DX2                !
 ! D169  D(60,55,59,65)       -179.8815         estimate D2E/DX2                !
 ! D170  D(53,55,60,57)          2.6292         estimate D2E/DX2                !
 ! D171  D(53,55,60,66)       -177.2463         estimate D2E/DX2                !
 ! D172  D(59,55,60,57)       -179.5055         estimate D2E/DX2                !
 ! D173  D(59,55,60,66)          0.619          estimate D2E/DX2                !
 ! D174  D(53,56,77,75)         69.9509         estimate D2E/DX2                !
 ! D175  D(54,57,60,55)         -2.1484         estimate D2E/DX2                !
 ! D176  D(54,57,60,66)        177.7197         estimate D2E/DX2                !
 ! D177  D(61,57,60,55)        178.1107         estimate D2E/DX2                !
 ! D178  D(61,57,60,66)         -2.0212         estimate D2E/DX2                !
 ! D179  D(54,57,61,67)         -0.3327         estimate D2E/DX2                !
 ! D180  D(54,57,61,68)        179.4474         estimate D2E/DX2                !
 ! D181  D(60,57,61,67)        179.4125         estimate D2E/DX2                !
 ! D182  D(60,57,61,68)         -0.8074         estimate D2E/DX2                !
 ! D183  D(54,58,63,67)         -0.0717         estimate D2E/DX2                !
 ! D184  D(54,58,63,69)        179.9972         estimate D2E/DX2                !
 ! D185  D(62,58,63,67)        179.7697         estimate D2E/DX2                !
 ! D186  D(62,58,63,69)         -0.1614         estimate D2E/DX2                !
 ! D187  D(55,59,64,70)          0.2718         estimate D2E/DX2                !
 ! D188  D(55,59,64,71)       -179.7905         estimate D2E/DX2                !
 ! D189  D(65,59,64,70)        179.4742         estimate D2E/DX2                !
 ! D190  D(65,59,64,71)         -0.5882         estimate D2E/DX2                !
 ! D191  D(55,60,66,70)         -0.2116         estimate D2E/DX2                !
 ! D192  D(55,60,66,72)        179.6752         estimate D2E/DX2                !
 ! D193  D(57,60,66,70)        179.9186         estimate D2E/DX2                !
 ! D194  D(57,60,66,72)         -0.1947         estimate D2E/DX2                !
 ! D195  D(57,61,67,63)         -0.2768         estimate D2E/DX2                !
 ! D196  D(57,61,67,73)        179.8424         estimate D2E/DX2                !
 ! D197  D(68,61,67,63)        179.9405         estimate D2E/DX2                !
 ! D198  D(68,61,67,73)          0.0597         estimate D2E/DX2                !
 ! D199  D(58,63,67,61)          0.4835         estimate D2E/DX2                !
 ! D200  D(58,63,67,73)       -179.636          estimate D2E/DX2                !
 ! D201  D(69,63,67,61)       -179.5856         estimate D2E/DX2                !
 ! D202  D(69,63,67,73)          0.2948         estimate D2E/DX2                !
 ! D203  D(59,64,70,66)          0.1398         estimate D2E/DX2                !
 ! D204  D(59,64,70,74)        179.971          estimate D2E/DX2                !
 ! D205  D(71,64,70,66)       -179.7981         estimate D2E/DX2                !
 ! D206  D(71,64,70,74)          0.0331         estimate D2E/DX2                !
 ! D207  D(60,66,70,64)         -0.1671         estimate D2E/DX2                !
 ! D208  D(60,66,70,74)       -179.9987         estimate D2E/DX2                !
 ! D209  D(72,66,70,64)        179.944          estimate D2E/DX2                !
 ! D210  D(72,66,70,74)          0.1124         estimate D2E/DX2                !
 ! D211  D(19,75,77,56)          3.293          estimate D2E/DX2                !
 ! D212  D(76,75,77,56)        127.1504         estimate D2E/DX2                !
 ! D213  D(78,75,77,56)       -116.8792         estimate D2E/DX2                !
 ! D214  D(19,75,78,79)         83.1431         estimate D2E/DX2                !
 ! D215  D(19,75,78,80)        -84.9929         estimate D2E/DX2                !
 ! D216  D(76,75,78,79)        -41.4668         estimate D2E/DX2                !
 ! D217  D(76,75,78,80)        150.3972         estimate D2E/DX2                !
 ! D218  D(77,75,78,79)       -154.3778         estimate D2E/DX2                !
 ! D219  D(77,75,78,80)         37.4862         estimate D2E/DX2                !
 ! D220  D(75,78,79,81)       -170.9422         estimate D2E/DX2                !
 ! D221  D(75,78,79,94)          9.4478         estimate D2E/DX2                !
 ! D222  D(80,78,79,81)         -2.9667         estimate D2E/DX2                !
 ! D223  D(80,78,79,94)        177.4233         estimate D2E/DX2                !
 ! D224  D(75,78,80,82)        170.1222         estimate D2E/DX2                !
 ! D225  D(75,78,80,83)         -9.3973         estimate D2E/DX2                !
 ! D226  D(79,78,80,82)          1.6738         estimate D2E/DX2                !
 ! D227  D(79,78,80,83)       -177.8456         estimate D2E/DX2                !
 ! D228  D(78,79,81,84)       -177.4985         estimate D2E/DX2                !
 ! D229  D(78,79,81,85)          2.4266         estimate D2E/DX2                !
 ! D230  D(94,79,81,84)          2.1233         estimate D2E/DX2                !
 ! D231  D(94,79,81,85)       -177.9516         estimate D2E/DX2                !
 ! D232  D(78,79,94,95)       -106.6911         estimate D2E/DX2                !
 ! D233  D(78,79,94,96)         79.178          estimate D2E/DX2                !
 ! D234  D(81,79,94,95)         73.6891         estimate D2E/DX2                !
 ! D235  D(81,79,94,96)       -100.4419         estimate D2E/DX2                !
 ! D236  D(78,80,82,85)          0.1867         estimate D2E/DX2                !
 ! D237  D(78,80,82,86)        179.8803         estimate D2E/DX2                !
 ! D238  D(83,80,82,85)        179.6977         estimate D2E/DX2                !
 ! D239  D(83,80,82,86)         -0.6087         estimate D2E/DX2                !
 ! D240  D(79,81,84,87)       -179.5167         estimate D2E/DX2                !
 ! D241  D(79,81,84,88)          1.4772         estimate D2E/DX2                !
 ! D242  D(85,81,84,87)          0.5578         estimate D2E/DX2                !
 ! D243  D(85,81,84,88)       -178.4483         estimate D2E/DX2                !
 ! D244  D(79,81,85,82)         -0.5533         estimate D2E/DX2                !
 ! D245  D(79,81,85,89)        179.4531         estimate D2E/DX2                !
 ! D246  D(84,81,85,82)        179.3751         estimate D2E/DX2                !
 ! D247  D(84,81,85,89)         -0.6186         estimate D2E/DX2                !
 ! D248  D(80,82,85,81)         -0.7209         estimate D2E/DX2                !
 ! D249  D(80,82,85,89)        179.2726         estimate D2E/DX2                !
 ! D250  D(86,82,85,81)        179.58           estimate D2E/DX2                !
 ! D251  D(86,82,85,89)         -0.4265         estimate D2E/DX2                !
 ! D252  D(81,84,87,90)         -0.0646         estimate D2E/DX2                !
 ! D253  D(81,84,87,91)       -179.5847         estimate D2E/DX2                !
 ! D254  D(88,84,87,90)        178.9417         estimate D2E/DX2                !
 ! D255  D(88,84,87,91)         -0.5783         estimate D2E/DX2                !
 ! D256  D(81,85,89,90)          0.1947         estimate D2E/DX2                !
 ! D257  D(81,85,89,92)        179.9957         estimate D2E/DX2                !
 ! D258  D(82,85,89,90)       -179.7988         estimate D2E/DX2                !
 ! D259  D(82,85,89,92)          0.0022         estimate D2E/DX2                !
 ! D260  D(84,87,90,89)         -0.3774         estimate D2E/DX2                !
 ! D261  D(84,87,90,93)       -179.9461         estimate D2E/DX2                !
 ! D262  D(91,87,90,89)        179.1436         estimate D2E/DX2                !
 ! D263  D(91,87,90,93)         -0.4252         estimate D2E/DX2                !
 ! D264  D(85,89,90,87)          0.3075         estimate D2E/DX2                !
 ! D265  D(85,89,90,93)        179.8741         estimate D2E/DX2                !
 ! D266  D(92,89,90,87)       -179.4895         estimate D2E/DX2                !
 ! D267  D(92,89,90,93)          0.0771         estimate D2E/DX2                !
 ! D268  D(79,94,95,97)       -171.656          estimate D2E/DX2                !
 ! D269  D(79,94,95,104)         8.0819         estimate D2E/DX2                !
 ! D270  D(96,94,95,97)          2.5654         estimate D2E/DX2                !
 ! D271  D(96,94,95,104)      -177.6967         estimate D2E/DX2                !
 ! D272  D(79,94,96,98)        174.1963         estimate D2E/DX2                !
 ! D273  D(79,94,96,99)         -4.3792         estimate D2E/DX2                !
 ! D274  D(95,94,96,98)         -0.1838         estimate D2E/DX2                !
 ! D275  D(95,94,96,99)       -178.7593         estimate D2E/DX2                !
 ! D276  D(94,95,97,100)        -3.218          estimate D2E/DX2                !
 ! D277  D(94,95,97,101)       177.4264         estimate D2E/DX2                !
 ! D278  D(104,95,97,100)      177.0253         estimate D2E/DX2                !
 ! D279  D(104,95,97,101)       -2.3302         estimate D2E/DX2                !
 ! D280  D(94,95,104,105)     -160.081          estimate D2E/DX2                !
 ! D281  D(94,95,104,106)       22.2119         estimate D2E/DX2                !
 ! D282  D(97,95,104,105)       19.6672         estimate D2E/DX2                !
 ! D283  D(97,95,104,106)     -158.0399         estimate D2E/DX2                !
 ! D284  D(94,96,98,100)        -1.613          estimate D2E/DX2                !
 ! D285  D(94,96,98,102)      -179.8589         estimate D2E/DX2                !
 ! D286  D(99,96,98,100)       176.9409         estimate D2E/DX2                !
 ! D287  D(99,96,98,102)        -1.3051         estimate D2E/DX2                !
 ! D288  D(95,97,100,98)         1.3941         estimate D2E/DX2                !
 ! D289  D(95,97,100,103)     -179.393          estimate D2E/DX2                !
 ! D290  D(101,97,100,98)     -179.256          estimate D2E/DX2                !
 ! D291  D(101,97,100,103)      -0.043          estimate D2E/DX2                !
 ! D292  D(96,98,100,97)         1.0024         estimate D2E/DX2                !
 ! D293  D(96,98,100,103)     -178.2099         estimate D2E/DX2                !
 ! D294  D(102,98,100,97)      179.2423         estimate D2E/DX2                !
 ! D295  D(102,98,100,103)       0.0301         estimate D2E/DX2                !
 ! D296  D(2,107,108,109)      -15.1345         estimate D2E/DX2                !
 ! D297  D(2,107,108,110)     -162.7782         estimate D2E/DX2                !
 ! D298  D(107,108,109,19)      34.2664         estimate D2E/DX2                !
 ! D299  D(110,108,109,19)     172.8831         estimate D2E/DX2                !
 --------------------------------------------------------------------------------
 Trust Radius=1.00D-01 FncErr=1.00D-07 GrdErr=1.00D-06 EigMax=2.50D+02 EigMin=1.00D-04
 Number of optimizations in scan=  11
 Number of steps in this run=    633 maximum allowed number of steps=    660.
 GradGradGradGradGradGradGradGradGradGradGradGradGradGradGradGradGradGrad

 Stoichiometry    C54H47LiN3O5(1+)
 Framework group  C1[X(C54H47LiN3O5)]
 Deg. of freedom   324
 Full point group                 C1      NOp   1
 Largest Abelian subgroup         C1      NOp   1
 Largest concise Abelian subgroup C1      NOp   1
                         Standard orientation:
 ---------------------------------------------------------------------
 Center     Atomic      Atomic             Coordinates (Angstroms)
 Number     Number       Type             X           Y           Z
 ---------------------------------------------------------------------
      1          6           0        1.182093    0.395605    1.055641
      2          8           0        0.791619    0.875876    2.101151
      3          6           0        1.104284    1.302837   -0.155630
      4          7           0        1.912219    1.383818   -1.219599
      5          7           0        0.218427    2.301193   -0.292680
      6          6           0        3.038022    0.547942   -1.554077
      7          7           0        1.542499    2.382745   -2.044561
      8          6           0        0.509129    2.928488   -1.466518
      9          6           0       -0.922304    2.705951    0.549111
     10          6           0        4.147918    0.539445   -0.705628
     11          6           0        2.932283   -0.266250   -2.691007
     12          6           0       -0.365894    4.017017   -2.023982
     13          1           0       -1.324235    1.771774    0.960515
     14          6           0        5.153404   -0.391119   -0.980701
     15          6           0        3.972694   -1.161581   -2.927285
     16          1           0       -0.767533    3.659575   -2.990049
     17          1           0        0.243812    4.911730   -2.211314
     18          6           0        5.074620   -1.261211   -2.069827
     19          8           0       -1.124834   -0.191621    0.019903
     20          6           0        6.133855   -2.299273   -2.319128
     21          1           0        5.733355   -3.302644   -2.107125
     22          1           0        6.459476   -2.287850   -3.368404
     23          1           0        7.011610   -2.140363   -1.680745
     24          6           0        1.738693   -0.200986   -3.604504
     25          1           0        0.791191   -0.196155   -3.041983
     26          1           0        1.757436    0.719905   -4.204734
     27          1           0        1.731230   -1.059361   -4.287496
     28          6           0        4.262474    1.479142    0.464121
     29          1           0        3.825860    2.460893    0.234325
     30          1           0        3.762730    1.077423    1.361217
     31          1           0        5.317200    1.624458    0.728990
     32          1           0        3.909062   -1.823216   -3.794598
     33          1           0        6.024089   -0.431094   -0.322418
     34          6           0       -1.942238    3.287723   -0.425408
     35          1           0       -2.308028    2.490767   -1.102655
     36          8           0       -1.391686    4.367325   -1.141198
     37          1           0       -2.800445    3.679808    0.133176
     38          6           0       -0.480817    3.691102    1.656884
     39          1           0       -0.169243    3.096391    2.523409
     40          1           0       -1.369100    4.269738    1.949425
     41          6           0        0.645991    4.622507    1.272872
     42          6           0        1.970616    4.218601    1.483234
     43          6           0        0.411261    5.873563    0.691586
     44          6           0        3.036706    5.036096    1.107941
     45          1           0        2.160739    3.254099    1.964184
     46          6           0        1.475220    6.693747    0.317185
     47          1           0       -0.615206    6.201620    0.520689
     48          6           0        2.790522    6.275372    0.518366
     49          1           0        4.063173    4.712458    1.289615
     50          1           0        1.275360    7.669755   -0.127645
     51          1           0        3.621527    6.919803    0.229072
     52          6           0        1.792666   -0.943988    0.913096
     53          6           0        1.518986   -1.645770   -0.222921
     54          6           0        2.659059   -1.502569    1.939191
     55          6           0        2.101797   -2.920402   -0.487318
     56          1           0        0.830123   -1.225629   -0.956129
     57          6           0        3.263769   -2.768698    1.697322
     58          6           0        2.952032   -0.825778    3.149112
     59          6           0        1.815178   -3.590255   -1.700033
     60          6           0        3.000507   -3.482951    0.452121
     61          6           0        4.121278   -3.306230    2.683947
     62          1           0        2.503485    0.145917    3.347881
     63          6           0        3.798074   -1.378141    4.089740
     64          6           0        2.416112   -4.794373   -1.993021
     65          1           0        1.118166   -3.125562   -2.402589
     66          6           0        3.601866   -4.720320    0.124467
     67          6           0        4.384972   -2.632512    3.858336
     68          1           0        4.587525   -4.276797    2.524613
     69          1           0        4.008048   -0.837490    5.013413
     70          6           0        3.317843   -5.357904   -1.068045
     71          1           0        2.198946   -5.310359   -2.928760
     72          1           0        4.303546   -5.191140    0.810638
     73          1           0        5.048924   -3.073801    4.602209
     74          1           0        3.797025   -6.311641   -1.293539
     75          6           0       -1.676725   -0.560117   -1.182746
     76          1           0       -2.091009    0.299350   -1.757606
     77          1           0       -0.939844   -1.041311   -1.873882
     78          6           0       -2.775248   -1.585689   -0.942902
     79          6           0       -4.059975   -1.210075   -0.594472
     80          6           0       -2.396034   -2.953552   -0.832453
     81          6           0       -5.025389   -2.191299   -0.186218
     82          6           0       -3.287315   -3.910156   -0.420558
     83          1           0       -1.366737   -3.229717   -1.077353
     84          6           0       -6.373227   -1.858686    0.131425
     85          6           0       -4.625305   -3.556755   -0.094473
     86          1           0       -2.984723   -4.956222   -0.341802
     87          6           0       -7.263598   -2.828011    0.527908
     88          1           0       -6.707810   -0.824034    0.043564
     89          6           0       -5.569314   -4.534812    0.319835
     90          6           0       -6.859498   -4.181081    0.627977
     91          1           0       -8.293745   -2.554888    0.760516
     92          1           0       -5.247940   -5.576137    0.385120
     93          1           0       -7.577286   -4.939242    0.943040
     94          6           0       -4.487122    0.221743   -0.639242
     95          6           0       -4.681944    0.986871    0.532481
     96          6           0       -4.823936    0.802855   -1.864519
     97          6           0       -5.248213    2.267656    0.457575
     98          6           0       -5.341312    2.098149   -1.935477
     99          1           0       -4.696823    0.213338   -2.774339
    100          6           0       -5.566219    2.834149   -0.772430
    101          1           0       -5.429121    2.825334    1.380343
    102          1           0       -5.597022    2.523744   -2.907097
    103          1           0       -5.997169    3.834270   -0.824907
    104          6           0       -4.322315    0.512912    1.885219
    105          1           0       -4.834841    1.048272    2.715522
    106          8           0       -3.515101   -0.351337    2.152171
    107          1           0       -0.037683   -0.704846    2.986604
    108          8           0       -0.697069   -1.405767    2.866293
    109          3           0       -1.877369   -1.056908    1.420945
    110          1           0       -0.891327   -1.763862    3.740539
 ---------------------------------------------------------------------
 Rotational constants (GHZ):           0.0529044           0.0403108           0.0289991
 Standard basis: def2SVP (5D, 7F)
 There are  1174 symmetry adapted cartesian basis functions of A   symmetry.
 There are  1112 symmetry adapted basis functions of A   symmetry.
  1112 basis functions,  1895 primitive gaussians,  1174 cartesian basis functions
   217 alpha electrons      217 beta electrons
       nuclear repulsion energy      9705.5176571760 Hartrees.
 NAtoms=  110 NActive=  110 NUniq=  110 SFac= 1.00D+00 NAtFMM=   60 NAOKFM=T Big=T
 Integral buffers will be    131072 words long.
 Raffenetti 2 integral format.
 Two-electron integral symmetry is turned on.
 One-electron integrals computed using PRISM.
   1 Symmetry operations used in ECPInt.
 ECPInt:  NShTT=  134421 NPrTT=  490513 LenC2=  103295 LenP2D=  231807.
 LDataN:  DoStor=T MaxTD1= 4 Len=   56
 Number of processors reduced to  57 by ecpmxn.
 NBasis=  1112 RedAO= T EigKep=  1.70D-04  NBF=  1112
 NBsUse=  1112 1.00D-06 EigRej= -1.00D+00 NBFU=  1112
 ExpMin= 2.10D-02 ExpMax= 2.27D+03 ExpMxC= 3.41D+02 IAcc=3 IRadAn=         5 AccDes= 0.00D+00
 Harris functional with IExCor= 1009 and IRadAn=       5 diagonalized for initial guess.
 HarFok:  IExCor= 1009 AccDes= 0.00D+00 IRadAn=         5 IDoV= 1 UseB2=F ITyADJ=14
 ICtDFT=  3500011 ScaDFX=  1.000000  1.000000  1.000000  1.000000
 FoFCou: FMM=F IPFlag=           0 FMFlag=      100000 FMFlg1=        2001
         NFxFlg=           0 DoJE=T BraDBF=F KetDBF=T FulRan=T
         wScrn=  0.000000 ICntrl=       500 IOpCl=  0 I1Cent=   200000004 NGrid=           0
         NMat0=    1 NMatS0=      1 NMatT0=    0 NMatD0=    1 NMtDS0=    0 NMtDT0=    0
 Petite list used in FoFCou.
 Gradient too large for Newton-Raphson -- use scaled steepest descent instead.
     Minimum is close to point  3 DX=  5.78D-03 DF= -1.52D-04 DXR=  1.14D-02 DFR=  1.32D-04 which will be used.
 Gradient too large for Newton-Raphson -- use scaled steepest descent instead.
 Gradient too large for Newton-Raphson -- use scaled steepest descent instead.
     Minimum is close to point  2 DX=  1.82D-02 DF= -1.67D-05 DXR=  3.51D-02 DFR=  1.23D-03 which will be used.
 Gradient too large for Newton-Raphson -- use scaled steepest descent instead.
 Gradient too large for Newton-Raphson -- use scaled steepest descent instead.
     Accept linear search using points  1 and  2.
 Gradient too large for Newton-Raphson -- use scaled steepest descent instead.
     Minimum is close to point  3 DX=  7.79D-02 DF= -1.85D-06 DXR=  7.23D-02 DFR=  5.25D-03 which will be used.
 LinEq1:  Iter=  0 NonCon=     1 RMS=2.25D-05 Max=2.35D-03 NDo=     1
 AX will form     1 AO Fock derivatives at one time.
 LinEq1:  Iter=  1 NonCon=     1 RMS=2.31D-05 Max=3.55D-03 NDo=     1
 LinEq1:  Iter=  2 NonCon=     1 RMS=3.79D-06 Max=2.79D-04 NDo=     1
 LinEq1:  Iter=  3 NonCon=     1 RMS=3.40D-06 Max=2.29D-04 NDo=     1
 LinEq1:  Iter=  4 NonCon=     1 RMS=1.06D-06 Max=6.18D-05 NDo=     1
 LinEq1:  Iter=  5 NonCon=     1 RMS=7.00D-07 Max=5.16D-05 NDo=     1
 LinEq1:  Iter=  6 NonCon=     1 RMS=4.12D-07 Max=3.63D-05 NDo=     1
 LinEq1:  Iter=  7 NonCon=     1 RMS=2.64D-07 Max=2.49D-05 NDo=     1
 LinEq1:  Iter=  8 NonCon=     1 RMS=1.33D-07 Max=1.20D-05 NDo=     1
 LinEq1:  Iter=  9 NonCon=     1 RMS=8.58D-08 Max=8.30D-06 NDo=     1
 LinEq1:  Iter= 10 NonCon=     1 RMS=3.87D-08 Max=3.05D-06 NDo=     1
 LinEq1:  Iter= 11 NonCon=     1 RMS=2.39D-08 Max=1.92D-06 NDo=     1
 LinEq1:  Iter= 12 NonCon=     1 RMS=1.36D-08 Max=1.02D-06 NDo=     1
 LinEq1:  Iter= 13 NonCon=     1 RMS=7.81D-09 Max=6.25D-07 NDo=     1
 LinEq1:  Iter= 14 NonCon=     0 RMS=4.42D-09 Max=3.70D-07 NDo=     1
 Linear equations converged to 6.232D-08 6.232D-07 after    14 iterations.
     Accept linear search using points  1 and  2.
     Minimum is close to point  2 DX= -7.37D-04 DF= -3.37D-11 DXR=  7.38D-04 DFR=  5.46D-07 which will be used.
 LinEq1:  Iter=  0 NonCon=     1 RMS=9.88D-08 Max=1.44D-05 NDo=     1
 LinEq1:  Iter=  1 NonCon=     1 RMS=5.71D-08 Max=6.28D-06 NDo=     1
 LinEq1:  Iter=  2 NonCon=     1 RMS=2.60D-08 Max=2.27D-06 NDo=     1
 LinEq1:  Iter=  3 NonCon=     1 RMS=1.29D-08 Max=1.33D-06 NDo=     1
 LinEq1:  Iter=  4 NonCon=     1 RMS=9.03D-09 Max=8.97D-07 NDo=     1
 LinEq1:  Iter=  5 NonCon=     1 RMS=4.12D-09 Max=4.32D-07 NDo=     1
 LinEq1:  Iter=  6 NonCon=     1 RMS=2.23D-09 Max=1.73D-07 NDo=     1
 LinEq1:  Iter=  7 NonCon=     1 RMS=1.25D-09 Max=1.03D-07 NDo=     1
 LinEq1:  Iter=  8 NonCon=     1 RMS=8.16D-10 Max=8.21D-08 NDo=     1
 LinEq1:  Iter=  9 NonCon=     1 RMS=5.11D-10 Max=7.31D-08 NDo=     1
 LinEq1:  Iter= 10 NonCon=     1 RMS=3.17D-10 Max=3.80D-08 NDo=     1
 LinEq1:  Iter= 11 NonCon=     1 RMS=1.88D-10 Max=1.95D-08 NDo=     1
 LinEq1:  Iter= 12 NonCon=     1 RMS=1.15D-10 Max=8.12D-09 NDo=     1
 LinEq1:  Iter= 13 NonCon=     1 RMS=7.13D-11 Max=4.34D-09 NDo=     1
 LinEq1:  Iter= 14 NonCon=     0 RMS=4.11D-11 Max=3.44D-09 NDo=     1
 Linear equations converged to 3.971D-10 3.971D-09 after    14 iterations.
 SCF Done:  E(RM062X) =  -2630.89252587     a.u. after    9 cycles
            Convg  =    0.1232D-08                    47 Fock formations.
              S**2 =  0.0000                  -V/T =  2.0105
 Hyperfine terms turned off by default for NAtoms > 100.

 **********************************************************************

            Population analysis using the SCF Density.

 **********************************************************************

 Orbital symmetries:
       Occupied  (A) (A) (A) (A) (A) (A) (A) (A) (A) (A) (A) (A)
                 (A) (A) (A) (A) (A) (A) (A) (A) (A) (A) (A) (A)
                 (A) (A) (A) (A) (A) (A) (A) (A) (A) (A) (A) (A)
                 (A) (A) (A) (A) (A) (A) (A) (A) (A) (A) (A) (A)
                 (A) (A) (A) (A) (A) (A) (A) (A) (A) (A) (A) (A)
                 (A) (A) (A) (A) (A) (A) (A) (A) (A) (A) (A) (A)
                 (A) (A) (A) (A) (A) (A) (A) (A) (A) (A) (A) (A)
                 (A) (A) (A) (A) (A) (A) (A) (A) (A) (A) (A) (A)
                 (A) (A) (A) (A) (A) (A) (A) (A) (A) (A) (A) (A)
                 (A) (A) (A) (A) (A) (A) (A) (A) (A) (A) (A) (A)
                 (A) (A) (A) (A) (A) (A) (A) (A) (A) (A) (A) (A)
                 (A) (A) (A) (A) (A) (A) (A) (A) (A) (A) (A) (A)
                 (A) (A) (A) (A) (A) (A) (A) (A) (A) (A) (A) (A)
                 (A) (A) (A) (A) (A) (A) (A) (A) (A) (A) (A) (A)
                 (A) (A) (A) (A) (A) (A) (A) (A) (A) (A) (A) (A)
                 (A) (A) (A) (A) (A) (A) (A) (A) (A) (A) (A) (A)
                 (A) (A) (A) (A) (A) (A) (A) (A) (A) (A) (A) (A)
                 (A) (A) (A) (A) (A) (A) (A) (A) (A) (A) (A) (A)
                 (A)
       Virtual   (A) (A) (A) (A) (A) (A) (A) (A) (A) (A) (A) (A)
                 (A) (A) (A) (A) (A) (A) (A) (A) (A) (A) (A) (A)
                 (A) (A) (A) (A) (A) (A) (A) (A) (A) (A) (A) (A)
                 (A) (A) (A) (A) (A) (A) (A) (A) (A) (A) (A) (A)
                 (A) (A) (A) (A) (A) (A) (A) (A) (A) (A) (A) (A)
                 (A) (A) (A) (A) (A) (A) (A) (A) (A) (A) (A) (A)
                 (A) (A) (A) (A) (A) (A) (A) (A) (A) (A) (A) (A)
                 (A) (A) (A) (A) (A) (A) (A) (A) (A) (A) (A) (A)
                 (A) (A) (A) (A) (A) (A) (A) (A) (A) (A) (A) (A)
                 (A) (A) (A) (A) (A) (A) (A) (A) (A) (A) (A) (A)
                 (A) (A) (A) (A) (A) (A) (A) (A) (A) (A) (A) (A)
                 (A) (A) (A) (A) (A) (A) (A) (A) (A) (A) (A) (A)
                 (A) (A) (A) (A) (A) (A) (A) (A) (A) (A) (A) (A)
                 (A) (A) (A) (A) (A) (A) (A) (A) (A) (A) (A) (A)
                 (A) (A) (A) (A) (A) (A) (A) (A) (A) (A) (A) (A)
                 (A) (A) (A) (A) (A) (A) (A) (A) (A) (A) (A) (A)
                 (A) (A) (A) (A) (A) (A) (A) (A) (A) (A) (A) (A)
                 (A) (A) (A) (A) (A) (A) (A) (A) (A) (A) (A) (A)
                 (A) (A) (A) (A) (A) (A) (A) (A) (A) (A) (A) (A)
                 (A) (A) (A) (A) (A) (A) (A) (A) (A) (A) (A) (A)
                 (A) (A) (A) (A) (A) (A) (A) (A) (A) (A) (A) (A)
                 (A) (A) (A) (A) (A) (A) (A) (A) (A) (A) (A) (A)
                 (A) (A) (A) (A) (A) (A) (A) (A) (A) (A) (A) (A)
                 (A) (A) (A) (A) (A) (A) (A) (A) (A) (A) (A) (A)
                 (A) (A) (A) (A) (A) (A) (A) (A) (A) (A) (A) (A)
                 (A) (A) (A) (A) (A) (A) (A) (A) (A) (A) (A) (A)
                 (A) (A) (A) (A) (A) (A) (A) (A) (A) (A) (A) (A)
                 (A) (A) (A) (A) (A) (A) (A) (A) (A) (A) (A) (A)
                 (A) (A) (A) (A) (A) (A) (A) (A) (A) (A) (A) (A)
                 (A) (A) (A) (A) (A) (A) (A) (A) (A) (A) (A) (A)
                 (A) (A) (A) (A) (A) (A) (A) (A) (A) (A) (A) (A)
                 (A) (A) (A) (A) (A) (A) (A) (A) (A) (A) (A) (A)
                 (A) (A) (A) (A) (A) (A) (A) (A) (A) (A) (A) (A)
                 (A) (A) (A) (A) (A) (A) (A) (A) (A) (A) (A) (A)
[...]
 X = 0.000D+00 1.000D+00 2.000D+00 4.000D+00 8.000D+00 1.600D+01 3.200D+01 6.400D+01
 DE= 0.000D+00 3.802D-10 1.048D-09 2.728D-09 1.128D-08 4.983D-08 2.074D-07 8.492D-07
 Restarting incremental Fock formation.
 Search did not lower the energy significantly.
 Scaled steepest descent with Shift=0.025 failed.
 QCLLim is confused:  Bigger=T Turned=T
 NLin=  3 IMin12=  1  2 I12=  0  2 IX=  1 XLMin= 0.000D+00 XLMax= 0.000D+00
 X = 0.000D+00 1.000D+00 2.000D+00
 DE= 0.000D+00 2.638D-10 8.113D-10
 QCLLim is confused:  Bigger=T Turned=T
 NLin=  4 IMin12=  1  2 I12=  0  2 IX=  1 XLMin= 0.000D+00 XLMax= 0.000D+00
 X = 0.000D+00 1.000D+00 2.000D+00 4.000D+00
 DE= 0.000D+00 2.638D-10 8.113D-10 2.427D-09
 QCLLim is confused:  Bigger=T Turned=T
 NLin=  5 IMin12=  1  2 I12=  0  2 IX=  1 XLMin= 0.000D+00 XLMax= 0.000D+00
 X = 0.000D+00 1.000D+00 2.000D+00 4.000D+00 8.000D+00
 DE= 0.000D+00 2.638D-10 8.113D-10 2.427D-09 1.118D-08
 QCLLim is confused:  Bigger=T Turned=T
 NLin=  6 IMin12=  1  2 I12=  0  2 IX=  1 XLMin= 0.000D+00 XLMax= 0.000D+00
 X = 0.000D+00 1.000D+00 2.000D+00 4.000D+00 8.000D+00 1.600D+01
 DE= 0.000D+00 2.638D-10 8.113D-10 2.427D-09 1.118D-08 4.637D-08
 QCLLim is confused:  Bigger=T Turned=T
 NLin=  7 IMin12=  1  2 I12=  0  2 IX=  1 XLMin= 0.000D+00 XLMax= 0.000D+00
 X = 0.000D+00 1.000D+00 2.000D+00 4.000D+00 8.000D+00 1.600D+01 3.200D+01
 DE= 0.000D+00 2.638D-10 8.113D-10 2.427D-09 1.118D-08 4.637D-08 1.955D-07
 QCLLim is confused:  Bigger=T Turned=T
 NLin=  8 IMin12=  1  2 I12=  0  2 IX=  1 XLMin= 0.000D+00 XLMax= 0.000D+00
 X = 0.000D+00 1.000D+00 2.000D+00 4.000D+00 8.000D+00 1.600D+01 3.200D+01 6.400D+01
 DE= 0.000D+00 2.638D-10 8.113D-10 2.427D-09 1.118D-08 4.637D-08 1.955D-07 8.009D-07
 Search did not lower the energy significantly.
 Scaled steepest descent with Shift=0.050 failed.
 Restarting incremental Fock formation.
 QCLLim is confused:  Bigger=T Turned=T
 NLin=  3 IMin12=  1  2 I12=  0  2 IX=  1 XLMin= 0.000D+00 XLMax= 0.000D+00
 X = 0.000D+00 1.000D+00 2.000D+00
 DE= 0.000D+00 1.473D-10 1.393D-09
 LinEq1:  Iter=  0 NonCon=     1 RMS=1.44D-08 Max=2.27D-06 NDo=     1
 LinEq1:  Iter=  1 NonCon=     1 RMS=6.00D-09 Max=8.56D-07 NDo=     1
 LinEq1:  Iter=  2 NonCon=     1 RMS=2.89D-09 Max=4.09D-07 NDo=     1
 LinEq1:  Iter=  3 NonCon=     1 RMS=1.96D-09 Max=2.24D-07 NDo=     1
 LinEq1:  Iter=  4 NonCon=     1 RMS=9.91D-10 Max=8.66D-08 NDo=     1
 LinEq1:  Iter=  5 NonCon=     1 RMS=5.59D-10 Max=5.35D-08 NDo=     1
 LinEq1:  Iter=  6 NonCon=     1 RMS=3.19D-10 Max=4.62D-08 NDo=     1
 LinEq1:  Iter=  7 NonCon=     1 RMS=1.61D-10 Max=1.39D-08 NDo=     1
 LinEq1:  Iter=  8 NonCon=     1 RMS=7.03D-11 Max=7.59D-09 NDo=     1
 LinEq1:  Iter=  9 NonCon=     1 RMS=4.70D-11 Max=4.88D-09 NDo=     1
 LinEq1:  Iter= 10 NonCon=     1 RMS=2.40D-11 Max=3.02D-09 NDo=     1
 LinEq1:  Iter= 11 NonCon=     1 RMS=1.54D-11 Max=1.89D-09 NDo=     1
 LinEq1:  Iter= 12 NonCon=     0 RMS=8.10D-12 Max=7.06D-10 NDo=     1
 Linear equations converged to 8.112D-11 8.112D-10 after    12 iterations.
 LinEq1:  Iter=  0 NonCon=     1 RMS=2.34D-08 Max=3.70D-06 NDo=     1
 LinEq1:  Iter=  1 NonCon=     1 RMS=9.78D-09 Max=1.39D-06 NDo=     1
 LinEq1:  Iter=  2 NonCon=     1 RMS=4.70D-09 Max=6.66D-07 NDo=     1
 LinEq1:  Iter=  3 NonCon=     1 RMS=3.19D-09 Max=3.64D-07 NDo=     1
 LinEq1:  Iter=  4 NonCon=     1 RMS=1.61D-09 Max=1.41D-07 NDo=     1
 LinEq1:  Iter=  5 NonCon=     1 RMS=9.11D-10 Max=8.71D-08 NDo=     1
 LinEq1:  Iter=  6 NonCon=     1 RMS=5.20D-10 Max=7.53D-08 NDo=     1
 LinEq1:  Iter=  7 NonCon=     1 RMS=2.61D-10 Max=2.27D-08 NDo=     1
 LinEq1:  Iter=  8 NonCon=     1 RMS=1.14D-10 Max=1.24D-08 NDo=     1
 LinEq1:  Iter=  9 NonCon=     1 RMS=7.63D-11 Max=7.96D-09 NDo=     1
 LinEq1:  Iter= 10 NonCon=     1 RMS=3.90D-11 Max=4.91D-09 NDo=     1
 LinEq1:  Iter= 11 NonCon=     1 RMS=2.51D-11 Max=3.07D-09 NDo=     1
 LinEq1:  Iter= 12 NonCon=     0 RMS=1.31D-11 Max=1.18D-09 NDo=     1
 Linear equations converged to 1.322D-10 1.322D-09 after    12 iterations.
 QCLLim is confused:  Bigger=T Turned=T
 NLin=  4 IMin12=  1  2 I12=  0  2 IX=  1 XLMin= 0.000D+00 XLMax= 0.000D+00
 X = 0.000D+00 1.000D+00 2.000D+00 4.000D+00
 DE= 0.000D+00 1.002D-09 1.088D-09 2.190D-09
 QCLLim is confused:  Bigger=T Turned=T
 NLin=  5 IMin12=  1  2 I12=  0  2 IX=  1 XLMin= 0.000D+00 XLMax= 0.000D+00
 X = 0.000D+00 1.000D+00 2.000D+00 4.000D+00 8.000D+00
 DE= 0.000D+00 1.002D-09 1.088D-09 2.190D-09 9.224D-09
 QCLLim is confused:  Bigger=T Turned=T
 NLin=  6 IMin12=  1  2 I12=  0  2 IX=  1 XLMin= 0.000D+00 XLMax= 0.000D+00
 X = 0.000D+00 1.000D+00 2.000D+00 4.000D+00 8.000D+00 1.600D+01
 DE= 0.000D+00 1.002D-09 1.088D-09 2.190D-09 9.224D-09 4.041D-08
 Restarting incremental Fock formation.
 Search did not lower the energy significantly.
 No lower point found -- try reversing direction.
 QCLLim is confused:  Bigger=T Turned=T
 NLin=  6 IMin12=  1  2 I12=  0  2 IX=  1 XLMin= 0.000D+00 XLMax= 0.000D+00
 X = 0.000D+00 1.000D+00 2.000D+00 4.000D+00 8.000D+00 1.600D+01
 DE= 0.000D+00 1.406D-09 1.804D-09 4.771D-09 1.506D-08 5.236D-08
 QCLLim is confused:  Bigger=T Turned=T
 NLin=  7 IMin12=  1  2 I12=  0  2 IX=  1 XLMin= 0.000D+00 XLMax= 0.000D+00
 X = 0.000D+00 1.000D+00 2.000D+00 4.000D+00 8.000D+00 1.600D+01 3.200D+01
 DE= 0.000D+00 1.406D-09 1.804D-09 4.771D-09 1.506D-08 5.236D-08 1.930D-07
 QCLLim is confused:  Bigger=T Turned=T
 NLin=  8 IMin12=  1  2 I12=  0  2 IX=  1 XLMin= 0.000D+00 XLMax= 0.000D+00
 X = 0.000D+00 1.000D+00 2.000D+00 4.000D+00 8.000D+00 1.600D+01 3.200D+01 6.400D+01
 DE= 0.000D+00 1.406D-09 1.804D-09 4.771D-09 1.506D-08 5.236D-08 1.930D-07 7.475D-07
 Search did not lower the energy significantly.
 No lower point found -- switch to scaled steepest descent.
 QCLLim is confused:  Bigger=T Turned=T
 NLin=  4 IMin12=  1  3 I12=  0  2 IX=  1 XLMin= 0.000D+00 XLMax= 0.000D+00
 X = 0.000D+00 1.000D+00 2.000D+00 4.000D+00
 DE= 0.000D+00 1.088D-09 1.060D-09 1.424D-09
 Restarting incremental Fock formation.
 QCLLim is confused:  Bigger=T Turned=T
 NLin=  5 IMin12=  1  3 I12=  0  2 IX=  1 XLMin= 0.000D+00 XLMax= 0.000D+00
 X = 0.000D+00 1.000D+00 2.000D+00 4.000D+00 8.000D+00
 DE= 0.000D+00 1.088D-09 1.060D-09 1.424D-09 7.503D-09
 QCLLim is confused:  Bigger=T Turned=T
 NLin=  6 IMin12=  1  3 I12=  0  2 IX=  1 XLMin= 0.000D+00 XLMax= 0.000D+00
 X = 0.000D+00 1.000D+00 2.000D+00 4.000D+00 8.000D+00 1.600D+01
 DE= 0.000D+00 1.088D-09 1.060D-09 1.424D-09 7.503D-09 3.372D-08
 QCLLim is confused:  Bigger=T Turned=T
 NLin=  7 IMin12=  1  3 I12=  0  2 IX=  1 XLMin= 0.000D+00 XLMax= 0.000D+00
 X = 0.000D+00 1.000D+00 2.000D+00 4.000D+00 8.000D+00 1.600D+01 3.200D+01
 DE= 0.000D+00 1.088D-09 1.060D-09 1.424D-09 7.503D-09 3.372D-08 1.423D-07
 QCLLim is confused:  Bigger=T Turned=T
 NLin=  8 IMin12=  1  3 I12=  0  2 IX=  1 XLMin= 0.000D+00 XLMax= 0.000D+00
 X = 0.000D+00 1.000D+00 2.000D+00 4.000D+00 8.000D+00 1.600D+01 3.200D+01 6.400D+01
 DE= 0.000D+00 1.088D-09 1.060D-09 1.424D-09 7.503D-09 3.372D-08 1.423D-07 5.860D-07
 Search did not lower the energy significantly.
 Scaled steepest descent with Shift=0.000 failed.
 Restarting incremental Fock formation.
 Search did not lower the energy significantly.
 Scaled steepest descent with Shift=0.025 failed.
 QCLLim is confused:  Bigger=T Turned=T
 NLin=  4 IMin12=  1  2 I12=  0  2 IX=  1 XLMin= 0.000D+00 XLMax= 0.000D+00
 X = 0.000D+00 1.000D+00 2.000D+00 4.000D+00
 DE= 0.000D+00 8.022D-10 8.058D-10 1.719D-09
 QCLLim is confused:  Bigger=T Turned=T
 NLin=  5 IMin12=  1  2 I12=  0  2 IX=  1 XLMin= 0.000D+00 XLMax= 0.000D+00
 X = 0.000D+00 1.000D+00 2.000D+00 4.000D+00 8.000D+00
 DE= 0.000D+00 8.022D-10 8.058D-10 1.719D-09 6.778D-09
 QCLLim is confused:  Bigger=T Turned=T
 NLin=  6 IMin12=  1  2 I12=  0  2 IX=  1 XLMin= 0.000D+00 XLMax= 0.000D+00
 X = 0.000D+00 1.000D+00 2.000D+00 4.000D+00 8.000D+00 1.600D+01
 DE= 0.000D+00 8.022D-10 8.058D-10 1.719D-09 6.778D-09 2.969D-08
 QCLLim is confused:  Bigger=T Turned=T
 NLin=  7 IMin12=  1  2 I12=  0  2 IX=  1 XLMin= 0.000D+00 XLMax= 0.000D+00
 X = 0.000D+00 1.000D+00 2.000D+00 4.000D+00 8.000D+00 1.600D+01 3.200D+01
 DE= 0.000D+00 8.022D-10 8.058D-10 1.719D-09 6.778D-09 2.969D-08 1.257D-07
 QCLLim is confused:  Bigger=T Turned=T
 NLin=  8 IMin12=  1  2 I12=  0  2 IX=  1 XLMin= 0.000D+00 XLMax= 0.000D+00
 X = 0.000D+00 1.000D+00 2.000D+00 4.000D+00 8.000D+00 1.600D+01 3.200D+01 6.400D+01
 DE= 0.000D+00 8.022D-10 8.058D-10 1.719D-09 6.778D-09 2.969D-08 1.257D-07 5.183D-07
 Restarting incremental Fock formation.
 Search did not lower the energy significantly.
 Scaled steepest descent with Shift=0.050 failed.
 QCLLim is confused:  Bigger=T Turned=T
 NLin=  4 IMin12=  1  3 I12=  0  2 IX=  1 XLMin= 0.000D+00 XLMax= 0.000D+00
 X = 0.000D+00 1.000D+00 2.000D+00 4.000D+00
 DE= 0.000D+00 1.188D-09 1.033D-09 1.473D-09
 QCLLim is confused:  Bigger=T Turned=T
 NLin=  5 IMin12=  1  3 I12=  0  2 IX=  1 XLMin= 0.000D+00 XLMax= 0.000D+00
 X = 0.000D+00 1.000D+00 2.000D+00 4.000D+00 8.000D+00
 DE= 0.000D+00 1.188D-09 1.033D-09 1.473D-09 6.248D-09
 QCLLim is confused:  Bigger=T Turned=T
 NLin=  6 IMin12=  1  3 I12=  0  2 IX=  1 XLMin= 0.000D+00 XLMax= 0.000D+00
 X = 0.000D+00 1.000D+00 2.000D+00 4.000D+00 8.000D+00 1.600D+01
 DE= 0.000D+00 1.188D-09 1.033D-09 1.473D-09 6.248D-09 2.794D-08
 QCLLim is confused:  Bigger=T Turned=T
 NLin=  7 IMin12=  1  3 I12=  0  2 IX=  1 XLMin= 0.000D+00 XLMax= 0.000D+00
 X = 0.000D+00 1.000D+00 2.000D+00 4.000D+00 8.000D+00 1.600D+01 3.200D+01
 DE= 0.000D+00 1.188D-09 1.033D-09 1.473D-09 6.248D-09 2.794D-08 1.186D-07
 Search did not lower the energy significantly.
 Scaled steepest descent with Shift=0.075 failed.
 Restarting incremental Fock formation.
 QCLLim is confused:  Bigger=T Turned=T
 NLin=  6 IMin12=  1  2 I12=  0  2 IX=  1 XLMin= 0.000D+00 XLMax= 0.000D+00
 X = 0.000D+00 1.000D+00 2.000D+00 4.000D+00 8.000D+00 1.600D+01
 DE= 0.000D+00 7.694D-10 1.204D-09 2.474D-09 5.817D-09 2.669D-08
 Search did not lower the energy significantly.
 No lower point found -- switch to steepest descent.
 QCLLim is confused:  Bigger=T Turned=T
 NLin=  3 IMin12=  1  2 I12=  0  2 IX=  1 XLMin= 0.000D+00 XLMax= 0.000D+00
 X = 0.000D+00 1.000D+00 2.000D+00
 DE= 0.000D+00 4.347D-10 1.139D-09
 QCLLim is confused:  Bigger=T Turned=T
 NLin=  8 IMin12=  1  2 I12=  0  2 IX=  1 XLMin= 0.000D+00 XLMax= 0.000D+00
 X = 0.000D+00 1.000D+00 2.000D+00 4.000D+00 8.000D+00 1.600D+01 3.200D+01 6.400D+01
 DE= 0.000D+00 4.347D-10 1.139D-09 5.204D-09 2.268D-08 9.351D-08 3.847D-07 1.560D-06
 Restarting incremental Fock formation.
 Search did not lower the energy significantly.
 Restarting incremental Fock formation.
     Minimum is close to point 10 DX=  0.00D+00 DF=  0.00D+00 DXR=  0.00D+00 DFR=  0.00D+00 which will be used.
 LinEq1:  Iter=  0 NonCon=     1 RMS=2.33D-08 Max=3.70D-06 NDo=     1
 LinEq1:  Iter=  1 NonCon=     1 RMS=9.74D-09 Max=1.39D-06 NDo=     1
 LinEq1:  Iter=  2 NonCon=     1 RMS=4.69D-09 Max=6.63D-07 NDo=     1
 LinEq1:  Iter=  3 NonCon=     1 RMS=3.20D-09 Max=3.65D-07 NDo=     1
 LinEq1:  Iter=  4 NonCon=     1 RMS=1.62D-09 Max=1.41D-07 NDo=     1
 LinEq1:  Iter=  5 NonCon=     1 RMS=9.12D-10 Max=8.73D-08 NDo=     1
 LinEq1:  Iter=  6 NonCon=     1 RMS=5.20D-10 Max=7.59D-08 NDo=     1
 LinEq1:  Iter=  7 NonCon=     1 RMS=2.61D-10 Max=2.25D-08 NDo=     1
 LinEq1:  Iter=  8 NonCon=     1 RMS=1.15D-10 Max=1.24D-08 NDo=     1
 LinEq1:  Iter=  9 NonCon=     1 RMS=7.82D-11 Max=8.04D-09 NDo=     1
 LinEq1:  Iter= 10 NonCon=     1 RMS=3.96D-11 Max=4.99D-09 NDo=     1
 LinEq1:  Iter= 11 NonCon=     1 RMS=2.56D-11 Max=3.05D-09 NDo=     1
 LinEq1:  Iter= 12 NonCon=     0 RMS=1.35D-11 Max=1.22D-09 NDo=     1
 Linear equations converged to 1.312D-10 1.312D-09 after    12 iterations.
 QCLLim is confused:  Bigger=T Turned=T
 NLin=  4 IMin12=  1  2 I12=  0  2 IX=  1 XLMin= 0.000D+00 XLMax= 0.000D+00
 X = 0.000D+00 1.000D+00 2.000D+00 4.000D+00
 DE= 0.000D+00 1.290D-09 1.442D-09 2.194D-09
 QCLLim is confused:  Bigger=T Turned=T
 NLin=  5 IMin12=  1  2 I12=  0  2 IX=  1 XLMin= 0.000D+00 XLMax= 0.000D+00
 X = 0.000D+00 1.000D+00 2.000D+00 4.000D+00 8.000D+00
 DE= 0.000D+00 1.290D-09 1.442D-09 2.194D-09 1.012D-08
 QCLLim is confused:  Bigger=T Turned=T
 NLin=  6 IMin12=  1  2 I12=  0  2 IX=  1 XLMin= 0.000D+00 XLMax= 0.000D+00
 X = 0.000D+00 1.000D+00 2.000D+00 4.000D+00 8.000D+00 1.600D+01
 DE= 0.000D+00 1.290D-09 1.442D-09 2.194D-09 1.012D-08 4.037D-08
 Search did not lower the energy significantly.
 No lower point found -- try reversing direction.
 Restarting incremental Fock formation.
 QCLLim is confused:  Bigger=T Turned=T
 NLin=  6 IMin12=  1  2 I12=  0  2 IX=  1 XLMin= 0.000D+00 XLMax= 0.000D+00
 X = 0.000D+00 1.000D+00 2.000D+00 4.000D+00 8.000D+00 1.600D+01
 DE= 0.000D+00 1.515D-09 2.337D-09 5.222D-09 1.528D-08 5.216D-08
 Search did not lower the energy significantly.
 No lower point found -- switch to scaled steepest descent.
 QCLLim is confused:  Bigger=T Turned=T
 NLin=  5 IMin12=  1  2 I12=  0  2 IX=  1 XLMin= 0.000D+00 XLMax= 0.000D+00
 X = 0.000D+00 1.000D+00 2.000D+00 4.000D+00 8.000D+00
 DE= 0.000D+00 8.877D-10 1.461D-09 1.763D-09 8.213D-09
 QCLLim is confused:  Bigger=T Turned=T
 NLin=  6 IMin12=  1  2 I12=  0  2 IX=  1 XLMin= 0.000D+00 XLMax= 0.000D+00
 X = 0.000D+00 1.000D+00 2.000D+00 4.000D+00 8.000D+00 1.600D+01
 DE= 0.000D+00 8.877D-10 1.461D-09 1.763D-09 8.213D-09 3.346D-08
 QCLLim is confused:  Bigger=T Turned=T
 NLin=  7 IMin12=  1  2 I12=  0  2 IX=  1 XLMin= 0.000D+00 XLMax= 0.000D+00
 X = 0.000D+00 1.000D+00 2.000D+00 4.000D+00 8.000D+00 1.600D+01 3.200D+01
 DE= 0.000D+00 8.877D-10 1.461D-09 1.763D-09 8.213D-09 3.346D-08 1.416D-07
 QCLLim is confused:  Bigger=T Turned=T
 NLin=  8 IMin12=  1  2 I12=  0  2 IX=  1 XLMin= 0.000D+00 XLMax= 0.000D+00
 X = 0.000D+00 1.000D+00 2.000D+00 4.000D+00 8.000D+00 1.600D+01 3.200D+01 6.400D+01
 DE= 0.000D+00 8.877D-10 1.461D-09 1.763D-09 8.213D-09 3.346D-08 1.416D-07 5.812D-07
 QCLLim is confused:  Bigger=T Turned=T
 NLin=  9 IMin12=  1  2 I12=  0  2 IX=  1 XLMin= 0.000D+00 XLMax= 0.000D+00
 X = 0.000D+00 1.000D+00 2.000D+00 4.000D+00 8.000D+00 1.600D+01 3.200D+01 6.400D+01 1.280D+02
 DE= 0.000D+00 8.877D-10 1.461D-09 1.763D-09 8.213D-09 3.346D-08 1.416D-07 5.812D-07 2.361D-06
 Restarting incremental Fock formation.
 Search did not lower the energy significantly.
 Scaled steepest descent with Shift=0.000 failed.
 QCLLim is confused:  Bigger=T Turned=T
 NLin=  9 IMin12=  1  2 I12=  0  2 IX=  1 XLMin= 0.000D+00 XLMax= 0.000D+00
 X = 0.000D+00 1.000D+00 2.000D+00 4.000D+00 8.000D+00 1.600D+01 3.200D+01 6.400D+01 1.280D+02
 DE= 0.000D+00 7.421D-10 1.133D-09 2.095D-09 7.829D-09 3.152D-08 1.331D-07 5.456D-07 2.213D-06
 Restarting incremental Fock formation.
 Search did not lower the energy significantly.
 Scaled steepest descent with Shift=0.025 failed.
 QCLLim is confused:  Bigger=T Turned=T
 NLin=  4 IMin12=  1  2 I12=  0  2 IX=  1 XLMin= 0.000D+00 XLMax= 0.000D+00
 X = 0.000D+00 1.000D+00 2.000D+00 4.000D+00
 DE= 0.000D+00 1.524D-09 1.603D-09 1.695D-09
 QCLLim is confused:  Bigger=T Turned=T
 NLin=  5 IMin12=  1  2 I12=  0  2 IX=  1 XLMin= 0.000D+00 XLMax= 0.000D+00
 X = 0.000D+00 1.000D+00 2.000D+00 4.000D+00 8.000D+00
 DE= 0.000D+00 1.524D-09 1.603D-09 1.695D-09 7.183D-09
 QCLLim is confused:  Bigger=T Turned=T
 NLin=  6 IMin12=  1  2 I12=  0  2 IX=  1 XLMin= 0.000D+00 XLMax= 0.000D+00
 X = 0.000D+00 1.000D+00 2.000D+00 4.000D+00 8.000D+00 1.600D+01
 DE= 0.000D+00 1.524D-09 1.603D-09 1.695D-09 7.183D-09 2.970D-08
 QCLLim is confused:  Bigger=T Turned=T
 NLin=  7 IMin12=  1  2 I12=  0  2 IX=  1 XLMin= 0.000D+00 XLMax= 0.000D+00
 X = 0.000D+00 1.000D+00 2.000D+00 4.000D+00 8.000D+00 1.600D+01 3.200D+01
 DE= 0.000D+00 1.524D-09 1.603D-09 1.695D-09 7.183D-09 2.970D-08 1.248D-07
 Search did not lower the energy significantly.
 Scaled steepest descent with Shift=0.050 failed.
 QCLLim is confused:  Bigger=T Turned=T
 NLin=  4 IMin12=  1  3 I12=  0  2 IX=  1 XLMin= 0.000D+00 XLMax= 0.000D+00
 X = 0.000D+00 1.000D+00 2.000D+00 4.000D+00
 DE= 0.000D+00 1.532D-09 1.530D-09 2.618D-09
 Restarting incremental Fock formation.
 QCLLim is confused:  Bigger=T Turned=T
 NLin=  5 IMin12=  1  3 I12=  0  2 IX=  1 XLMin= 0.000D+00 XLMax= 0.000D+00
 X = 0.000D+00 1.000D+00 2.000D+00 4.000D+00 8.000D+00
 DE= 0.000D+00 1.532D-09 1.530D-09 2.618D-09 6.612D-09
 QCLLim is confused:  Bigger=T Turned=T
 NLin=  6 IMin12=  1  3 I12=  0  2 IX=  1 XLMin= 0.000D+00 XLMax= 0.000D+00
 X = 0.000D+00 1.000D+00 2.000D+00 4.000D+00 8.000D+00 1.600D+01
 DE= 0.000D+00 1.532D-09 1.530D-09 2.618D-09 6.612D-09 2.803D-08
 QCLLim is confused:  Bigger=T Turned=T
 NLin=  7 IMin12=  1  3 I12=  0  2 IX=  1 XLMin= 0.000D+00 XLMax= 0.000D+00
 X = 0.000D+00 1.000D+00 2.000D+00 4.000D+00 8.000D+00 1.600D+01 3.200D+01
 DE= 0.000D+00 1.532D-09 1.530D-09 2.618D-09 6.612D-09 2.803D-08 1.174D-07
 QCLLim is confused:  Bigger=T Turned=T
 NLin=  8 IMin12=  1  3 I12=  0  2 IX=  1 XLMin= 0.000D+00 XLMax= 0.000D+00
 X = 0.000D+00 1.000D+00 2.000D+00 4.000D+00 8.000D+00 1.600D+01 3.200D+01 6.400D+01
 DE= 0.000D+00 1.532D-09 1.530D-09 2.618D-09 6.612D-09 2.803D-08 1.174D-07 4.849D-07
 Search did not lower the energy significantly.
 Scaled steepest descent with Shift=0.075 failed.
 QCLLim is confused:  Bigger=T Turned=T
 NLin=  8 IMin12=  1  2 I12=  0  2 IX=  1 XLMin= 0.000D+00 XLMax= 0.000D+00
 X = 0.000D+00 1.000D+00 2.000D+00 4.000D+00 8.000D+00 1.600D+01 3.200D+01 6.400D+01
 DE= 0.000D+00 1.235D-09 2.135D-09 3.685D-09 7.885D-09 2.798D-08 1.133D-07 4.617D-07
 Restarting incremental Fock formation.
 Search did not lower the energy significantly.
 No lower point found -- switch to steepest descent.
 QCLLim is confused:  Bigger=T Turned=T
 NLin=  6 IMin12=  1  2 I12=  0  2 IX=  1 XLMin= 0.000D+00 XLMax= 0.000D+00
 X = 0.000D+00 1.000D+00 2.000D+00 4.000D+00 8.000D+00 1.600D+01
 DE= 0.000D+00 1.319D-09 1.803D-09 6.132D-09 2.186D-08 9.095D-08
 QCLLim is confused:  Bigger=T Turned=T
 NLin=  7 IMin12=  1  2 I12=  0  2 IX=  1 XLMin= 0.000D+00 XLMax= 0.000D+00
 X = 0.000D+00 1.000D+00 2.000D+00 4.000D+00 8.000D+00 1.600D+01 3.200D+01
 DE= 0.000D+00 1.319D-09 1.803D-09 6.132D-09 2.186D-08 9.095D-08 3.739D-07
 Restarting incremental Fock formation.
 Search did not lower the energy significantly.
 Search did not lower the energy significantly.
 QCLLim is confused:  Bigger=T Turned=T
 NLin=  4 IMin12=  1  3 I12=  0  2 IX=  1 XLMin= 0.000D+00 XLMax= 0.000D+00
 X = 0.000D+00 1.000D+00 2.000D+00 4.000D+00
 DE= 0.000D+00 9.804D-10 6.112D-10 1.246D-09
 Restarting incremental Fock formation.
 QCLLim is confused:  Bigger=T Turned=T
 NLin=  5 IMin12=  1  3 I12=  0  2 IX=  1 XLMin= 0.000D+00 XLMax= 0.000D+00
 X = 0.000D+00 1.000D+00 2.000D+00 4.000D+00 8.000D+00
 DE= 0.000D+00 9.804D-10 6.112D-10 1.246D-09 1.522D-09
 QCLLim is confused:  Bigger=T Turned=T
 NLin=  6 IMin12=  1  3 I12=  0  2 IX=  1 XLMin= 0.000D+00 XLMax= 0.000D+00
 X = 0.000D+00 1.000D+00 2.000D+00 4.000D+00 8.000D+00 1.600D+01
 DE= 0.000D+00 9.804D-10 6.112D-10 1.246D-09 1.522D-09 1.544D-09
 QCLLim is confused:  Bigger=T Turned=T
 NLin=  7 IMin12=  1  3 I12=  0  2 IX=  1 XLMin= 0.000D+00 XLMax= 0.000D+00
 X = 0.000D+00 1.000D+00 2.000D+00 4.000D+00 8.000D+00 1.600D+01 3.200D+01
 DE= 0.000D+00 9.804D-10 6.112D-10 1.246D-09 1.522D-09 1.544D-09 3.527D-09
 QCLLim is confused:  Bigger=T Turned=T
 NLin=  8 IMin12=  1  3 I12=  0  2 IX=  1 XLMin= 0.000D+00 XLMax= 0.000D+00
 X = 0.000D+00 1.000D+00 2.000D+00 4.000D+00 8.000D+00 1.600D+01 3.200D+01 6.400D+01
 DE= 0.000D+00 9.804D-10 6.112D-10 1.246D-09 1.522D-09 1.544D-09 3.527D-09 1.421D-08
 Search did not lower the energy significantly.
 No lower point found -- run aborted.
 Error termination via Lnk1e in /home/users/astar/bmsi/zhangx5/programs/g16/l508.exe at Sat Jun 15 15:02:38 2024.
 Job cpu time:      17 days  8 hours  6 minutes 58.6 seconds.
 Elapsed time:       0 days  6 hours 34 minutes 33.6 seconds.
 File lengths (MBytes):  RWF=    622 Int=      0 D2E=      0 Chk=    115 Scr=      1
