 Entering Gaussian System, Link 0=g16
 Initial command:
 /opt/packages/gaussian/g16RevC.01/g16/l1.exe "/jet/home/jliu40/scratch/Gau-67660.inp" -scrdir="/jet/home/jliu40/scratch/"
 Entering Link 1 = /opt/packages/gaussian/g16RevC.01/g16/l1.exe PID=     67665.
  
 Copyright (c) 1988-2019, Gaussian, Inc.  All Rights Reserved.
  
 This is part of the Gaussian(R) 16 program.  It is based on
 the Gaussian(R) 09 system (copyright 2009, Gaussian, Inc.),
 the Gaussian(R) 03 system (copyright 2003, Gaussian, Inc.),
 the Gaussian(R) 98 system (copyright 1998, Gaussian, Inc.),
 the Gaussian(R) 94 system (copyright 1995, Gaussian, Inc.),
 the Gaussian 92(TM) system (copyright 1992, Gaussian, Inc.),
 the Gaussian 90(TM) system (copyright 1990, Gaussian, Inc.),
 the Gaussian 88(TM) system (copyright 1988, Gaussian, Inc.),
 the Gaussian 86(TM) system (copyright 1986, Carnegie Mellon
 University), and the Gaussian 82(TM) system (copyright 1983,
 Carnegie Mellon University). Gaussian is a federally registered
 trademark of Gaussian, Inc.
  
 This software contains proprietary and confidential information,
 including trade secrets, belonging to Gaussian, Inc.
  
 This software is provided under written license and may be
 used, copied, transmitted, or stored only in accord with that
 written license.
  
 The following legend is applicable only to US Government
 contracts under FAR:
  
                    RESTRICTED RIGHTS LEGEND
  
 Use, reproduction and disclosure by the US Government is
 subject to restrictions as set forth in subparagraphs (a)
 and (c) of the Commercial Computer Software - Restricted
 Rights clause in FAR 52.227-19.
  
 Gaussian, Inc.
 340 Quinnipiac St., Bldg. 40, Wallingford CT 06492
  
  
 ---------------------------------------------------------------
 Warning -- This program may not be used in any manner that
 competes with the business of Gaussian, Inc. or will provide
 assistance to any competitor of Gaussian, Inc.  The licensee
 of this program is prohibited from giving any competitor of
 Gaussian, Inc. access to this program.  By using this program,
 the user acknowledges that Gaussian, Inc. is engaged in the
 business of creating and licensing software in the field of
 computational chemistry and represents and warrants to the
 licensee that it is not a competitor of Gaussian, Inc. and that
 it will not use this program in any manner prohibited above.
 ---------------------------------------------------------------
  

 Cite this work as:
 Gaussian 16, Revision C.01,
 M. J. Frisch, G. W. Trucks, H. B. Schlegel, G. E. Scuseria, 
 M. A. Robb, J. R. Cheeseman, G. Scalmani, V. Barone, 
 G. A. Petersson, H. Nakatsuji, X. Li, M. Caricato, A. V. Marenich, 
 J. Bloino, B. G. Janesko, R. Gomperts, B. Mennucci, H. P. Hratchian, 
 J. V. Ortiz, A. F. Izmaylov, J. L. Sonnenberg, D. Williams-Young, 
 F. Ding, F. Lipparini, F. Egidi, J. Goings, B. Peng, A. Petrone, 
 T. Henderson, D. Ranasinghe, V. G. Zakrzewski, J. Gao, N. Rega, 
 G. Zheng, W. Liang, M. Hada, M. Ehara, K. Toyota, R. Fukuda, 
 J. Hasegawa, M. Ishida, T. Nakajima, Y. Honda, O. Kitao, H. Nakai, 
 T. Vreven, K. Throssell, J. A. Montgomery, Jr., J. E. Peralta, 
 F. Ogliaro, M. J. Bearpark, J. J. Heyd, E. N. Brothers, K. N. Kudin, 
 V. N. Staroverov, T. A. Keith, R. Kobayashi, J. Normand, 
 K. Raghavachari, A. P. Rendell, J. C. Burant, S. S. Iyengar, 
 J. Tomasi, M. Cossi, J. M. Millam, M. Klene, C. Adamo, R. Cammi, 
 J. W. Ochterski, R. L. Martin, K. Morokuma, O. Farkas, 
 J. B. Foresman, and D. J. Fox, Gaussian, Inc., Wallingford CT, 2019.
 
 ******************************************
 Gaussian 16:  ES64L-G16RevC.01  3-Jul-2019
                23-Mar-2025 
 ******************************************
 %chk=CH3CH3.chk
 ---------------------------------------------
 # oniom(mp2/6-31g:hf/6-31g) geom=connectivity
 ---------------------------------------------
 1/38=1,52=2,57=2,172=1/1;
 2/12=2,17=6,18=5,40=1/2;
 1/38=1,52=2,53=3172/20;
 3/5=1,6=6,11=9,25=1,30=1/1,2,3;
 4//1;
 5/5=2,38=5/2;
 6/7=2,8=2,9=2,10=2,28=1/1;
 1/52=2,53=2032/20;
 3/5=1,6=6,11=9,25=1,30=1/1,2,3;
 4//1;
 5/5=2,38=5/2;
 8/10=2/1;
 9/16=-3/6;
 6/7=2,8=2,9=2,10=2/1;
 1/52=2,53=1022/20;
 3/5=1,6=6,11=9,25=1,30=1/1,2,3;
 4//1;
 5/5=2,38=5/2;
 6/7=2,8=2,9=2,10=2,28=1/1;
 1/52=2,53=3014/20;
 99/5=1,9=1/99;
 ONIOM: restoring gridpoint  3 on chk file.
 -------------------
 Title Card Required
 -------------------
 Symbolic Z-matrix:
 Charge =  0 Multiplicity = 1 for low   level calculation on real  system.
 Charge =  0 Multiplicity = 1 for high  level calculation on model system.
 Charge =  0 Multiplicity = 1 for low   level calculation on model system.
 C                    0    -0.48611  -0.34722   0.       H 
 H                    0    -0.12946  -1.35603   0.       H 
 H                    0    -0.12944   0.15718  -0.87365  H 
 H                    0    -1.55611  -0.34721   0.       H 
 C                    0     0.02723   0.37873   1.2574   L    H        1     0.709     1. 
 H                    0    -0.32783   1.38811   1.25643  L 
 H                    0    -0.33104  -0.12453   2.13105  L 
 H                    0     1.09723   0.37703   1.25838  L 
 
                          Input orientation:                          
 ---------------------------------------------------------------------
 Center     Atomic      Atomic             Coordinates (Angstroms)
 Number     Number       Type             X           Y           Z
 ---------------------------------------------------------------------
      1          6           0       -0.486111   -0.347222    0.000000
      2          1           0       -0.129457   -1.356032    0.000000
      3          1           0       -0.129438    0.157176   -0.873652
      4          1           0       -1.556111   -0.347209    0.000000
      5          6           0        0.027231    0.378734    1.257405
      6          1           0       -0.327825    1.388107    1.256427
      7          1           0       -0.331038   -0.124534    2.131055
      8          1           0        1.097229    0.377027    1.258384
 ---------------------------------------------------------------------
                    Distance matrix (angstroms):
                    1          2          3          4          5
     1  C    0.000000
     2  H    1.070000   0.000000
     3  H    1.070000   1.747302   0.000000
     4  H    1.070000   1.747303   1.747303   0.000000
     5  C    1.540000   2.148263   2.148263   2.148263   0.000000
     6  H    2.148263   3.024609   2.468154   2.469538   1.070000
     7  H    2.148263   2.469538   3.024610   2.468154   1.070000
     8  H    2.148263   2.468154   2.469539   3.024610   1.070000
                    6          7          8
     6  H    0.000000
     7  H    1.747303   0.000000
     8  H    1.747303   1.747303   0.000000
 Stoichiometry    C2H6
 Framework group  D3[C3(C.C),X(H6)]
 Deg. of freedom     4
 Full point group                 D3      NOp   6
 Largest Abelian subgroup         C2      NOp   2
 Largest concise Abelian subgroup C2      NOp   2
                         Standard orientation:                         
 ---------------------------------------------------------------------
 Center     Atomic      Atomic             Coordinates (Angstroms)
 Number     Number       Type             X           Y           Z
 ---------------------------------------------------------------------
      1          6           0        0.000000    0.000000    0.770000
      2          1           0       -0.503556    0.874140    1.126666
      3          1           0        1.008805   -0.000978    1.126666
      4          1           0       -0.505250   -0.873162    1.126666
      5          6           0        0.000000    0.000000   -0.770000
      6          1           0        0.505250   -0.873162   -1.126666
      7          1           0       -1.008805   -0.000978   -1.126666
      8          1           0        0.503556    0.874140   -1.126666
 ---------------------------------------------------------------------
 Rotational constants (GHZ):          82.1231633          20.2293892          20.2293892
 Mismatch for IA=    1 IOp=  2 Lay=1 IAnM=  0 IAtM=         0 ACM=    0.000000 Dist= 0.000000 0.000000
              JA=    5         Lay=2 IAnM=  1 IAtM=         0 ACM=    0.000000 Dist= 0.709000 1.000000
 Mismatch for IA=    2 IOp=  2 Lay=1 IAnM=  0 IAtM=         0 ACM=    0.000000 Dist= 0.000000 0.000000
              JA=    8         Lay=2 IAnM=  0 IAtM=         0 ACM=    0.000000 Dist= 0.000000 0.000000
 Mismatch for IA=    3 IOp=  2 Lay=1 IAnM=  0 IAtM=         0 ACM=    0.000000 Dist= 0.000000 0.000000
              JA=    7         Lay=2 IAnM=  0 IAtM=         0 ACM=    0.000000 Dist= 0.000000 0.000000
 Mismatch for IA=    4 IOp=  2 Lay=1 IAnM=  0 IAtM=         0 ACM=    0.000000 Dist= 0.000000 0.000000
              JA=    6         Lay=2 IAnM=  0 IAtM=         0 ACM=    0.000000 Dist= 0.000000 0.000000
 Mismatch for IA=    5 IOp=  2 Lay=2 IAnM=  1 IAtM=         0 ACM=    0.000000 Dist= 0.709000 1.000000
              JA=    1         Lay=1 IAnM=  0 IAtM=         0 ACM=    0.000000 Dist= 0.000000 0.000000
 Mismatch for IA=    6 IOp=  2 Lay=2 IAnM=  0 IAtM=         0 ACM=    0.000000 Dist= 0.000000 0.000000
              JA=    4         Lay=1 IAnM=  0 IAtM=         0 ACM=    0.000000 Dist= 0.000000 0.000000
 Mismatch for IA=    7 IOp=  2 Lay=2 IAnM=  0 IAtM=         0 ACM=    0.000000 Dist= 0.000000 0.000000
              JA=    3         Lay=1 IAnM=  0 IAtM=         0 ACM=    0.000000 Dist= 0.000000 0.000000
 Mismatch for IA=    8 IOp=  2 Lay=2 IAnM=  0 IAtM=         0 ACM=    0.000000 Dist= 0.000000 0.000000
              JA=    2         Lay=1 IAnM=  0 IAtM=         0 ACM=    0.000000 Dist= 0.000000 0.000000
 Symmetry turned off in CkOnSy:
 Model systems do not conform to real system point group.
 Returning to input orientation because symmetry turned off.
 ONIOM: Cut between C /H     5 and C     1 factor= 0.709000 1.000000
 ONIOM: saving gridpoint 17
 ONIOM: restoring gridpoint  3 on chk file.
 ONIOM: generating point  3 -- low level on real system.
 Standard basis: 6-31G (6D, 7F)
    30 basis functions,    68 primitive gaussians,    30 cartesian basis functions
     9 alpha electrons        9 beta electrons
       nuclear repulsion energy        42.6703238721 Hartrees.
 NAtoms=    8 NActive=    8 NUniq=    8 SFac= 1.00D+00 NAtFMM=   60 NAOKFM=F Big=F
 Integral buffers will be    131072 words long.
 Raffenetti 1 integral format.
 Two-electron integral symmetry is turned off.
 One-electron integrals computed using PRISM.
 NBasis=    30 RedAO= T EigKep=  9.50D-03  NBF=    30
 NBsUse=    30 1.00D-06 EigRej= -1.00D+00 NBFU=    30
 ExpMin= 1.61D-01 ExpMax= 3.05D+03 ExpMxC= 4.57D+02 IAcc=3 IRadAn=         5 AccDes= 0.00D+00
 Harris functional with IExCor=  205 and IRadAn=       5 diagonalized for initial guess.
 HarFok:  IExCor=  205 AccDes= 0.00D+00 IRadAn=         5 IDoV= 1 UseB2=F ITyADJ=14
 ICtDFT=  3500011 ScaDFX=  1.000000  1.000000  1.000000  1.000000
 FoFCou: FMM=F IPFlag=           0 FMFlag=      100000 FMFlg1=           0
         NFxFlg=           0 DoJE=T BraDBF=F KetDBF=T FulRan=T
         wScrn=  0.000000 ICntrl=       500 IOpCl=  0 I1Cent=   200000004 NGrid=           0
         NMat0=    1 NMatS0=      1 NMatT0=    0 NMatD0=    1 NMtDS0=    0 NMtDT0=    0
 Symmetry not used in FoFCou.
 Keep R1 ints in memory in canonical form, NReq=926024.
 Requested convergence on RMS density matrix=1.00D-08 within 128 cycles.
 Requested convergence on MAX density matrix=1.00D-06.
 Requested convergence on             energy=1.00D-06.
 No special actions if energy rises.
 SCF Done:  E(RHF) =  -79.1959515590     A.U. after    9 cycles
            NFock=  9  Conv=0.16D-08     -V/T= 1.9967

 **********************************************************************

            Population analysis using the SCF Density.

 **********************************************************************

 Alpha  occ. eigenvalues --  -11.20484 -11.20430  -1.02589  -0.84924  -0.60556
 Alpha  occ. eigenvalues --   -0.60556  -0.49496  -0.49196  -0.49196
 Alpha virt. eigenvalues --    0.24171   0.30776   0.32339   0.32339   0.33625
 Alpha virt. eigenvalues --    0.33625   0.39982   0.73655   0.75915   0.75915
 Alpha virt. eigenvalues --    0.84532   0.84532   0.95074   1.23194   1.23194
 Alpha virt. eigenvalues --    1.23263   1.28578   1.28728   1.28728   1.32086
 Alpha virt. eigenvalues --    1.70313
          Condensed to atoms (all electrons):
               1          2          3          4          5          6
     1  C    5.124792   0.392025   0.392025   0.392025   0.283587  -0.044181
     2  H    0.392025   0.563782  -0.030312  -0.030312  -0.044181   0.004535
     3  H    0.392025  -0.030312   0.563782  -0.030312  -0.044181  -0.003102
     4  H    0.392025  -0.030312  -0.030312   0.563782  -0.044181  -0.003072
     5  C    0.283587  -0.044181  -0.044181  -0.044181   5.124792   0.392025
     6  H   -0.044181   0.004535  -0.003102  -0.003072   0.392025   0.563782
     7  H   -0.044181  -0.003072   0.004535  -0.003102   0.392025  -0.030312
     8  H   -0.044181  -0.003102  -0.003072   0.004535   0.392025  -0.030312
               7          8
     1  C   -0.044181  -0.044181
     2  H   -0.003072  -0.003102
     3  H    0.004535  -0.003072
     4  H   -0.003102   0.004535
     5  C    0.392025   0.392025
     6  H   -0.030312  -0.030312
     7  H    0.563782  -0.030312
     8  H   -0.030312   0.563782
 Mulliken charges:
               1
     1  C   -0.451911
     2  H    0.150637
     3  H    0.150637
     4  H    0.150637
     5  C   -0.451911
     6  H    0.150637
     7  H    0.150637
     8  H    0.150637
 Sum of Mulliken charges =   0.00000
 Mulliken charges with hydrogens summed into heavy atoms:
               1
     1  C    0.000000
     5  C    0.000000
 Electronic spatial extent (au):  <R**2>=            137.0498
 Charge=              0.0000 electrons
 Dipole moment (field-independent basis, Debye):
    X=              0.0000    Y=              0.0000    Z=              0.0000  Tot=              0.0000
 Quadrupole moment (field-independent basis, Debye-Ang):
   XX=            -14.9726   YY=            -15.0704   ZZ=            -15.4617
   XY=             -0.1384   XZ=             -0.2397   YZ=             -0.3389
 Traceless Quadrupole moment (field-independent basis, Debye-Ang):
   XX=              0.1957   YY=              0.0978   ZZ=             -0.2935
   XY=             -0.1384   XZ=             -0.2397   YZ=             -0.3389
 Octapole moment (field-independent basis, Debye-Ang**2):
  XXX=             10.3059  YYY=             -0.7108  ZZZ=            -29.1625  XYY=              3.4541
  XXY=             -0.1745  XXZ=             -9.3021  XZZ=              3.2455  YZZ=             -0.6693
  YYZ=             -9.4867  XYZ=             -0.0126
 Hexadecapole moment (field-independent basis, Debye-Ang**3):
 XXXX=            -38.3460 YYYY=            -40.8149 ZZZZ=           -105.7563 XXXY=             -4.3016
 XXXZ=             -1.2502 YYYX=             -5.5477 YYYZ=            -11.7832 ZZZX=             -2.9059
 ZZZY=            -14.0238 XXYY=            -14.2483 XXZZ=            -24.5805 YYZZ=            -24.9953
 XXYZ=             -4.0580 YYXZ=             -0.9281 ZZXY=             -1.3583
 N-N= 4.267032387215D+01 E-N=-2.692446366164D+02  KE= 7.946061442834D+01
 SvSCFP is copying densities from files   528 and   530 to   603.
 ONIOM: saving gridpoint  3
 ONIOM: restoring gridpoint 17
 ONIOM: restoring gridpoint  2 on chk file.
 ONIOM: generating point  2 -- high level on model system.
 Standard basis: 6-31G (6D, 7F)
    17 basis functions,    38 primitive gaussians,    17 cartesian basis functions
     5 alpha electrons        5 beta electrons
       nuclear repulsion energy        12.6113212409 Hartrees.
 NAtoms=    8 NActive=    5 NUniq=    5 SFac= 1.00D+00 NAtFMM=   60 NAOKFM=F Big=F
 Integral buffers will be    131072 words long.
 Raffenetti 1 integral format.
 Two-electron integral symmetry is turned off.
 One-electron integrals computed using PRISM.
 NBasis=    17 RedAO= T EigKep=  2.34D-02  NBF=    17
 NBsUse=    17 1.00D-06 EigRej= -1.00D+00 NBFU=    17
 ExpMin= 1.61D-01 ExpMax= 3.05D+03 ExpMxC= 4.57D+02 IAcc=3 IRadAn=         5 AccDes= 0.00D+00
 Harris functional with IExCor=  205 and IRadAn=       5 diagonalized for initial guess.
 HarFok:  IExCor=  205 AccDes= 0.00D+00 IRadAn=         5 IDoV= 1 UseB2=F ITyADJ=14
 ICtDFT=  3500011 ScaDFX=  1.000000  1.000000  1.000000  1.000000
 FoFCou: FMM=F IPFlag=           0 FMFlag=      100000 FMFlg1=           0
         NFxFlg=           0 DoJE=T BraDBF=F KetDBF=T FulRan=T
         wScrn=  0.000000 ICntrl=       500 IOpCl=  0 I1Cent=   200000004 NGrid=           0
         NMat0=    1 NMatS0=      1 NMatT0=    0 NMatD0=    1 NMtDS0=    0 NMtDT0=    0
 Symmetry not used in FoFCou.
 Keep R1 ints in memory in canonical form, NReq=820021.
 Requested convergence on RMS density matrix=1.00D-08 within 128 cycles.
 Requested convergence on MAX density matrix=1.00D-06.
 Requested convergence on             energy=1.00D-06.
 No special actions if energy rises.
 SCF Done:  E(RHF) =  -40.1134792967     A.U. after    9 cycles
            NFock=  9  Conv=0.31D-08     -V/T= 2.0050
 ExpMin= 1.61D-01 ExpMax= 3.05D+03 ExpMxC= 4.57D+02 IAcc=3 IRadAn=         5 AccDes= 0.00D+00
 HarFok:  IExCor=  205 AccDes= 0.00D+00 IRadAn=         5 IDoV=-2 UseB2=F ITyADJ=14
 ICtDFT= 12500011 ScaDFX=  1.000000  1.000000  1.000000  1.000000
 Range of M.O.s used for correlation:     2    17
 NBasis=    17 NAE=     5 NBE=     5 NFC=     1 NFV=     0
 NROrb=     16 NOA=     4 NOB=     4 NVA=    12 NVB=    12
 Fully in-core method, ICMem=     6034076.
 JobTyp=1 Pass  1 fully in-core, NPsUse=  1.
 Spin components of T(2) and E(2):
     alpha-alpha T2 =       0.3408655966D-02 E2=     -0.8238560835D-02
     alpha-beta  T2 =       0.3780438645D-01 E2=     -0.8841195964D-01
     beta-beta   T2 =       0.3408655966D-02 E2=     -0.8238560835D-02
 ANorm=    0.1022067365D+01
 E2 =    -0.1048890813D+00 EUMP2 =    -0.40218368377984D+02

 **********************************************************************

            Population analysis using the SCF Density.

 **********************************************************************

 Alpha  occ. eigenvalues --  -11.24993  -0.93578  -0.56167  -0.56167  -0.44712
 Alpha virt. eigenvalues --    0.18145   0.27373   0.32567   0.32567   0.72624
 Alpha virt. eigenvalues --    0.72624   0.84621   1.02962   1.22523   1.23049
 Alpha virt. eigenvalues --    1.23049   1.30343
          Condensed to atoms (all electrons):
               1          2          3          4          5
     1  C    5.075066   0.376636   0.376636   0.376636   0.336347
     2  H    0.376636   0.541351  -0.034134  -0.034134  -0.015141
     3  H    0.376636  -0.034134   0.541351  -0.034134  -0.015141
     4  H    0.376636  -0.034134  -0.034134   0.541351  -0.015141
     5  H    0.336347  -0.015141  -0.015141  -0.015141   0.664018
 Mulliken charges:
               1
     1  C   -0.541321
     2  H    0.165421
     3  H    0.165421
     4  H    0.165421
     5  H    0.045057
     6  H    0.000000
     7  H    0.000000
     8  H    0.000000
 Sum of Mulliken charges =   0.00000
 Mulliken charges with hydrogens summed into heavy atoms:
               1
     1  C    0.000000
 Electronic spatial extent (au):  <R**2>=             51.6244
 Charge=              0.0000 electrons
 Dipole moment (field-independent basis, Debye):
    X=             -0.2059    Y=             -0.2912    Z=             -0.5043  Tot=              0.6176
 Quadrupole moment (field-independent basis, Debye-Ang):
   XX=             -8.5514   YY=             -8.5536   ZZ=             -8.7724
   XY=              0.2071   XZ=              0.2350   YZ=              0.1607
 Traceless Quadrupole moment (field-independent basis, Debye-Ang):
   XX=              0.0744   YY=              0.0722   ZZ=             -0.1466
   XY=              0.2071   XZ=              0.2350   YZ=              0.1607
 Octapole moment (field-independent basis, Debye-Ang**2):
  XXX=             10.6784  YYY=              6.8573  ZZZ=             -2.3694  XYY=              4.1786
  XXY=              2.3813  XXZ=             -1.0184  XZZ=              4.5005  YZZ=              3.3799
  YYZ=             -0.8406  XYZ=              0.0941
 Hexadecapole moment (field-independent basis, Debye-Ang**3):
 XXXX=            -24.9080 YYYY=            -21.0276 ZZZZ=            -21.5984 XXXY=             -3.7748
 XXXZ=             -0.1161 YYYX=             -4.4548 YYYZ=             -1.1255 ZZZX=              0.1777
 ZZZY=             -0.5548 XXYY=             -8.5998 XXZZ=             -8.8700 YYZZ=             -7.6201
 XXYZ=             -0.4197 YYXZ=             -0.0345 ZZXY=             -1.3901
 N-N= 1.261132124092D+01 E-N=-1.178497110532D+02  KE= 3.991242855309D+01
 SvSCFP is copying densities from files   528 and   530 to   603.
 ONIOM: saving gridpoint  2
 ONIOM: restoring gridpoint 17
 ONIOM: restoring gridpoint  1 on chk file.
 ONIOM: generating point  1 -- low level on model system.
 Standard basis: 6-31G (6D, 7F)
    17 basis functions,    38 primitive gaussians,    17 cartesian basis functions
     5 alpha electrons        5 beta electrons
       nuclear repulsion energy        13.6178991960 Hartrees.
 NAtoms=    8 NActive=    5 NUniq=    5 SFac= 1.00D+00 NAtFMM=   60 NAOKFM=F Big=F
 Integral buffers will be    131072 words long.
 Raffenetti 1 integral format.
 Two-electron integral symmetry is turned off.
 One-electron integrals computed using PRISM.
 NBasis=    17 RedAO= T EigKep=  1.96D-02  NBF=    17
 NBsUse=    17 1.00D-06 EigRej= -1.00D+00 NBFU=    17
 ExpMin= 1.61D-01 ExpMax= 3.05D+03 ExpMxC= 4.57D+02 IAcc=3 IRadAn=         5 AccDes= 0.00D+00
 Harris functional with IExCor=  205 and IRadAn=       5 diagonalized for initial guess.
 HarFok:  IExCor=  205 AccDes= 0.00D+00 IRadAn=         5 IDoV= 1 UseB2=F ITyADJ=14
 ICtDFT=  3500011 ScaDFX=  1.000000  1.000000  1.000000  1.000000
 FoFCou: FMM=F IPFlag=           0 FMFlag=      100000 FMFlg1=           0
         NFxFlg=           0 DoJE=T BraDBF=F KetDBF=T FulRan=T
         wScrn=  0.000000 ICntrl=       500 IOpCl=  0 I1Cent=   200000004 NGrid=           0
         NMat0=    1 NMatS0=      1 NMatT0=    0 NMatD0=    1 NMtDS0=    0 NMtDT0=    0
 Symmetry not used in FoFCou.
 Keep R1 ints in memory in canonical form, NReq=820134.
 Requested convergence on RMS density matrix=1.00D-08 within 128 cycles.
 Requested convergence on MAX density matrix=1.00D-06.
 Requested convergence on             energy=1.00D-06.
 No special actions if energy rises.
 SCF Done:  E(RHF) =  -40.1801855877     A.U. after    9 cycles
            NFock=  9  Conv=0.40D-09     -V/T= 1.9972

 **********************************************************************

            Population analysis using the SCF Density.

 **********************************************************************

 Alpha  occ. eigenvalues --  -11.20053  -0.95190  -0.54859  -0.54859  -0.54308
 Alpha virt. eigenvalues --    0.25752   0.32437   0.32879   0.32879   0.73496
 Alpha virt. eigenvalues --    0.73496   0.74326   1.22658   1.24522   1.24522
 Alpha virt. eigenvalues --    1.26775   1.33114
          Condensed to atoms (all electrons):
               1          2          3          4          5
     1  C    5.088531   0.383561   0.383561   0.383561   0.382757
     2  H    0.383561   0.545561  -0.028771  -0.028771  -0.027961
     3  H    0.383561  -0.028771   0.545561  -0.028771  -0.027961
     4  H    0.383561  -0.028771  -0.028771   0.545561  -0.027961
     5  H    0.382757  -0.027961  -0.027961  -0.027961   0.548301
 Mulliken charges:
               1
     1  C   -0.621969
     2  H    0.156381
     3  H    0.156381
     4  H    0.156381
     5  H    0.152825
     6  H    0.000000
     7  H    0.000000
     8  H    0.000000
 Sum of Mulliken charges =   0.00000
 Mulliken charges with hydrogens summed into heavy atoms:
               1
     1  C    0.000000
 Electronic spatial extent (au):  <R**2>=             47.9221
 Charge=              0.0000 electrons
 Dipole moment (field-independent basis, Debye):
    X=             -0.0062    Y=             -0.0087    Z=             -0.0151  Tot=              0.0185
 Quadrupole moment (field-independent basis, Debye-Ang):
   XX=             -8.3869   YY=             -8.3858   ZZ=             -8.3878
   XY=              0.0078   XZ=              0.0099   YZ=              0.0088
 Traceless Quadrupole moment (field-independent basis, Debye-Ang):
   XX=             -0.0001   YY=              0.0010   ZZ=             -0.0009
   XY=              0.0078   XZ=              0.0099   YZ=              0.0088
 Octapole moment (field-independent basis, Debye-Ang**2):
  XXX=             11.5112  YYY=              8.1953  ZZZ=             -0.0908  XYY=              4.4000
  XXY=              2.8879  XXZ=             -0.0419  XZZ=              4.4120  YZZ=              3.3856
  YYZ=             -0.0346  XYZ=              0.0028
 Hexadecapole moment (field-independent basis, Debye-Ang**3):
 XXXX=            -25.3041 YYYY=            -20.3581 ZZZZ=            -15.1722 XXXY=             -3.9938
 XXXZ=              0.0055 YYYX=             -4.6156 YYYZ=             -0.0327 ZZZX=              0.0121
 ZZZY=             -0.0138 XXYY=             -8.4884 XXZZ=             -7.5255 YYZZ=             -6.3678
 XXYZ=             -0.0127 YYXZ=              0.0009 ZZXY=             -1.4929
 N-N= 1.361789919596D+01 E-N=-1.203041464446D+02  KE= 4.029336114273D+01
 SvSCFP is copying densities from files   528 and   530 to   603.
 ONIOM: saving gridpoint  1
 ONIOM: restoring gridpoint  3
 ONIOM: calculating energy.
 ONIOM: gridpoint  1 method:  low   system:  model energy:   -40.180185587651
 ONIOM: gridpoint  2 method:  high  system:  model energy:   -40.218368377984
 ONIOM: gridpoint  3 method:  low   system:  real  energy:   -79.195951559005
 ONIOM: extrapolated energy =     -79.234134349338
 ONIOM: calculating electric field derivatives.
 ONIOM: Integrating ONIOM file  4 number   619
 ONIOM: Integrating ONIOM file  5 number   695
 Unable to Open any file for archive entry.
 1\1\GINC-R062\SP\ONIOM(MP2-FC/6-31G:HF/6-31G)\Mixed\C2H6\JLIU40\23-Mar
 -2025\0\\# oniom(mp2/6-31g:hf/6-31g) geom=connectivity\\Title Card Req
 uired\\0,1\C,0,-0.48611108,-0.34722222,0.\H,0,-0.12945666,-1.35603222,
 0.\H,0,-0.12943824,0.15717597,-0.8736515\H,0,-1.55611108,-0.34720903,0
 .\C,0,0.02723114,0.37873406,1.25740497\H,0,-0.32782521,1.38810715,1.25
 642745\H,0,-0.33103797,-0.12453438,2.13105486\H,0,1.09722933,0.3770273
 7,1.25838372\\Version=ES64L-G16RevC.01\HF=-40.1801856\MP2=-40.2183684\
 RMSD=3.956e-10\PG=D03 [C3(C1.C1),X(H6)]\\@
 The archive entry for this job was punched.


 WHERE THERE IS MUCH DESIRE TO LEARN, THERE OF NECESSITY WILL BE
 MUCH ARGUING, MUCH WRITING, MANY OPINIONS; FOR OPINION IN GOOD MEN
 IS BUT KNOWLEDGE IN THE MAKING. -- JOHN MILTON.
 Job cpu time:       0 days  0 hours  0 minutes  1.9 seconds.
 Elapsed time:       0 days  0 hours  0 minutes  2.1 seconds.
 File lengths (MBytes):  RWF=      6 Int=      0 D2E=      0 Chk=      1 Scr=      1
 Normal termination of Gaussian 16 at Sun Mar 23 11:48:41 2025.
