 Entering Gaussian System, Link 0=/project/xlzhang/shared/bin/g16/g16
 Input=/users/s1155246976/scratch/collidine_opt_sp_smd_water/collidine_opt_sp_smd_water.com
 Output=/users/s1155246976/scratch/collidine_opt_sp_smd_water/collidine_opt_sp_smd_water.log
 Initial command:
 /project/xlzhang/shared/bin/g16/l1.exe "/ss02/scratch/s1/xlzhang/jingyi/collidine_opt_sp_smd_water/Gau-1074813.inp" -scrdir="/ss02/scratch/s1/xlzhang/jingyi/collidine_opt_sp_smd_water/"
 Entering Link 1 = /project/xlzhang/shared/bin/g16/l1.exe PID=   1074814.
  
 Copyright (c) 1988-2017, Gaussian, Inc.  All Rights Reserved.
  
 This is part of the Gaussian(R) 16 program.  It is based on
 the Gaussian(R) 09 system (copyright 2009, Gaussian, Inc.),
 the Gaussian(R) 03 system (copyright 2003, Gaussian, Inc.),
 the Gaussian(R) 98 system (copyright 1998, Gaussian, Inc.),
 the Gaussian(R) 94 system (copyright 1995, Gaussian, Inc.),
 the Gaussian 92(TM) system (copyright 1992, Gaussian, Inc.),
 the Gaussian 90(TM) system (copyright 1990, Gaussian, Inc.),
 the Gaussian 88(TM) system (copyright 1988, Gaussian, Inc.),
 the Gaussian 86(TM) system (copyright 1986, Carnegie Mellon
 University), and the Gaussian 82(TM) system (copyright 1983,
 Carnegie Mellon University). Gaussian is a federally registered
 trademark of Gaussian, Inc.
  
 This software contains proprietary and confidential information,
 including trade secrets, belonging to Gaussian, Inc.
  
 This software is provided under written license and may be
 used, copied, transmitted, or stored only in accord with that
 written license.
  
 The following legend is applicable only to US Government
 contracts under FAR:
  
                    RESTRICTED RIGHTS LEGEND
  
 Use, reproduction and disclosure by the US Government is
 subject to restrictions as set forth in subparagraphs (a)
 and (c) of the Commercial Computer Software - Restricted
 Rights clause in FAR 52.227-19.
  
 Gaussian, Inc.
 340 Quinnipiac St., Bldg. 40, Wallingford CT 06492
  
  
 ---------------------------------------------------------------
 Warning -- This program may not be used in any manner that
 competes with the business of Gaussian, Inc. or will provide
 assistance to any competitor of Gaussian, Inc.  The licensee
 of this program is prohibited from giving any competitor of
 Gaussian, Inc. access to this program.  By using this program,
 the user acknowledges that Gaussian, Inc. is engaged in the
 business of creating and licensing software in the field of
 computational chemistry and represents and warrants to the
 licensee that it is not a competitor of Gaussian, Inc. and that
 it will not use this program in any manner prohibited above.
 ---------------------------------------------------------------
  

 Cite this work as:
 Gaussian 16, Revision B.01,
 M. J. Frisch, G. W. Trucks, H. B. Schlegel, G. E. Scuseria, 
 M. A. Robb, J. R. Cheeseman, G. Scalmani, V. Barone, 
 G. A. Petersson, H. Nakatsuji, X. Li, M. Caricato, A. V. Marenich, 
 J. Bloino, B. G. Janesko, R. Gomperts, B. Mennucci, H. P. Hratchian, 
 J. V. Ortiz, A. F. Izmaylov, J. L. Sonnenberg, D. Williams-Young, 
 F. Ding, F. Lipparini, F. Egidi, J. Goings, B. Peng, A. Petrone, 
 T. Henderson, D. Ranasinghe, V. G. Zakrzewski, J. Gao, N. Rega, 
 G. Zheng, W. Liang, M. Hada, M. Ehara, K. Toyota, R. Fukuda, 
 J. Hasegawa, M. Ishida, T. Nakajima, Y. Honda, O. Kitao, H. Nakai, 
 T. Vreven, K. Throssell, J. A. Montgomery, Jr., J. E. Peralta, 
 F. Ogliaro, M. J. Bearpark, J. J. Heyd, E. N. Brothers, K. N. Kudin, 
 V. N. Staroverov, T. A. Keith, R. Kobayashi, J. Normand, 
 K. Raghavachari, A. P. Rendell, J. C. Burant, S. S. Iyengar, 
 J. Tomasi, M. Cossi, J. M. Millam, M. Klene, C. Adamo, R. Cammi, 
 J. W. Ochterski, R. L. Martin, K. Morokuma, O. Farkas, 
 J. B. Foresman, and D. J. Fox, Gaussian, Inc., Wallingford CT, 2016.
 
 ******************************************
 Gaussian 16:  ES64L-G16RevB.01 20-Dec-2017
                15-Jan-2026 
 ******************************************
 %chk=collidine_opt_sp_smd_water.chk
 %nprocshared=64
 Will use up to   64 processors via shared memory.
 %mem=180GB
 ----------------------------------------
 # mn15 def2qzvp scrf=(smd,solvent=water)
 ----------------------------------------
 1/38=1,172=1/1;
 2/12=2,17=6,18=5,40=1/2;
 3/5=45,7=101,11=2,25=1,30=1,70=32201,72=1,74=-73/1,2,3;
 4//1;
 5/5=2,38=5,53=1/2;
 6/7=2,8=2,9=2,10=2,28=1/1;
 99/5=1,9=1/99;
 ----------------------------------
 Gaussian job with default settings
 ----------------------------------
 Symbolic Z-matrix:
 Charge =  0 Multiplicity = 1
 C                    -0.70323  -1.15345  -0.00078 
 C                     0.69634  -1.19312   0.01004 
 C                     1.42503   0.        0.01208 
 C                     0.69634   1.19312   0.01004 
 C                    -0.70323   1.15345  -0.00078 
 N                    -1.379     0.       -0.00679 
 H                     1.2137   -2.1564    0.01943 
 H                     1.2137    2.1564    0.01943 
 C                     2.92834   0.       -0.00908 
 H                     3.33696  -0.89257   0.48499 
 H                     3.29935   0.       -1.04643 
 H                     3.33696   0.89257   0.48499 
 C                    -1.52333   2.41401  -0.00232 
 H                    -2.17939   2.43713   0.88022 
 H                    -0.895     3.31465  -0.00268 
 H                    -2.17826   2.43516  -0.88566 
 C                    -1.52333  -2.41401  -0.00232 
 H                    -0.895    -3.31465  -0.00268 
 H                    -2.17939  -2.43713   0.88022 
 H                    -2.17826  -2.43516  -0.88566 
 
                          Input orientation:                          
 ---------------------------------------------------------------------
 Center     Atomic      Atomic             Coordinates (Angstroms)
 Number     Number       Type             X           Y           Z
 ---------------------------------------------------------------------
      1          6           0       -0.703228   -1.153454   -0.000776
      2          6           0        0.696335   -1.193122    0.010040
      3          6           0        1.425033    0.000000    0.012084
      4          6           0        0.696335    1.193122    0.010040
      5          6           0       -0.703228    1.153454   -0.000776
      6          7           0       -1.378999    0.000000   -0.006791
      7          1           0        1.213698   -2.156405    0.019430
      8          1           0        1.213698    2.156405    0.019430
      9          6           0        2.928340    0.000000   -0.009082
     10          1           0        3.336961   -0.892574    0.484986
     11          1           0        3.299351    0.000000   -1.046426
     12          1           0        3.336961    0.892574    0.484986
     13          6           0       -1.523325    2.414014   -0.002317
     14          1           0       -2.179390    2.437128    0.880216
     15          1           0       -0.895004    3.314648   -0.002681
     16          1           0       -2.178255    2.435164   -0.885658
     17          6           0       -1.523326   -2.414014   -0.002317
     18          1           0       -0.895004   -3.314648   -0.002681
     19          1           0       -2.179391   -2.437128    0.880216
     20          1           0       -2.178255   -2.435164   -0.885658
 ---------------------------------------------------------------------
                    Distance matrix (angstroms):
                    1          2          3          4          5
     1  C    0.000000
     2  C    1.400167   0.000000
     3  C    2.420768   1.398050   0.000000
     4  C    2.732272   2.386244   1.398050   0.000000
     5  C    2.306908   2.732272   2.420768   1.400167   0.000000
     6  N    1.336847   2.393916   2.804096   2.393916   1.336847
     7  H    2.163544   1.093465   2.166748   3.389260   3.824942
     8  H    3.824942   3.389260   2.166748   1.093465   2.163544
     9  C    3.810356   2.530959   1.503456   2.530959   3.810356
    10  H    4.077640   2.699779   2.162358   3.398324   4.554703
    11  H    4.294704   3.052106   2.152559   3.052106   4.294704
    12  H    4.554703   3.398324   2.162358   2.699779   4.077640
    13  C    3.660518   4.235383   3.810576   2.533302   1.503853
    14  H    3.980889   4.712294   4.436791   3.251854   2.145465
    15  H    4.472216   4.780430   4.045946   2.652055   2.169687
    16  H    3.979560   4.714870   4.440681   3.257025   2.145111
    17  C    1.503853   2.533303   3.810576   4.235384   3.660518
    18  H    2.169687   2.652055   4.045946   4.780430   4.472216
    19  H    2.145466   3.251854   4.436791   4.712295   3.980890
    20  H    2.145111   3.257025   4.440681   4.714870   3.979560
                    6          7          8          9         10
     6  N    0.000000
     7  H    3.372365   0.000000
     8  H    3.372365   4.312810   0.000000
     9  C    4.307340   2.755157   2.755157   0.000000
    10  H    4.824812   2.514410   3.744497   1.098983   0.000000
    11  H    4.792473   3.183721   3.183721   1.101695   1.772943
    12  H    4.824812   3.744497   2.514410   1.098983   1.785148
    13  C    2.418329   5.327335   2.749205   5.064073   5.898590
    14  H    2.714222   5.775339   3.511809   5.728817   6.455482
    15  H    3.349800   5.863406   2.405959   5.060128   5.987325
    16  H    2.709472   5.779882   3.521681   5.725008   6.585599
    17  C    2.418329   2.749206   5.327335   5.064073   5.116115
    18  H    3.349800   2.405959   5.863406   5.060128   4.900387
    19  H    2.714222   3.511810   5.775340   5.728818   5.742124
    20  H    2.709472   3.521681   5.779882   5.725008   5.888621
                   11         12         13         14         15
    11  H    0.000000
    12  H    1.772943   0.000000
    13  C    5.493253   5.116114   0.000000
    14  H    6.298265   5.742123   1.099918   0.000000
    15  H    5.446917   4.900387   1.098148   1.788630   0.000000
    16  H    5.996669   5.888621   1.099851   1.765875   1.788819
    17  C    5.493254   5.898591   4.828028   4.974220   5.763016
    18  H    5.446917   5.987325   5.763016   5.959201   6.629296
    19  H    6.298266   6.455483   4.974220   4.874256   5.959202
    20  H    5.996669   6.585599   4.972298   5.182426   5.957073
                   16         17         18         19         20
    16  H    0.000000
    17  C    4.972298   0.000000
    18  H    5.957073   1.098149   0.000000
    19  H    5.182426   1.099918   1.788630   0.000000
    20  H    4.870328   1.099850   1.788819   1.765875   0.000000
 Stoichiometry    C8H11N
 Framework group  C1[X(C8H11N)]
 Deg. of freedom    54
 Full point group                 C1      NOp   1
 Largest Abelian subgroup         C1      NOp   1
 Largest concise Abelian subgroup C1      NOp   1
                         Standard orientation:                         
 ---------------------------------------------------------------------
 Center     Atomic      Atomic             Coordinates (Angstroms)
 Number     Number       Type             X           Y           Z
 ---------------------------------------------------------------------
      1          6           0        0.703229   -1.153453    0.000776
      2          6           0       -0.696334   -1.193123   -0.010040
      3          6           0       -1.425033   -0.000002   -0.012084
      4          6           0       -0.696337    1.193121   -0.010040
      5          6           0        0.703226    1.153455    0.000776
      6          7           0        1.378999    0.000002    0.006791
      7          1           0       -1.213695   -2.156407   -0.019430
      8          1           0       -1.213701    2.156403   -0.019430
      9          6           0       -2.928340   -0.000004    0.009082
     10          1           0       -3.336960   -0.892578   -0.484986
     11          1           0       -3.299351   -0.000004    1.046426
     12          1           0       -3.336962    0.892570   -0.484986
     13          6           0        1.523322    2.414016    0.002317
     14          1           0        2.179387    2.437131   -0.880216
     15          1           0        0.895000    3.314649    0.002681
     16          1           0        2.178252    2.435167    0.885658
     17          6           0        1.523329   -2.414012    0.002317
     18          1           0        0.895008   -3.314647    0.002681
     19          1           0        2.179394   -2.437125   -0.880216
     20          1           0        2.178258   -2.435161    0.885658
 ---------------------------------------------------------------------
 Rotational constants (GHZ):           1.8876331           1.7135389           0.9135385
 Standard basis: def2QZVP (5D, 7F)
 There are  1033 symmetry adapted cartesian basis functions of A   symmetry.
 There are   843 symmetry adapted basis functions of A   symmetry.
   843 basis functions,  1246 primitive gaussians,  1033 cartesian basis functions
    33 alpha electrons       33 beta electrons
       nuclear repulsion energy       423.6842815943 Hartrees.
 NAtoms=   20 NActive=   20 NUniq=   20 SFac= 1.00D+00 NAtFMM=   60 NAOKFM=F Big=F
 Integral buffers will be    131072 words long.
 Raffenetti 2 integral format.
 Two-electron integral symmetry is turned on.
 ------------------------------------------------------------------------------
 Polarizable Continuum Model (PCM)
 =================================
 Model                : PCM.
 Atomic radii         : SMD-Coulomb.
 Polarization charges : Total charges.
 Charge compensation  : None.
 Solution method      : On-the-fly selection.
 Cavity type          : VdW (van der Waals Surface) (Alpha=1.000).
 Cavity algorithm     : GePol (No added spheres)
                        Default sphere list used, NSphG=   20.
                        Lebedev-Laikov grids with approx.  5.0 points / Ang**2.
                        Smoothing algorithm: York/Karplus (Gamma=1.0000).
                        Polarization charges: spherical gaussians, with
                                              point-specific exponents (IZeta= 3).
                        Self-potential: point-specific (ISelfS= 7).
                        Self-field    : sphere-specific E.n sum rule (ISelfD= 2).
 Solvent              : Water, Eps=  78.355300 Eps(inf)=   1.777849
 ------------------------------------------------------------------------------
 Spheres list:
 ISph  on   Nord     Re0    Alpha      Xe            Ye            Ze
    1   C      1    1.8500  1.000      0.703229     -1.153453      0.000776
    2   C      2    1.8500  1.000     -0.696334     -1.193123     -0.010040
    3   C      3    1.8500  1.000     -1.425033     -0.000002     -0.012084
    4   C      4    1.8500  1.000     -0.696337      1.193121     -0.010040
    5   C      5    1.8500  1.000      0.703226      1.153455      0.000776
    6   N      6    1.8900  1.000      1.378999      0.000002      0.006791
    7   H      7    1.2000  1.000     -1.213695     -2.156407     -0.019430
    8   H      8    1.2000  1.000     -1.213701      2.156403     -0.019430
    9   C      9    1.8500  1.000     -2.928340     -0.000004      0.009082
   10   H     10    1.2000  1.000     -3.336960     -0.892578     -0.484986
   11   H     11    1.2000  1.000     -3.299351     -0.000004      1.046426
   12   H     12    1.2000  1.000     -3.336962      0.892570     -0.484986
   13   C     13    1.8500  1.000      1.523322      2.414016      0.002317
   14   H     14    1.2000  1.000      2.179387      2.437131     -0.880216
   15   H     15    1.2000  1.000      0.895000      3.314649      0.002681
   16   H     16    1.2000  1.000      2.178252      2.435167      0.885658
   17   C     17    1.8500  1.000      1.523329     -2.414012      0.002317
   18   H     18    1.2000  1.000      0.895008     -3.314647      0.002681
   19   H     19    1.2000  1.000      2.179394     -2.437125     -0.880216
   20   H     20    1.2000  1.000      2.178258     -2.435161      0.885658
 ------------------------------------------------------------------------------
 ------------------------------------------------------------------------------
 Atomic radii for non-electrostatic terms: SMD-CDS.
 ------------------------------------------------------------------------------
 Nuclear repulsion after PCM non-electrostatic terms =      423.6889152379 Hartrees.
 One-electron integrals computed using PRISM.
   1 Symmetry operations used in ECPInt.
 ECPInt:  NShTT=   34716 NPrTT=   82227 LenC2=   31719 LenP2D=   59865.
 LDataN:  DoStor=T MaxTD1= 8 Len=  415
 NBasis=   843 RedAO= T EigKep=  1.26D-05  NBF=   843
 NBsUse=   843 1.00D-06 EigRej= -1.00D+00 NBFU=   843
 ExpMin= 7.60D-02 ExpMax= 9.07D+04 ExpMxC= 8.76D+02 IAcc=3 IRadAn=         5 AccDes= 0.00D+00
 Harris functional with IExCor= 1009 and IRadAn=       5 diagonalized for initial guess.
 HarFok:  IExCor= 1009 AccDes= 0.00D+00 IRadAn=         5 IDoV= 1 UseB2=F ITyADJ=14
 ICtDFT=  3500011 ScaDFX=  1.000000  1.000000  1.000000  1.000000
 FoFCou: FMM=F IPFlag=           0 FMFlag=      100000 FMFlg1=           0
         NFxFlg=           0 DoJE=T BraDBF=F KetDBF=T FulRan=T
         wScrn=  0.000000 ICntrl=       500 IOpCl=  0 I1Cent=   200000004 NGrid=           0
         NMat0=    1 NMatS0=      1 NMatT0=    0 NMatD0=    1 NMtDS0=    0 NMtDT0=    0
 Petite list used in FoFCou.
 Requested convergence on RMS density matrix=1.00D-08 within 128 cycles.
 Requested convergence on MAX density matrix=1.00D-06.
 Requested convergence on             energy=1.00D-06.
 No special actions if energy rises.
 Inv3:  Mode=1 IEnd=     7235427.
 Iteration    1 A*A^-1 deviation from unit magnitude is 6.22D-15 for    314.
 Iteration    1 A*A^-1 deviation from orthogonality  is 2.27D-15 for    920    415.
 Iteration    1 A^-1*A deviation from unit magnitude is 6.22D-15 for    314.
 Iteration    1 A^-1*A deviation from orthogonality  is 2.92D-15 for   1109    325.
 Error on total polarization charges =  0.05226
 SCF Done:  E(RMN15) =  -366.130707230     A.U. after   13 cycles
            NFock= 13  Conv=0.23D-08     -V/T= 2.0057
 SMD-CDS (non-electrostatic) energy       (kcal/mol) =       2.91
 (included in total energy above)

 **********************************************************************

            Population analysis using the SCF Density.

 **********************************************************************

 Orbital symmetries:
       Occupied  (A) (A) (A) (A) (A) (A) (A) (A) (A) (A) (A) (A)
                 (A) (A) (A) (A) (A) (A) (A) (A) (A) (A) (A) (A)
                 (A) (A) (A) (A) (A) (A) (A) (A) (A)
       Virtual   (A) (A) (A) (A) (A) (A) (A) (A) (A) (A) (A) (A)
                 (A) (A) (A) (A) (A) (A) (A) (A) (A) (A) (A) (A)
                 (A) (A) (A) (A) (A) (A) (A) (A) (A) (A) (A) (A)
                 (A) (A) (A) (A) (A) (A) (A) (A) (A) (A) (A) (A)
                 (A) (A) (A) (A) (A) (A) (A) (A) (A) (A) (A) (A)
                 (A) (A) (A) (A) (A) (A) (A) (A) (A) (A) (A) (A)
                 (A) (A) (A) (A) (A) (A) (A) (A) (A) (A) (A) (A)
                 (A) (A) (A) (A) (A) (A) (A) (A) (A) (A) (A) (A)
                 (A) (A) (A) (A) (A) (A) (A) (A) (A) (A) (A) (A)
                 (A) (A) (A) (A) (A) (A) (A) (A) (A) (A) (A) (A)
                 (A) (A) (A) (A) (A) (A) (A) (A) (A) (A) (A) (A)
                 (A) (A) (A) (A) (A) (A) (A) (A) (A) (A) (A) (A)
                 (A) (A) (A) (A) (A) (A) (A) (A) (A) (A) (A) (A)
                 (A) (A) (A) (A) (A) (A) (A) (A) (A) (A) (A) (A)
                 (A) (A) (A) (A) (A) (A) (A) (A) (A) (A) (A) (A)
                 (A) (A) (A) (A) (A) (A) (A) (A) (A) (A) (A) (A)
                 (A) (A) (A) (A) (A) (A) (A) (A) (A) (A) (A) (A)
                 (A) (A) (A) (A) (A) (A) (A) (A) (A) (A) (A) (A)
                 (A) (A) (A) (A) (A) (A) (A) (A) (A) (A) (A) (A)
                 (A) (A) (A) (A) (A) (A) (A) (A) (A) (A) (A) (A)
                 (A) (A) (A) (A) (A) (A) (A) (A) (A) (A) (A) (A)
                 (A) (A) (A) (A) (A) (A) (A) (A) (A) (A) (A) (A)
                 (A) (A) (A) (A) (A) (A) (A) (A) (A) (A) (A) (A)
                 (A) (A) (A) (A) (A) (A) (A) (A) (A) (A) (A) (A)
                 (A) (A) (A) (A) (A) (A) (A) (A) (A) (A) (A) (A)
                 (A) (A) (A) (A) (A) (A) (A) (A) (A) (A) (A) (A)
                 (A) (A) (A) (A) (A) (A) (A) (A) (A) (A) (A) (A)
                 (A) (A) (A) (A) (A) (A) (A) (A) (A) (A) (A) (A)
                 (A) (A) (A) (A) (A) (A) (A) (A) (A) (A) (A) (A)
                 (A) (A) (A) (A) (A) (A) (A) (A) (A) (A) (A) (A)
                 (A) (A) (A) (A) (A) (A) (A) (A) (A) (A) (A) (A)
                 (A) (A) (A) (A) (A) (A) (A) (A) (A) (A) (A) (A)
                 (A) (A) (A) (A) (A) (A) (A) (A) (A) (A) (A) (A)
                 (A) (A) (A) (A) (A) (A) (A) (A) (A) (A) (A) (A)
                 (A) (A) (A) (A) (A) (A) (A) (A) (A) (A) (A) (A)
                 (A) (A) (A) (A) (A) (A) (A) (A) (A) (A) (A) (A)
                 (A) (A) (A) (A) (A) (A) (A) (A) (A) (A) (A) (A)
                 (A) (A) (A) (A) (A) (A) (A) (A) (A) (A) (A) (A)
                 (A) (A) (A) (A) (A) (A) (A) (A) (A) (A) (A) (A)
                 (A) (A) (A) (A) (A) (A) (A) (A) (A) (A) (A) (A)
                 (A) (A) (A) (A) (A) (A) (A) (A) (A) (A) (A) (A)
                 (A) (A) (A) (A) (A) (A) (A) (A) (A) (A) (A) (A)
                 (A) (A) (A) (A) (A) (A) (A) (A) (A) (A) (A) (A)
                 (A) (A) (A) (A) (A) (A) (A) (A) (A) (A) (A) (A)
                 (A) (A) (A) (A) (A) (A) (A) (A) (A) (A) (A) (A)
                 (A) (A) (A) (A) (A) (A) (A) (A) (A) (A) (A) (A)
                 (A) (A) (A) (A) (A) (A) (A) (A) (A) (A) (A) (A)
                 (A) (A) (A) (A) (A) (A) (A) (A) (A) (A) (A) (A)
                 (A) (A) (A) (A) (A) (A) (A) (A) (A) (A) (A) (A)
                 (A) (A) (A) (A) (A) (A) (A) (A) (A) (A) (A) (A)
                 (A) (A) (A) (A) (A) (A) (A) (A) (A) (A) (A) (A)
                 (A) (A) (A) (A) (A) (A) (A) (A) (A) (A) (A) (A)
                 (A) (A) (A) (A) (A) (A) (A) (A) (A) (A) (A) (A)
                 (A) (A) (A) (A) (A) (A) (A) (A) (A) (A) (A) (A)
                 (A) (A) (A) (A) (A) (A) (A) (A) (A) (A) (A) (A)
                 (A) (A) (A) (A) (A) (A) (A) (A) (A) (A) (A) (A)
                 (A) (A) (A) (A) (A) (A) (A) (A) (A) (A) (A) (A)
                 (A) (A) (A) (A) (A) (A) (A) (A) (A) (A) (A) (A)
                 (A) (A) (A) (A) (A) (A) (A) (A) (A) (A) (A) (A)
                 (A) (A) (A) (A) (A) (A) (A) (A) (A) (A) (A) (A)
                 (A) (A) (A) (A) (A) (A) (A) (A) (A) (A) (A) (A)
                 (A) (A) (A) (A) (A) (A) (A) (A) (A) (A) (A) (A)
                 (A) (A) (A) (A) (A) (A) (A) (A) (A) (A) (A) (A)
                 (A) (A) (A) (A) (A) (A) (A) (A) (A) (A) (A) (A)
                 (A) (A) (A) (A) (A) (A) (A) (A) (A) (A) (A) (A)
                 (A) (A) (A) (A) (A) (A) (A) (A) (A) (A) (A) (A)
                 (A) (A) (A) (A) (A) (A) (A) (A) (A) (A) (A) (A)
                 (A) (A) (A) (A) (A) (A)
 The electronic state is 1-A.
 Alpha  occ. eigenvalues --  -14.14482 -10.13490 -10.13489 -10.11717 -10.08980
 Alpha  occ. eigenvalues --  -10.08979 -10.08480 -10.08063 -10.08063  -0.98681
 Alpha  occ. eigenvalues --   -0.85681  -0.83376  -0.76047  -0.74007  -0.72052
 Alpha  occ. eigenvalues --   -0.63461  -0.61356  -0.53875  -0.52703  -0.48372
 Alpha  occ. eigenvalues --   -0.47301  -0.45092  -0.44784  -0.44061  -0.44033
 Alpha  occ. eigenvalues --   -0.42862  -0.40878  -0.40421  -0.39136  -0.37923
 Alpha  occ. eigenvalues --   -0.30508  -0.30141  -0.27834
 Alpha virt. eigenvalues --   -0.00336   0.01412   0.06855   0.09144   0.09285
 Alpha virt. eigenvalues --    0.11208   0.11864   0.12017   0.12621   0.14342
 Alpha virt. eigenvalues --    0.15226   0.15362   0.15909   0.16262   0.16511
 Alpha virt. eigenvalues --    0.17253   0.17537   0.18205   0.18769   0.19094
 Alpha virt. eigenvalues --    0.19943   0.20599   0.22706   0.23016   0.23493
 Alpha virt. eigenvalues --    0.24415   0.26070   0.28320   0.28939   0.29217
 Alpha virt. eigenvalues --    0.29737   0.30832   0.30972   0.32259   0.33259
 Alpha virt. eigenvalues --    0.33550   0.34177   0.35281   0.35703   0.35805
 Alpha virt. eigenvalues --    0.36522   0.36757   0.37221   0.38039   0.38233
 Alpha virt. eigenvalues --    0.38304   0.38764   0.38894   0.39306   0.40112
 Alpha virt. eigenvalues --    0.42645   0.43263   0.43882   0.43958   0.46519
 Alpha virt. eigenvalues --    0.47256   0.48551   0.49373   0.51459   0.51731
 Alpha virt. eigenvalues --    0.53050   0.53119   0.54675   0.54747   0.54850
 Alpha virt. eigenvalues --    0.57101   0.58696   0.59081   0.59886   0.61102
 Alpha virt. eigenvalues --    0.61870   0.63225   0.64652   0.64920   0.65455
 Alpha virt. eigenvalues --    0.65775   0.66038   0.66966   0.68510   0.68637
 Alpha virt. eigenvalues --    0.69180   0.70018   0.70792   0.71896   0.72692
 Alpha virt. eigenvalues --    0.73641   0.73932   0.74011   0.77326   0.78500
 Alpha virt. eigenvalues --    0.79458   0.80672   0.81452   0.82104   0.82940
 Alpha virt. eigenvalues --    0.83890   0.84129   0.85086   0.85324   0.86405
 Alpha virt. eigenvalues --    0.87243   0.87871   0.88480   0.88541   0.89178
 Alpha virt. eigenvalues --    0.89449   0.89825   0.89900   0.92061   0.92231
 Alpha virt. eigenvalues --    0.92898   0.94777   0.95666   0.95918   0.97365
 Alpha virt. eigenvalues --    0.97396   0.98536   0.99179   1.00187   1.01190
 Alpha virt. eigenvalues --    1.01544   1.04531   1.05863   1.06060   1.06397
 Alpha virt. eigenvalues --    1.06603   1.07556   1.08966   1.09554   1.09874
 Alpha virt. eigenvalues --    1.11347   1.11512   1.13792   1.13808   1.13945
 Alpha virt. eigenvalues --    1.15059   1.15625   1.15952   1.16824   1.17789
 Alpha virt. eigenvalues --    1.19557   1.19675   1.19848   1.19877   1.22723
 Alpha virt. eigenvalues --    1.23912   1.24914   1.27148   1.27218   1.31534
 Alpha virt. eigenvalues --    1.32345   1.32886   1.32967   1.34637   1.38257
 Alpha virt. eigenvalues --    1.38517   1.39561   1.42565   1.42694   1.42739
 Alpha virt. eigenvalues --    1.42928   1.44381   1.46183   1.47857   1.49992
 Alpha virt. eigenvalues --    1.51257   1.51538   1.52131   1.53956   1.55912
 Alpha virt. eigenvalues --    1.56021   1.57755   1.57996   1.60116   1.61476
 Alpha virt. eigenvalues --    1.64128   1.64252   1.67098   1.67881   1.69023
 Alpha virt. eigenvalues --    1.69097   1.70613   1.71347   1.75143   1.76712
 Alpha virt. eigenvalues --    1.78157   1.80184   1.81481   1.82048   1.82920
 Alpha virt. eigenvalues --    1.83440   1.83729   1.84094   1.85899   1.87028
 Alpha virt. eigenvalues --    1.87315   1.89073   1.89229   1.90444   1.90919
 Alpha virt. eigenvalues --    1.92418   1.93776   1.96103   1.96500   1.96763
 Alpha virt. eigenvalues --    1.97944   1.98556   1.98665   1.99237   2.01865
 Alpha virt. eigenvalues --    2.02582   2.02633   2.03039   2.03413   2.03902
 Alpha virt. eigenvalues --    2.06059   2.06880   2.08574   2.08991   2.09079
 Alpha virt. eigenvalues --    2.09764   2.11595   2.11667   2.12780   2.13120
 Alpha virt. eigenvalues --    2.13429   2.14404   2.14626   2.15204   2.15836
 Alpha virt. eigenvalues --    2.17000   2.17576   2.18644   2.18713   2.19904
 Alpha virt. eigenvalues --    2.19995   2.21437   2.22008   2.23691   2.24085
 Alpha virt. eigenvalues --    2.24882   2.25748   2.29413   2.29603   2.31168
 Alpha virt. eigenvalues --    2.31215   2.31646   2.32280   2.32448   2.33962
 Alpha virt. eigenvalues --    2.34625   2.36050   2.38550   2.38955   2.39950
 Alpha virt. eigenvalues --    2.40797   2.42476   2.44527   2.46838   2.46925
 Alpha virt. eigenvalues --    2.47763   2.48323   2.48710   2.48909   2.50822
 Alpha virt. eigenvalues --    2.51146   2.51711   2.53236   2.54806   2.54826
 Alpha virt. eigenvalues --    2.55075   2.55800   2.55863   2.57655   2.57849
 Alpha virt. eigenvalues --    2.60015   2.61810   2.62576   2.63269   2.63582
 Alpha virt. eigenvalues --    2.64804   2.64953   2.66533   2.68371   2.69529
 Alpha virt. eigenvalues --    2.72864   2.73255   2.73570   2.74231   2.74794
 Alpha virt. eigenvalues --    2.75582   2.76624   2.77094   2.79506   2.80288
 Alpha virt. eigenvalues --    2.81503   2.82052   2.83391   2.83818   2.83995
 Alpha virt. eigenvalues --    2.86040   2.86213   2.87553   2.87820   2.88007
 Alpha virt. eigenvalues --    2.89987   2.91545   2.92819   2.92831   2.94463
 Alpha virt. eigenvalues --    2.95220   2.95766   2.96718   2.98832   2.98847
 Alpha virt. eigenvalues --    3.00032   3.00629   3.01774   3.02013   3.05040
 Alpha virt. eigenvalues --    3.05114   3.06327   3.07024   3.08104   3.09621
 Alpha virt. eigenvalues --    3.11096   3.11503   3.11766   3.12913   3.14821
 Alpha virt. eigenvalues --    3.16897   3.17762   3.18883   3.19078   3.19484
 Alpha virt. eigenvalues --    3.24051   3.27484   3.27531   3.28378   3.29428
 Alpha virt. eigenvalues --    3.29436   3.31558   3.32261   3.33106   3.34077
 Alpha virt. eigenvalues --    3.36717   3.36882   3.38747   3.39249   3.40904
 Alpha virt. eigenvalues --    3.41108   3.41543   3.43977   3.45173   3.46593
 Alpha virt. eigenvalues --    3.47471   3.47505   3.48541   3.51029   3.51372
 Alpha virt. eigenvalues --    3.52518   3.53135   3.58546   3.59965   3.61051
 Alpha virt. eigenvalues --    3.61157   3.63012   3.64114   3.66088   3.68765
 Alpha virt. eigenvalues --    3.68984   3.71747   3.72280   3.75003   3.77089
 Alpha virt. eigenvalues --    3.77585   3.79293   3.81766   3.82860   3.84446
 Alpha virt. eigenvalues --    3.85810   3.85873   3.87733   3.87991   3.88422
 Alpha virt. eigenvalues --    3.89273   3.92107   3.94660   3.97877   4.03518
 Alpha virt. eigenvalues --    4.04162   4.06979   4.08974   4.12156   4.12980
 Alpha virt. eigenvalues --    4.15971   4.16872   4.20212   4.20612   4.22662
 Alpha virt. eigenvalues --    4.24875   4.29923   4.34713   4.35506   4.36111
 Alpha virt. eigenvalues --    4.36535   4.40665   4.49257   4.51151   4.51804
 Alpha virt. eigenvalues --    4.69462   4.70548   4.75356   4.76121   4.79766
 Alpha virt. eigenvalues --    4.81911   4.82374   4.83851   4.87367   4.88452
 Alpha virt. eigenvalues --    4.88774   4.91030   4.93330   4.97034   4.99037
 Alpha virt. eigenvalues --    4.99429   5.00279   5.01201   5.04743   5.07384
 Alpha virt. eigenvalues --    5.08250   5.10643   5.16296   5.16502   5.18078
 Alpha virt. eigenvalues --    5.18755   5.20239   5.21387   5.21480   5.23991
 Alpha virt. eigenvalues --    5.26456   5.28333   5.29601   5.32260   5.32673
 Alpha virt. eigenvalues --    5.33134   5.37021   5.37923   5.38780   5.40673
 Alpha virt. eigenvalues --    5.42472   5.44955   5.45816   5.47209   5.47437
 Alpha virt. eigenvalues --    5.48502   5.48647   5.52349   5.53334   5.54139
 Alpha virt. eigenvalues --    5.54730   5.56383   5.59175   5.60788   5.63682
 Alpha virt. eigenvalues --    5.63751   5.64004   5.66147   5.66750   5.67712
 Alpha virt. eigenvalues --    5.68522   5.69083   5.70663   5.71909   5.72542
 Alpha virt. eigenvalues --    5.73207   5.73470   5.74185   5.74858   5.76895
 Alpha virt. eigenvalues --    5.78585   5.78990   5.79916   5.80484   5.81306
 Alpha virt. eigenvalues --    5.82304   5.83650   5.84394   5.85050   5.85883
 Alpha virt. eigenvalues --    5.86891   5.87640   5.87838   5.88007   5.89126
 Alpha virt. eigenvalues --    5.89768   5.90311   5.91211   5.93232   5.94073
 Alpha virt. eigenvalues --    5.95597   5.96878   5.97165   5.97355   5.98476
 Alpha virt. eigenvalues --    6.00158   6.01333   6.03152   6.05150   6.06216
 Alpha virt. eigenvalues --    6.06235   6.07500   6.07617   6.08993   6.10162
 Alpha virt. eigenvalues --    6.10851   6.11535   6.12204   6.13109   6.13868
 Alpha virt. eigenvalues --    6.14312   6.15899   6.17952   6.18387   6.18761
 Alpha virt. eigenvalues --    6.19943   6.20335   6.21941   6.22955   6.23094
 Alpha virt. eigenvalues --    6.24122   6.26120   6.26852   6.27112   6.27560
 Alpha virt. eigenvalues --    6.28157   6.29041   6.30185   6.30378   6.33013
 Alpha virt. eigenvalues --    6.34004   6.35450   6.35961   6.36292   6.37898
 Alpha virt. eigenvalues --    6.38231   6.40651   6.41511   6.42554   6.43111
 Alpha virt. eigenvalues --    6.44067   6.45754   6.47145   6.48063   6.49148
 Alpha virt. eigenvalues --    6.51256   6.52178   6.54339   6.57071   6.59129
 Alpha virt. eigenvalues --    6.60467   6.63025   6.63051   6.63809   6.64888
 Alpha virt. eigenvalues --    6.68044   6.68640   6.70419   6.73448   6.76535
 Alpha virt. eigenvalues --    6.76753   6.77503   6.78533   6.79930   6.80975
 Alpha virt. eigenvalues --    6.81990   6.82220   6.84360   6.87630   6.88036
 Alpha virt. eigenvalues --    6.90233   6.91048   6.95304   6.96261   6.98585
 Alpha virt. eigenvalues --    6.99572   7.01331   7.06150   7.07143   7.08966
 Alpha virt. eigenvalues --    7.10249   7.12834   7.12969   7.14897   7.15920
 Alpha virt. eigenvalues --    7.16049   7.17034   7.17403   7.18109   7.18809
 Alpha virt. eigenvalues --    7.20876   7.22357   7.23725   7.25594   7.29839
 Alpha virt. eigenvalues --    7.30516   7.32800   7.35026   7.35087   7.35640
 Alpha virt. eigenvalues --    7.36058   7.36732   7.39662   7.41067   7.41262
 Alpha virt. eigenvalues --    7.42398   7.42709   7.43724   7.45564   7.47860
 Alpha virt. eigenvalues --    7.48383   7.48855   7.49231   7.50552   7.51149
 Alpha virt. eigenvalues --    7.52757   7.53558   7.54442   7.55838   7.56736
 Alpha virt. eigenvalues --    7.58464   7.58869   7.59780   7.60722   7.61907
 Alpha virt. eigenvalues --    7.62995   7.65016   7.65823   7.66953   7.68574
 Alpha virt. eigenvalues --    7.70714   7.71131   7.72994   7.73558   7.76600
 Alpha virt. eigenvalues --    7.78635   7.80998   7.81995   7.83948   7.85753
 Alpha virt. eigenvalues --    7.87684   7.88957   7.90562   7.91232   7.94991
 Alpha virt. eigenvalues --    7.95117   7.96703   7.97640   7.98861   7.99397
 Alpha virt. eigenvalues --    8.01155   8.01561   8.02293   8.03037   8.05280
 Alpha virt. eigenvalues --    8.06314   8.06424   8.09677   8.10037   8.10906
 Alpha virt. eigenvalues --    8.12125   8.12263   8.12694   8.13338   8.13424
 Alpha virt. eigenvalues --    8.14107   8.14421   8.15275   8.15665   8.18099
 Alpha virt. eigenvalues --    8.18959   8.20258   8.21963   8.22186   8.24365
 Alpha virt. eigenvalues --    8.24838   8.25599   8.26657   8.29292   8.30093
 Alpha virt. eigenvalues --    8.30318   8.30780   8.33971   8.35694   8.36075
 Alpha virt. eigenvalues --    8.36761   8.40650   8.41758   8.44414   8.45051
 Alpha virt. eigenvalues --    8.46235   8.49167   8.49709   8.54119   8.56835
 Alpha virt. eigenvalues --    8.57303   8.58087   8.60290   8.60731   8.62768
 Alpha virt. eigenvalues --    8.62972   8.63445   8.64479   8.65363   8.66539
 Alpha virt. eigenvalues --    8.68937   8.69474   8.72465   8.74425   8.75610
 Alpha virt. eigenvalues --    8.75656   8.76312   8.78141   8.82805   8.95003
 Alpha virt. eigenvalues --    8.99075   9.03316   9.04372   9.05294   9.08334
 Alpha virt. eigenvalues --    9.08797   9.14400   9.19121   9.27492   9.28920
 Alpha virt. eigenvalues --    9.29882   9.30789   9.32251   9.32950   9.39642
 Alpha virt. eigenvalues --    9.43045   9.45913   9.47441   9.48550   9.49129
 Alpha virt. eigenvalues --    9.49876   9.50812   9.52136   9.53637   9.54543
 Alpha virt. eigenvalues --    9.54935   9.56105   9.56695   9.58966   9.60653
 Alpha virt. eigenvalues --    9.61856   9.63393   9.68525   9.70936   9.71728
 Alpha virt. eigenvalues --    9.80932   9.83077   9.83970   9.85429   9.88736
 Alpha virt. eigenvalues --    9.90522   9.96389   9.96536  10.00025  10.02566
 Alpha virt. eigenvalues --   10.03564  10.05056  10.08947  10.10776  10.27419
 Alpha virt. eigenvalues --   10.30890  10.51221  10.52991  11.22373  11.23175
 Alpha virt. eigenvalues --   11.24293  11.33719  11.50961  11.53098  11.61905
 Alpha virt. eigenvalues --   11.62250  11.64944  12.00144  12.16346  12.55820
 Alpha virt. eigenvalues --   12.59528  12.61910  27.66266  27.99275  28.02030
 Alpha virt. eigenvalues --   28.40502  28.51294  28.63147  28.66049  28.69908
 Alpha virt. eigenvalues --   37.23186 136.35685 136.66882 136.67943 137.04047
 Alpha virt. eigenvalues --  137.17465 137.30784 137.33479 137.35991 183.30963
          Condensed to atoms (all electrons):
               1          2          3          4          5          6
     1  C    4.929833   0.426826  -0.054058  -0.040366  -0.116283   0.357891
     2  C    0.426826   5.312338   0.403624  -0.038036  -0.040366  -0.042809
     3  C   -0.054058   0.403624   5.013892   0.403624  -0.054058  -0.028634
     4  C   -0.040366  -0.038036   0.403624   5.312338   0.426826  -0.042809
     5  C   -0.116283  -0.040366  -0.054058   0.426826   4.929833   0.357891
     6  N    0.357891  -0.042809  -0.028634  -0.042809   0.357891   7.094657
     7  H   -0.045886   0.462500  -0.076611   0.005748   0.000201   0.007740
     8  H    0.000201   0.005748  -0.076611   0.462500  -0.045886   0.007740
     9  C    0.006416  -0.065870   0.335195  -0.065870   0.006416  -0.001967
    10  H   -0.000050  -0.002996  -0.053449   0.004463  -0.000819   0.000132
    11  H   -0.000442  -0.001550  -0.029844  -0.001550  -0.000442   0.000201
    12  H   -0.000819   0.004463  -0.053449  -0.002996  -0.000050   0.000132
    13  C    0.003052  -0.002385   0.009229  -0.080349   0.330414  -0.038543
    14  H    0.000342   0.000206  -0.000568   0.001245  -0.038489   0.000495
    15  H   -0.001699   0.000527   0.000183   0.011446  -0.057857   0.001495
    16  H    0.000318   0.000193  -0.000624   0.001095  -0.039042   0.000776
    17  C    0.330414  -0.080349   0.009229  -0.002385   0.003052  -0.038543
    18  H   -0.057857   0.011446   0.000183   0.000527  -0.001699   0.001495
    19  H   -0.038489   0.001245  -0.000568   0.000206   0.000342   0.000495
    20  H   -0.039042   0.001095  -0.000624   0.000193   0.000318   0.000776
               7          8          9         10         11         12
     1  C   -0.045886   0.000201   0.006416  -0.000050  -0.000442  -0.000819
     2  C    0.462500   0.005748  -0.065870  -0.002996  -0.001550   0.004463
     3  C   -0.076611  -0.076611   0.335195  -0.053449  -0.029844  -0.053449
     4  C    0.005748   0.462500  -0.065870   0.004463  -0.001550  -0.002996
     5  C    0.000201  -0.045886   0.006416  -0.000819  -0.000442  -0.000050
     6  N    0.007740   0.007740  -0.001967   0.000132   0.000201   0.000132
     7  H    0.516466   0.000113  -0.005514   0.003097   0.000266   0.000134
     8  H    0.000113   0.516466  -0.005514   0.000134   0.000266   0.003097
     9  C   -0.005514  -0.005514   4.854924   0.420026   0.404985   0.420026
    10  H    0.003097   0.000134   0.420026   0.573146  -0.023925  -0.022555
    11  H    0.000266   0.000266   0.404985  -0.023925   0.529197  -0.023925
    12  H    0.000134   0.003097   0.420026  -0.022555  -0.023925   0.573146
    13  C    0.000078  -0.009740  -0.000425   0.000025   0.000012  -0.000097
    14  H   -0.000009   0.000254   0.000041  -0.000001  -0.000003   0.000002
    15  H   -0.000006  -0.000667  -0.000003  -0.000001   0.000001   0.000008
    16  H   -0.000008   0.000220   0.000026  -0.000002   0.000000  -0.000003
    17  C   -0.009740   0.000078  -0.000425  -0.000097   0.000012   0.000025
    18  H   -0.000667  -0.000006  -0.000003   0.000008   0.000001  -0.000001
    19  H    0.000254  -0.000009   0.000041   0.000002  -0.000003  -0.000001
    20  H    0.000220  -0.000008   0.000026  -0.000003   0.000000  -0.000002
              13         14         15         16         17         18
     1  C    0.003052   0.000342  -0.001699   0.000318   0.330414  -0.057857
     2  C   -0.002385   0.000206   0.000527   0.000193  -0.080349   0.011446
     3  C    0.009229  -0.000568   0.000183  -0.000624   0.009229   0.000183
     4  C   -0.080349   0.001245   0.011446   0.001095  -0.002385   0.000527
     5  C    0.330414  -0.038489  -0.057857  -0.039042   0.003052  -0.001699
     6  N   -0.038543   0.000495   0.001495   0.000776  -0.038543   0.001495
     7  H    0.000078  -0.000009  -0.000006  -0.000008  -0.009740  -0.000667
     8  H   -0.009740   0.000254  -0.000667   0.000220   0.000078  -0.000006
     9  C   -0.000425   0.000041  -0.000003   0.000026  -0.000425  -0.000003
    10  H    0.000025  -0.000001  -0.000001  -0.000002  -0.000097   0.000008
    11  H    0.000012  -0.000003   0.000001   0.000000   0.000012   0.000001
    12  H   -0.000097   0.000002   0.000008  -0.000003   0.000025  -0.000001
    13  C    4.852650   0.409445   0.424508   0.409834  -0.000375   0.000024
    14  H    0.409445   0.555179  -0.023946  -0.031506   0.000008   0.000003
    15  H    0.424508  -0.023946   0.574181  -0.023793   0.000024   0.000002
    16  H    0.409834  -0.031506  -0.023793   0.556210   0.000008   0.000003
    17  C   -0.000375   0.000008   0.000024   0.000008   4.852650   0.424508
    18  H    0.000024   0.000003   0.000002   0.000003   0.424508   0.574182
    19  H    0.000008  -0.000094   0.000003   0.000054   0.409445  -0.023947
    20  H    0.000008   0.000054   0.000003  -0.000092   0.409833  -0.023793
              19         20
     1  C   -0.038489  -0.039042
     2  C    0.001245   0.001095
     3  C   -0.000568  -0.000624
     4  C    0.000206   0.000193
     5  C    0.000342   0.000318
     6  N    0.000495   0.000776
     7  H    0.000254   0.000220
     8  H   -0.000009  -0.000008
     9  C    0.000041   0.000026
    10  H    0.000002  -0.000003
    11  H   -0.000003   0.000000
    12  H   -0.000001  -0.000002
    13  C    0.000008   0.000008
    14  H   -0.000094   0.000054
    15  H    0.000003   0.000003
    16  H    0.000054  -0.000092
    17  C    0.409445   0.409833
    18  H   -0.023947  -0.023793
    19  H    0.555179  -0.031505
    20  H   -0.031505   0.556210
 Mulliken charges:
               1
     1  C    0.339698
     2  C   -0.355847
     3  C    0.253935
     4  C   -0.355847
     5  C    0.339699
     6  N   -0.638614
     7  H    0.141624
     8  H    0.141624
     9  C   -0.302530
    10  H    0.102863
    11  H    0.146745
    12  H    0.102863
    13  C   -0.307372
    14  H    0.127342
    15  H    0.095592
    16  H    0.126331
    17  C   -0.307372
    18  H    0.095592
    19  H    0.127343
    20  H    0.126332
 Sum of Mulliken charges =  -0.00000
 Mulliken charges with hydrogens summed into heavy atoms:
               1
     1  C    0.339698
     2  C   -0.214224
     3  C    0.253935
     4  C   -0.214224
     5  C    0.339699
     6  N   -0.638614
     9  C    0.049942
    13  C    0.041894
    17  C    0.041894
 Electronic spatial extent (au):  <R**2>=           1322.5471
 Charge=             -0.0000 electrons
 Dipole moment (field-independent basis, Debye):
    X=             -3.0881    Y=             -0.0000    Z=              0.0540  Tot=              3.0885
 Quadrupole moment (field-independent basis, Debye-Ang):
   XX=            -54.0064   YY=            -46.7737   ZZ=            -56.9556
   XY=             -0.0000   XZ=             -0.1796   YZ=             -0.0000
 Traceless Quadrupole moment (field-independent basis, Debye-Ang):
   XX=             -1.4278   YY=              5.8049   ZZ=             -4.3770
   XY=             -0.0000   XZ=             -0.1796   YZ=             -0.0000
 Octapole moment (field-independent basis, Debye-Ang**2):
  XXX=            -23.6994  YYY=              0.0000  ZZZ=              0.9473  XYY=              2.0282
  XXY=             -0.0000  XXZ=              0.3208  XZZ=              1.9690  YZZ=              0.0000
  YYZ=             -0.7091  XYZ=              0.0000
 Hexadecapole moment (field-independent basis, Debye-Ang**3):
 XXXX=           -909.1519 YYYY=           -793.6265 ZZZZ=            -84.0984 XXXY=             -0.0001
 XXXZ=             -1.1442 YYYX=              0.0000 YYYZ=             -0.0000 ZZZX=             -2.8978
 ZZZY=             -0.0000 XXYY=           -273.8033 XXZZ=           -159.1553 YYZZ=           -158.2860
 XXYZ=             -0.0000 YYXZ=              2.4566 ZZXY=              0.0000
 N-N= 4.236889152379D+02 E-N=-1.696731922067D+03  KE= 3.640397751691D+02
 1\1\GINC-CHPC-CN078\SP\RMN15\def2QZVP\C8H11N1\S1155246976\15-Jan-2026\
 0\\# mn15 def2qzvp scrf=(smd,solvent=water)\\Gaussian job with default
  settings\\0,1\C,0,-0.703228,-1.153454,-0.000776\C,0,0.696335,-1.19312
 2,0.01004\C,0,1.425033,0.,0.012084\C,0,0.696335,1.193122,0.01004\C,0,-
 0.703228,1.153454,-0.000776\N,0,-1.378999,0.,-0.006791\H,0,1.213698,-2
 .156405,0.01943\H,0,1.213698,2.156405,0.01943\C,0,2.92834,0.,-0.009082
 \H,0,3.336961,-0.892574,0.484986\H,0,3.299351,0.,-1.046426\H,0,3.33696
 1,0.892574,0.484986\C,0,-1.523325,2.414014,-0.002317\H,0,-2.17939,2.43
 7128,0.880216\H,0,-0.895004,3.314648,-0.002681\H,0,-2.178255,2.435164,
 -0.885658\C,0,-1.523326,-2.414014,-0.002317\H,0,-0.895004,-3.314648,-0
 .002681\H,0,-2.179391,-2.437128,0.880216\H,0,-2.178255,-2.435164,-0.88
 5658\\Version=ES64L-G16RevB.01\State=1-A\HF=-366.1307072\RMSD=2.341e-0
 9\Dipole=1.2149391,0.0000007,-0.0212524\Quadrupole=-1.0615598,4.315775
 3,-3.2542155,-0.0000006,-0.1335542,0.000001\PG=C01 [X(C8H11N1)]\\@


 Mondays are the potholes in the road of life.
                                -- Tom Wilson
 Job cpu time:       0 days  3 hours 45 minutes  0.5 seconds.
 Elapsed time:       0 days  0 hours  3 minutes 33.9 seconds.
 File lengths (MBytes):  RWF=    425 Int=      0 D2E=      0 Chk=     43 Scr=      2
 Normal termination of Gaussian 16 at Thu Jan 15 14:42:15 2026.
