 Entering Gaussian System, Link 0=/project/xlzhang/shared/bin/g16/g16
 Input=/users/s1155246976/scratch/collidine-H_opt/collidine-H_opt.com
 Output=/users/s1155246976/scratch/collidine-H_opt/collidine-H_opt.log
 Initial command:
 /project/xlzhang/shared/bin/g16/l1.exe "/lustre/scratch/xlzhang/jingyi/collidine-H_opt/Gau-2137564.inp" -scrdir="/lustre/scratch/xlzhang/jingyi/collidine-H_opt/"
 Entering Link 1 = /project/xlzhang/shared/bin/g16/l1.exe PID=   2137565.
  
 Copyright (c) 1988-2017, Gaussian, Inc.  All Rights Reserved.
  
 This is part of the Gaussian(R) 16 program.  It is based on
 the Gaussian(R) 09 system (copyright 2009, Gaussian, Inc.),
 the Gaussian(R) 03 system (copyright 2003, Gaussian, Inc.),
 the Gaussian(R) 98 system (copyright 1998, Gaussian, Inc.),
 the Gaussian(R) 94 system (copyright 1995, Gaussian, Inc.),
 the Gaussian 92(TM) system (copyright 1992, Gaussian, Inc.),
 the Gaussian 90(TM) system (copyright 1990, Gaussian, Inc.),
 the Gaussian 88(TM) system (copyright 1988, Gaussian, Inc.),
 the Gaussian 86(TM) system (copyright 1986, Carnegie Mellon
 University), and the Gaussian 82(TM) system (copyright 1983,
 Carnegie Mellon University). Gaussian is a federally registered
 trademark of Gaussian, Inc.
  
 This software contains proprietary and confidential information,
 including trade secrets, belonging to Gaussian, Inc.
  
 This software is provided under written license and may be
 used, copied, transmitted, or stored only in accord with that
 written license.
  
 The following legend is applicable only to US Government
 contracts under FAR:
  
                    RESTRICTED RIGHTS LEGEND
  
 Use, reproduction and disclosure by the US Government is
 subject to restrictions as set forth in subparagraphs (a)
 and (c) of the Commercial Computer Software - Restricted
 Rights clause in FAR 52.227-19.
  
 Gaussian, Inc.
 340 Quinnipiac St., Bldg. 40, Wallingford CT 06492
  
  
 ---------------------------------------------------------------
 Warning -- This program may not be used in any manner that
 competes with the business of Gaussian, Inc. or will provide
 assistance to any competitor of Gaussian, Inc.  The licensee
 of this program is prohibited from giving any competitor of
 Gaussian, Inc. access to this program.  By using this program,
 the user acknowledges that Gaussian, Inc. is engaged in the
 business of creating and licensing software in the field of
 computational chemistry and represents and warrants to the
 licensee that it is not a competitor of Gaussian, Inc. and that
 it will not use this program in any manner prohibited above.
 ---------------------------------------------------------------
  

 Cite this work as:
 Gaussian 16, Revision B.01,
 M. J. Frisch, G. W. Trucks, H. B. Schlegel, G. E. Scuseria, 
 M. A. Robb, J. R. Cheeseman, G. Scalmani, V. Barone, 
 G. A. Petersson, H. Nakatsuji, X. Li, M. Caricato, A. V. Marenich, 
 J. Bloino, B. G. Janesko, R. Gomperts, B. Mennucci, H. P. Hratchian, 
 J. V. Ortiz, A. F. Izmaylov, J. L. Sonnenberg, D. Williams-Young, 
 F. Ding, F. Lipparini, F. Egidi, J. Goings, B. Peng, A. Petrone, 
 T. Henderson, D. Ranasinghe, V. G. Zakrzewski, J. Gao, N. Rega, 
 G. Zheng, W. Liang, M. Hada, M. Ehara, K. Toyota, R. Fukuda, 
 J. Hasegawa, M. Ishida, T. Nakajima, Y. Honda, O. Kitao, H. Nakai, 
 T. Vreven, K. Throssell, J. A. Montgomery, Jr., J. E. Peralta, 
 F. Ogliaro, M. J. Bearpark, J. J. Heyd, E. N. Brothers, K. N. Kudin, 
 V. N. Staroverov, T. A. Keith, R. Kobayashi, J. Normand, 
 K. Raghavachari, A. P. Rendell, J. C. Burant, S. S. Iyengar, 
 J. Tomasi, M. Cossi, J. M. Millam, M. Klene, C. Adamo, R. Cammi, 
 J. W. Ochterski, R. L. Martin, K. Morokuma, O. Farkas, 
 J. B. Foresman, and D. J. Fox, Gaussian, Inc., Wallingford CT, 2016.
 
 ******************************************
 Gaussian 16:  ES64L-G16RevB.01 20-Dec-2017
                 2-Jan-2026 
 ******************************************
 %chk=collidine-H_opt.chk
 %nprocshared=64
 Will use up to   64 processors via shared memory.
 %mem=180GB
 -----------------------
 # opt freq mn15 def2svp
 -----------------------
 1/18=20,19=15,26=3,38=1/1,3;
 2/9=110,12=2,17=6,18=5,40=1/2;
 3/5=43,7=101,11=2,25=1,30=1,71=1,74=-73/1,2,3;
 4//1;
 5/5=2,38=5/2;
 6/7=2,8=2,9=2,10=2,28=1/1;
 7//1,2,3,16;
 1/18=20,19=15,26=3/3(2);
 2/9=110/2;
 99//99;
 2/9=110/2;
 3/5=43,7=101,11=2,25=1,30=1,71=1,74=-73/1,2,3;
 4/5=5,16=3,69=1/1;
 5/5=2,38=5/2;
 7//1,2,3,16;
 1/18=20,19=15,26=3/3(-5);
 2/9=110/2;
 6/7=2,8=2,9=2,10=2,19=2,28=1/1;
 99/9=1/99;
 ----------------------------------
 Gaussian job with default settings
 ----------------------------------
 Symbolic Z-matrix:
 Charge =  1 Multiplicity = 1
 C                     0.15113  -0.68508   0.00594 
 C                     1.55801  -0.68508   0.00594 
 C                     2.2247    0.54153   0.00594 
 C                     1.47063   1.71631   0.0057 
 C                     0.06742   1.61351   0.00556 
 N                    -0.59211   0.43856   0.00574 
 H                     2.11274  -1.63198   0.0062 
 H                     1.95466   2.70124   0.0056 
 C                     3.76369   0.59725   0.00461 
 H                     4.1519   -0.25506   0.52206 
 H                     4.11981   0.59464  -1.00439 
 H                     4.08866   1.49089   0.49522 
 C                    -0.81552   2.87525   0.00544 
 H                    -0.61328   3.45219   0.88359 
 H                    -0.60026   3.46114  -0.86364 
 H                    -1.84651   2.58911  -0.0037 
 C                    -0.63735  -2.00792   0.00611 
 H                    -0.31558  -2.61503  -0.81412 
 H                    -0.46192  -2.52758   0.92484 
 H                    -1.68238  -1.80025  -0.09228 
 H                    -1.59144   0.40212   0.00573 
 

 GradGradGradGradGradGradGradGradGradGradGradGradGradGradGradGradGradGrad
 Berny optimization.
 Initialization pass.
                           ----------------------------
                           !    Initial Parameters    !
                           ! (Angstroms and Degrees)  !
 --------------------------                            --------------------------
 ! Name  Definition              Value          Derivative Info.                !
 --------------------------------------------------------------------------------
 ! R1    R(1,2)                  1.4069         estimate D2E/DX2                !
 ! R2    R(1,6)                  1.3472         estimate D2E/DX2                !
 ! R3    R(1,17)                 1.54           estimate D2E/DX2                !
 ! R4    R(2,3)                  1.3961         estimate D2E/DX2                !
 ! R5    R(2,7)                  1.0974         estimate D2E/DX2                !
 ! R6    R(3,4)                  1.396          estimate D2E/DX2                !
 ! R7    R(3,9)                  1.54           estimate D2E/DX2                !
 ! R8    R(4,5)                  1.407          estimate D2E/DX2                !
 ! R9    R(4,8)                  1.0974         estimate D2E/DX2                !
 ! R10   R(5,6)                  1.3474         estimate D2E/DX2                !
 ! R11   R(5,13)                 1.54           estimate D2E/DX2                !
 ! R12   R(6,21)                 1.0            estimate D2E/DX2                !
 ! R13   R(9,10)                 1.07           estimate D2E/DX2                !
 ! R14   R(9,11)                 1.07           estimate D2E/DX2                !
 ! R15   R(9,12)                 1.07           estimate D2E/DX2                !
 ! R16   R(13,14)                1.07           estimate D2E/DX2                !
 ! R17   R(13,15)                1.07           estimate D2E/DX2                !
 ! R18   R(13,16)                1.07           estimate D2E/DX2                !
 ! R19   R(17,18)                1.07           estimate D2E/DX2                !
 ! R20   R(17,19)                1.07           estimate D2E/DX2                !
 ! R21   R(17,20)                1.07           estimate D2E/DX2                !
 ! A1    A(2,1,6)              123.4828         estimate D2E/DX2                !
 ! A2    A(2,1,17)             120.7972         estimate D2E/DX2                !
 ! A3    A(6,1,17)             115.72           estimate D2E/DX2                !
 ! A4    A(1,2,3)              118.5252         estimate D2E/DX2                !
 ! A5    A(1,2,7)              120.3635         estimate D2E/DX2                !
 ! A6    A(3,2,7)              121.1114         estimate D2E/DX2                !
 ! A7    A(2,3,4)              118.7792         estimate D2E/DX2                !
 ! A8    A(2,3,9)              120.5988         estimate D2E/DX2                !
 ! A9    A(4,3,9)              120.6219         estimate D2E/DX2                !
 ! A10   A(3,4,5)              118.5054         estimate D2E/DX2                !
 ! A11   A(3,4,8)              121.1328         estimate D2E/DX2                !
 ! A12   A(5,4,8)              120.3618         estimate D2E/DX2                !
 ! A13   A(4,5,6)              123.4969         estimate D2E/DX2                !
 ! A14   A(4,5,13)             120.7935         estimate D2E/DX2                !
 ! A15   A(6,5,13)             115.7097         estimate D2E/DX2                !
 ! A16   A(1,6,5)              117.2105         estimate D2E/DX2                !
 ! A17   A(1,6,21)             121.3947         estimate D2E/DX2                !
 ! A18   A(5,6,21)             121.3947         estimate D2E/DX2                !
 ! A19   A(3,9,10)             109.4712         estimate D2E/DX2                !
 ! A20   A(3,9,11)             109.4712         estimate D2E/DX2                !
 ! A21   A(3,9,12)             109.4712         estimate D2E/DX2                !
 ! A22   A(10,9,11)            109.4713         estimate D2E/DX2                !
 ! A23   A(10,9,12)            109.4712         estimate D2E/DX2                !
 ! A24   A(11,9,12)            109.4712         estimate D2E/DX2                !
 ! A25   A(5,13,14)            109.4712         estimate D2E/DX2                !
 ! A26   A(5,13,15)            109.4712         estimate D2E/DX2                !
 ! A27   A(5,13,16)            109.4712         estimate D2E/DX2                !
 ! A28   A(14,13,15)           109.4713         estimate D2E/DX2                !
 ! A29   A(14,13,16)           109.4712         estimate D2E/DX2                !
 ! A30   A(15,13,16)           109.4712         estimate D2E/DX2                !
 ! A31   A(1,17,18)            109.4712         estimate D2E/DX2                !
 ! A32   A(1,17,19)            109.4712         estimate D2E/DX2                !
 ! A33   A(1,17,20)            109.4712         estimate D2E/DX2                !
 ! A34   A(18,17,19)           109.4713         estimate D2E/DX2                !
 ! A35   A(18,17,20)           109.4712         estimate D2E/DX2                !
 ! A36   A(19,17,20)           109.4712         estimate D2E/DX2                !
 ! D1    D(6,1,2,3)              0.01           estimate D2E/DX2                !
 ! D2    D(6,1,2,7)            179.9941         estimate D2E/DX2                !
 ! D3    D(17,1,2,3)          -179.9926         estimate D2E/DX2                !
 ! D4    D(17,1,2,7)            -0.0086         estimate D2E/DX2                !
 ! D5    D(2,1,6,5)             -0.001          estimate D2E/DX2                !
 ! D6    D(2,1,6,21)           179.999          estimate D2E/DX2                !
 ! D7    D(17,1,6,5)          -179.9985         estimate D2E/DX2                !
 ! D8    D(17,1,6,21)            0.0015         estimate D2E/DX2                !
 ! D9    D(2,1,17,18)          -54.4048         estimate D2E/DX2                !
 ! D10   D(2,1,17,19)           65.5952         estimate D2E/DX2                !
 ! D11   D(2,1,17,20)         -174.4048         estimate D2E/DX2                !
 ! D12   D(6,1,17,18)          125.5928         estimate D2E/DX2                !
 ! D13   D(6,1,17,19)         -114.4072         estimate D2E/DX2                !
 ! D14   D(6,1,17,20)            5.5928         estimate D2E/DX2                !
 ! D15   D(1,2,3,4)             -0.0113         estimate D2E/DX2                !
 ! D16   D(1,2,3,9)           -179.9425         estimate D2E/DX2                !
 ! D17   D(7,2,3,4)           -179.9952         estimate D2E/DX2                !
 ! D18   D(7,2,3,9)              0.0736         estimate D2E/DX2                !
 ! D19   D(2,3,4,5)              0.0043         estimate D2E/DX2                !
 ! D20   D(2,3,4,8)           -179.9944         estimate D2E/DX2                !
 ! D21   D(9,3,4,5)            179.9354         estimate D2E/DX2                !
 ! D22   D(9,3,4,8)             -0.0632         estimate D2E/DX2                !
 ! D23   D(2,3,9,10)           -30.9095         estimate D2E/DX2                !
 ! D24   D(2,3,9,11)            89.0905         estimate D2E/DX2                !
 ! D25   D(2,3,9,12)          -150.9095         estimate D2E/DX2                !
 ! D26   D(4,3,9,10)           149.1606         estimate D2E/DX2                !
 ! D27   D(4,3,9,11)           -90.8394         estimate D2E/DX2                !
 ! D28   D(4,3,9,12)            29.1606         estimate D2E/DX2                !
 ! D29   D(3,4,5,6)              0.0051         estimate D2E/DX2                !
 ! D30   D(3,4,5,13)           179.9933         estimate D2E/DX2                !
 ! D31   D(8,4,5,6)           -179.9962         estimate D2E/DX2                !
 ! D32   D(8,4,5,13)            -0.008          estimate D2E/DX2                !
 ! D33   D(4,5,6,1)             -0.0067         estimate D2E/DX2                !
 ! D34   D(4,5,6,21)           179.9933         estimate D2E/DX2                !
 ! D35   D(13,5,6,1)          -179.9955         estimate D2E/DX2                !
 ! D36   D(13,5,6,21)            0.0045         estimate D2E/DX2                !
 ! D37   D(4,5,13,14)          -60.5137         estimate D2E/DX2                !
 ! D38   D(4,5,13,15)           59.4864         estimate D2E/DX2                !
 ! D39   D(4,5,13,16)          179.4864         estimate D2E/DX2                !
 ! D40   D(6,5,13,14)          119.4755         estimate D2E/DX2                !
 ! D41   D(6,5,13,15)         -120.5245         estimate D2E/DX2                !
 ! D42   D(6,5,13,16)           -0.5245         estimate D2E/DX2                !
 --------------------------------------------------------------------------------
 Trust Radius=3.00D-01 FncErr=1.00D-07 GrdErr=1.00D-06 EigMax=2.50D+02 EigMin=1.00D-04
 Number of steps in this run=    109 maximum allowed number of steps=    126.
 GradGradGradGradGradGradGradGradGradGradGradGradGradGradGradGradGradGrad

                          Input orientation:                          
 ---------------------------------------------------------------------
 Center     Atomic      Atomic             Coordinates (Angstroms)
 Number     Number       Type             X           Y           Z
 ---------------------------------------------------------------------
      1          6           0        0.151131   -0.685079    0.005938
      2          6           0        1.558009   -0.685079    0.005938
      3          6           0        2.224700    0.541528    0.005938
      4          6           0        1.470627    1.716315    0.005697
      5          6           0        0.067425    1.613510    0.005556
      6          7           0       -0.592105    0.438559    0.005741
      7          1           0        2.112741   -1.631980    0.006202
      8          1           0        1.954663    2.701239    0.005596
      9          6           0        3.763691    0.597252    0.004607
     10          1           0        4.151899   -0.255059    0.522063
     11          1           0        4.119813    0.594639   -1.004387
     12          1           0        4.088659    1.490892    0.495221
     13          6           0       -0.815525    2.875255    0.005443
     14          1           0       -0.613275    3.452187    0.883591
     15          1           0       -0.600264    3.461136   -0.863640
     16          1           0       -1.846513    2.589108   -0.003700
     17          6           0       -0.637350   -2.007916    0.006108
     18          1           0       -0.315583   -2.615030   -0.814123
     19          1           0       -0.461922   -2.527581    0.924843
     20          1           0       -1.682384   -1.800253   -0.092277
     21          1           0       -1.591441    0.402122    0.005732
 ---------------------------------------------------------------------
                    Distance matrix (angstroms):
                    1          2          3          4          5
     1  C    0.000000
     2  C    1.406878   0.000000
     3  C    2.409202   1.396081   0.000000
     4  C    2.740030   2.402983   1.395977   0.000000
     5  C    2.300113   2.739590   2.408938   1.406963   0.000000
     6  N    1.347205   2.426016   2.818686   2.426422   1.347401
     7  H    2.178195   1.097428   2.176390   3.409309   3.836212
     8  H    3.836649   3.409470   2.176527   1.097436   2.178261
     9  C    3.833401   2.551354   1.540000   2.551558   3.833427
    10  H    4.056778   2.679472   2.148263   3.367814   4.521201
    11  H    4.290556   3.036655   2.148263   3.049035   4.298829
    12  H    4.525304   3.373194   2.148263   2.672927   4.052793
    13  C    3.689228   4.278976   3.832655   2.563129   1.540000
    14  H    4.297856   4.754127   4.158884   2.850719   2.148263
    15  H    4.302541   4.754514   4.154599   2.844070   2.148263
    16  H    3.835489   4.723469   4.557132   3.430054   2.148263
    17  C    1.540000   2.563103   3.832883   4.279423   3.689368
    18  H    2.148263   2.812038   4.133932   4.756385   4.324248
    19  H    2.148263   2.884323   4.181118   4.752917   4.274801
    20  H    2.148263   3.428323   4.556192   4.724121   3.837340
    21  H    2.053914   3.331823   3.818686   3.332171   2.054092
                    6          7          8          9         10
     6  N    0.000000
     7  H    3.406365   0.000000
     8  H    3.406721   4.336101   0.000000
     9  C    4.358686   2.774007   2.774769   0.000000
    10  H    4.822164   2.513999   3.719447   1.070000   0.000000
    11  H    4.821503   3.163457   3.185232   1.070000   1.747303
    12  H    4.822504   3.727697   2.501722   1.070000   1.747303
    13  C    2.446917   5.374933   2.775648   5.114539   5.894155
    14  H    3.138953   5.835215   2.815867   5.299160   6.048245
    15  H    3.145133   5.835825   2.803688   5.291482   6.189776
    16  H    2.489676   5.787346   3.802840   5.953314   6.659328
    17  C    2.446894   2.775667   5.375377   5.114299   5.125975
    18  H    3.173806   2.745192   5.838550   5.256382   5.226208
    19  H    3.108003   2.876611   5.833134   5.335467   5.158869
    20  H    2.492106   3.800129   5.788015   5.951230   6.066621
    21  H    1.000000   4.225936   4.226203   5.358686   5.803830
                   11         12         13         14         15
    11  H    0.000000
    12  H    1.747303   0.000000
    13  C    5.529785   5.119312   0.000000
    14  H    5.842274   5.109373   1.070000   0.000000
    15  H    5.524105   5.264443   1.070000   1.747303   0.000000
    16  H    6.369955   6.056506   1.070000   1.747303   1.747303
    17  C    5.515885   5.900513   4.886421   5.530216   5.537903
    18  H    5.478222   6.162007   5.573586   6.307295   6.083033
    19  H    5.870475   6.086089   5.491900   5.981825   6.251603
    20  H    6.342944   6.669462   4.756192   5.448251   5.426619
    21  H    5.803088   5.804184   2.591993   3.321195   3.331037
                   16         17         18         19         20
    16  H    0.000000
    17  C    4.753399   0.000000
    18  H    5.484850   1.070000   0.000000
    19  H    5.381430   1.070000   1.747303   0.000000
    20  H    4.393321   1.070000   1.747303   1.747303   0.000000
    21  H    2.201830   2.592022   3.376860   3.271657   2.206430
                   21
    21  H    0.000000
 Stoichiometry    C8H12N(1+)
 Framework group  C1[X(C8H12N)]
 Deg. of freedom    57
 Full point group                 C1      NOp   1
 Largest Abelian subgroup         C1      NOp   1
 Largest concise Abelian subgroup C1      NOp   1
                         Standard orientation:                         
 ---------------------------------------------------------------------
 Center     Atomic      Atomic             Coordinates (Angstroms)
 Number     Number       Type             X           Y           Z
 ---------------------------------------------------------------------
      1          6           0        0.665314   -1.150076   -0.000041
      2          6           0       -0.740632   -1.201278   -0.000288
      3          6           0       -1.451523    0.000253   -0.000579
      4          6           0       -0.740704    1.201705   -0.000371
      5          6           0        0.665309    1.150037    0.000031
      6          7           0        1.367164   -0.000133    0.000128
      7          1           0       -1.260535   -2.167740   -0.000516
      8          1           0       -1.260265    2.168361   -0.000495
      9          6           0       -2.991522   -0.000070    0.000474
     10          1           0       -3.348361   -0.866014   -0.516930
     11          1           0       -3.347496   -0.015505    1.009406
     12          1           0       -3.348709    0.881086   -0.490324
     13          6           0        1.501754    2.443080    0.000121
     14          1           0        1.278801    3.012151   -0.878145
     15          1           0        1.265156    3.020856    0.869083
     16          1           0        2.542471    2.194645    0.009486
     17          6           0        1.501415   -2.443341    0.000115
     18          1           0        1.201808   -3.061652    0.820376
     19          1           0        1.345182   -2.969169   -0.918578
     20          1           0        2.538181   -2.197769    0.098655
     21          1           0        2.367164   -0.000176    0.000318
 ---------------------------------------------------------------------
 Rotational constants (GHZ):           1.8602317           1.6643033           0.8927343
 Standard basis: def2SVP (5D, 7F)
 There are   195 symmetry adapted cartesian basis functions of A   symmetry.
 There are   186 symmetry adapted basis functions of A   symmetry.
   186 basis functions,   309 primitive gaussians,   195 cartesian basis functions
    33 alpha electrons       33 beta electrons
       nuclear repulsion energy       436.1119329198 Hartrees.
 NAtoms=   21 NActive=   21 NUniq=   21 SFac= 1.00D+00 NAtFMM=   60 NAOKFM=F Big=F
 Integral buffers will be    131072 words long.
 Raffenetti 2 integral format.
 Two-electron integral symmetry is turned on.
 One-electron integrals computed using PRISM.
   1 Symmetry operations used in ECPInt.
 ECPInt:  NShTT=    4095 NPrTT=   14349 LenC2=    4054 LenP2D=   11239.
 LDataN:  DoStor=T MaxTD1= 4 Len=   56
 NBasis=   186 RedAO= T EigKep=  6.09D-04  NBF=   186
 NBsUse=   186 1.00D-06 EigRej= -1.00D+00 NBFU=   186
 ExpMin= 1.22D-01 ExpMax= 1.71D+03 ExpMxC= 2.58D+02 IAcc=3 IRadAn=         5 AccDes= 0.00D+00
 Harris functional with IExCor= 1009 and IRadAn=       5 diagonalized for initial guess.
 HarFok:  IExCor= 1009 AccDes= 0.00D+00 IRadAn=         5 IDoV= 1 UseB2=F ITyADJ=14
 ICtDFT=  3500011 ScaDFX=  1.000000  1.000000  1.000000  1.000000
 FoFCou: FMM=F IPFlag=           0 FMFlag=      100000 FMFlg1=           0
         NFxFlg=           0 DoJE=T BraDBF=F KetDBF=T FulRan=T
         wScrn=  0.000000 ICntrl=       500 IOpCl=  0 I1Cent=   200000004 NGrid=           0
         NMat0=    1 NMatS0=      1 NMatT0=    0 NMatD0=    1 NMtDS0=    0 NMtDT0=    0
 Petite list used in FoFCou.
 Requested convergence on RMS density matrix=1.00D-08 within 128 cycles.
 Requested convergence on MAX density matrix=1.00D-06.
 Requested convergence on             energy=1.00D-06.
 No special actions if energy rises.
 Integral accuracy reduced to 1.0D-05 until final iterations.
 Initial convergence to 1.0D-05 achieved.  Increase integral accuracy.
 SCF Done:  E(RMN15) =  -365.826371157     A.U. after   14 cycles
            NFock= 14  Conv=0.35D-08     -V/T= 2.0130

 **********************************************************************

            Population analysis using the SCF Density.

 **********************************************************************

 Orbital symmetries:
       Occupied  (A) (A) (A) (A) (A) (A) (A) (A) (A) (A) (A) (A)
                 (A) (A) (A) (A) (A) (A) (A) (A) (A) (A) (A) (A)
                 (A) (A) (A) (A) (A) (A) (A) (A) (A)
       Virtual   (A) (A) (A) (A) (A) (A) (A) (A) (A) (A) (A) (A)
                 (A) (A) (A) (A) (A) (A) (A) (A) (A) (A) (A) (A)
                 (A) (A) (A) (A) (A) (A) (A) (A) (A) (A) (A) (A)
                 (A) (A) (A) (A) (A) (A) (A) (A) (A) (A) (A) (A)
                 (A) (A) (A) (A) (A) (A) (A) (A) (A) (A) (A) (A)
                 (A) (A) (A) (A) (A) (A) (A) (A) (A) (A) (A) (A)
                 (A) (A) (A) (A) (A) (A) (A) (A) (A) (A) (A) (A)
                 (A) (A) (A) (A) (A) (A) (A) (A) (A) (A) (A) (A)
                 (A) (A) (A) (A) (A) (A) (A) (A) (A) (A) (A) (A)
                 (A) (A) (A) (A) (A) (A) (A) (A) (A) (A) (A) (A)
                 (A) (A) (A) (A) (A) (A) (A) (A) (A) (A) (A) (A)
                 (A) (A) (A) (A) (A) (A) (A) (A) (A) (A) (A) (A)
                 (A) (A) (A) (A) (A) (A) (A) (A) (A)
 The electronic state is 1-A.
 Alpha  occ. eigenvalues --  -14.37031 -10.30224 -10.30214 -10.25923 -10.23838
 Alpha  occ. eigenvalues --  -10.23834 -10.21263 -10.21258 -10.19374  -1.22910
 Alpha  occ. eigenvalues --   -1.04626  -1.02038  -0.94014  -0.91610  -0.89917
 Alpha  occ. eigenvalues --   -0.84249  -0.83491  -0.76787  -0.73128  -0.68705
 Alpha  occ. eigenvalues --   -0.67426  -0.64124  -0.62673  -0.62504  -0.61403
 Alpha  occ. eigenvalues --   -0.61109  -0.60188  -0.59174  -0.58711  -0.55906
 Alpha  occ. eigenvalues --   -0.55629  -0.50707  -0.46442
 Alpha virt. eigenvalues --   -0.19906  -0.17298  -0.07551  -0.03065  -0.02031
 Alpha virt. eigenvalues --   -0.01163  -0.00080   0.00201   0.01205   0.03440
 Alpha virt. eigenvalues --    0.03694   0.05667   0.05789   0.06594   0.07000
 Alpha virt. eigenvalues --    0.09125   0.09484   0.11783   0.13047   0.14948
 Alpha virt. eigenvalues --    0.15649   0.20434   0.22551   0.24685   0.25259
 Alpha virt. eigenvalues --    0.26847   0.28871   0.29785   0.30486   0.32350
 Alpha virt. eigenvalues --    0.32672   0.33730   0.34363   0.36616   0.38419
 Alpha virt. eigenvalues --    0.41344   0.41769   0.46000   0.47624   0.47766
 Alpha virt. eigenvalues --    0.49401   0.49497   0.51336   0.53008   0.54670
 Alpha virt. eigenvalues --    0.55622   0.55902   0.56743   0.57051   0.57151
 Alpha virt. eigenvalues --    0.57666   0.58002   0.58335   0.59716   0.60558
 Alpha virt. eigenvalues --    0.61199   0.63273   0.63986   0.64307   0.66753
 Alpha virt. eigenvalues --    0.66949   0.70087   0.75187   0.84193   0.89026
 Alpha virt. eigenvalues --    0.93259   0.93868   0.97064   0.98298   1.02001
 Alpha virt. eigenvalues --    1.02237   1.04005   1.07313   1.11666   1.12592
 Alpha virt. eigenvalues --    1.19194   1.19597   1.29892   1.29941   1.33562
 Alpha virt. eigenvalues --    1.35678   1.38701   1.39800   1.40375   1.41058
 Alpha virt. eigenvalues --    1.41311   1.43666   1.50399   1.51199   1.52533
 Alpha virt. eigenvalues --    1.53574   1.55623   1.60852   1.60896   1.61531
 Alpha virt. eigenvalues --    1.63671   1.65199   1.65921   1.66204   1.66493
 Alpha virt. eigenvalues --    1.66905   1.66992   1.68815   1.73048   1.74471
 Alpha virt. eigenvalues --    1.77018   1.78619   1.84927   1.87463   1.89231
 Alpha virt. eigenvalues --    1.89737   1.90820   1.91160   1.93315   1.94220
 Alpha virt. eigenvalues --    1.97334   2.00199   2.03561   2.07809   2.07938
 Alpha virt. eigenvalues --    2.12254   2.13435   2.15423   2.16987   2.23282
 Alpha virt. eigenvalues --    2.25719   2.25921   2.27740   2.29762   2.33114
 Alpha virt. eigenvalues --    2.34752   2.36545   2.37820   2.45679   2.48632
 Alpha virt. eigenvalues --    2.49814   2.50774   2.58973   2.60556   2.62058
 Alpha virt. eigenvalues --    2.64320   2.72004   2.72134   2.74226   2.74519
 Alpha virt. eigenvalues --    2.75220   2.76766   2.77406   2.80344   2.85638
 Alpha virt. eigenvalues --    2.96871   3.06033   3.35346
          Condensed to atoms (all electrons):
               1          2          3          4          5          6
     1  C    5.057306   0.345681   0.049241  -0.084520  -0.026566   0.429582
     2  C    0.345681   5.078117   0.325632   0.035029  -0.084623  -0.039564
     3  C    0.049241   0.325632   5.019683   0.327321   0.049237  -0.027102
     4  C   -0.084520   0.035029   0.327321   5.077529   0.344580  -0.039543
     5  C   -0.026566  -0.084623   0.049237   0.344580   5.057963   0.430258
     6  N    0.429582  -0.039564  -0.027102  -0.039543   0.430258   5.948286
     7  H   -0.041636   0.427965  -0.042140   0.010723   0.000155   0.004013
     8  H    0.000157   0.010739  -0.041887   0.427922  -0.041773   0.004003
     9  C    0.009054  -0.066950   0.416390  -0.066986   0.009161  -0.000138
    10  H    0.001204  -0.008302  -0.011728   0.007122  -0.000644   0.000007
    11  H   -0.000264  -0.002585  -0.001159  -0.002338  -0.000280   0.000011
    12  H   -0.000638   0.007326  -0.011810  -0.008539   0.001207   0.000006
    13  C    0.009960  -0.000079   0.007783  -0.064477   0.401297  -0.057645
    14  H   -0.000193  -0.000063   0.000694  -0.007728  -0.002466   0.001304
    15  H   -0.000213  -0.000060   0.000832  -0.007868  -0.002736   0.001363
    16  H    0.000111   0.000148  -0.000833   0.011429  -0.014975  -0.007893
    17  C    0.401344  -0.064521   0.007828  -0.000083   0.009935  -0.057740
    18  H   -0.002392  -0.008650   0.000999  -0.000069  -0.000211   0.001795
    19  H   -0.002662  -0.006986   0.000523  -0.000054  -0.000191   0.000882
    20  H   -0.015026   0.011372  -0.000831   0.000148   0.000109  -0.007792
    21  H   -0.016074   0.008783  -0.000802   0.008776  -0.015901   0.356239
               7          8          9         10         11         12
     1  C   -0.041636   0.000157   0.009054   0.001204  -0.000264  -0.000638
     2  C    0.427965   0.010739  -0.066950  -0.008302  -0.002585   0.007326
     3  C   -0.042140  -0.041887   0.416390  -0.011728  -0.001159  -0.011810
     4  C    0.010723   0.427922  -0.066986   0.007122  -0.002338  -0.008539
     5  C    0.000155  -0.041773   0.009161  -0.000644  -0.000280   0.001207
     6  N    0.004013   0.004003  -0.000138   0.000007   0.000011   0.000006
     7  H    0.612531  -0.000182  -0.010494   0.003936   0.000597   0.000106
     8  H   -0.000182   0.612401  -0.010689   0.000111   0.000558   0.004084
     9  C   -0.010494  -0.010689   4.432981   0.389370   0.385801   0.389460
    10  H    0.003936   0.000111   0.389370   0.594509  -0.009584  -0.017676
    11  H    0.000597   0.000558   0.385801  -0.009584   0.558912  -0.009722
    12  H    0.000106   0.004084   0.389460  -0.017676  -0.009722   0.595578
    13  C    0.000013  -0.008530  -0.000114   0.000006   0.000008  -0.000002
    14  H   -0.000001   0.001209   0.000007  -0.000000   0.000000  -0.000006
    15  H   -0.000001   0.001166   0.000004  -0.000000  -0.000002   0.000002
    16  H   -0.000001   0.000293   0.000005  -0.000000  -0.000000   0.000000
    17  C   -0.008662   0.000013  -0.000115  -0.000002   0.000008   0.000006
    18  H    0.001412  -0.000001   0.000003   0.000003  -0.000002  -0.000000
    19  H    0.001016  -0.000001   0.000007  -0.000005   0.000000  -0.000000
    20  H    0.000294  -0.000001   0.000005  -0.000000  -0.000000  -0.000000
    21  H   -0.000119  -0.000120   0.000048  -0.000001  -0.000001  -0.000001
              13         14         15         16         17         18
     1  C    0.009960  -0.000193  -0.000213   0.000111   0.401344  -0.002392
     2  C   -0.000079  -0.000063  -0.000060   0.000148  -0.064521  -0.008650
     3  C    0.007783   0.000694   0.000832  -0.000833   0.007828   0.000999
     4  C   -0.064477  -0.007728  -0.007868   0.011429  -0.000083  -0.000069
     5  C    0.401297  -0.002466  -0.002736  -0.014975   0.009935  -0.000211
     6  N   -0.057645   0.001304   0.001363  -0.007893  -0.057740   0.001795
     7  H    0.000013  -0.000001  -0.000001  -0.000001  -0.008662   0.001412
     8  H   -0.008530   0.001209   0.001166   0.000293   0.000013  -0.000001
     9  C   -0.000114   0.000007   0.000004   0.000005  -0.000115   0.000003
    10  H    0.000006  -0.000000  -0.000000  -0.000000  -0.000002   0.000003
    11  H    0.000008   0.000000  -0.000002  -0.000000   0.000008  -0.000002
    12  H   -0.000002  -0.000006   0.000002   0.000000   0.000006  -0.000000
    13  C    4.449286   0.388123   0.388465   0.385438  -0.000119   0.000008
    14  H    0.388123   0.557191  -0.007623  -0.013749   0.000008   0.000000
    15  H    0.388465  -0.007623   0.557804  -0.013942   0.000009  -0.000000
    16  H    0.385438  -0.013749  -0.013942   0.617861   0.000006  -0.000000
    17  C   -0.000119   0.000008   0.000009   0.000006   4.449646   0.388751
    18  H    0.000008   0.000000  -0.000000  -0.000000   0.388751   0.559924
    19  H    0.000009  -0.000001   0.000000  -0.000000   0.387752  -0.007597
    20  H    0.000006   0.000001  -0.000001  -0.000063   0.385524  -0.014373
    21  H   -0.013820   0.000100   0.000110   0.007561  -0.013714   0.000078
              19         20         21
     1  C   -0.002662  -0.015026  -0.016074
     2  C   -0.006986   0.011372   0.008783
     3  C    0.000523  -0.000831  -0.000802
     4  C   -0.000054   0.000148   0.008776
     5  C   -0.000191   0.000109  -0.015901
     6  N    0.000882  -0.007792   0.356239
     7  H    0.001016   0.000294  -0.000119
     8  H   -0.000001  -0.000001  -0.000120
     9  C    0.000007   0.000005   0.000048
    10  H   -0.000005  -0.000000  -0.000001
    11  H    0.000000  -0.000000  -0.000001
    12  H   -0.000000  -0.000000  -0.000001
    13  C    0.000009   0.000006  -0.013820
    14  H   -0.000001   0.000001   0.000100
    15  H    0.000000  -0.000001   0.000110
    16  H   -0.000000  -0.000063   0.007561
    17  C    0.387752   0.385524  -0.013714
    18  H   -0.007597  -0.014373   0.000078
    19  H    0.555354  -0.013336   0.000144
    20  H   -0.013336   0.617128   0.007506
    21  H    0.000144   0.007506   0.503562
 Mulliken charges:
               1
     1  C   -0.113456
     2  C    0.031593
     3  C   -0.067873
     4  C    0.031628
     5  C   -0.113536
     6  N    0.059670
     7  H    0.040475
     8  H    0.040526
     9  C    0.123190
    10  H    0.051676
    11  H    0.080041
    12  H    0.050620
    13  C    0.114383
    14  H    0.083191
    15  H    0.082692
    16  H    0.028606
    17  C    0.114126
    18  H    0.080324
    19  H    0.085144
    20  H    0.029331
    21  H    0.167647
 Sum of Mulliken charges =   1.00000
 Mulliken charges with hydrogens summed into heavy atoms:
               1
     1  C   -0.113456
     2  C    0.072068
     3  C   -0.067873
     4  C    0.072155
     5  C   -0.113536
     6  N    0.227317
     9  C    0.305527
    13  C    0.308872
    17  C    0.308926
 Electronic spatial extent (au):  <R**2>=           1326.3992
 Charge=              1.0000 electrons
 Dipole moment (field-independent basis, Debye):
    X=              1.7713    Y=             -0.0002    Z=              0.0493  Tot=              1.7720
 Quadrupole moment (field-independent basis, Debye-Ang):
   XX=            -31.1323   YY=            -34.7378   ZZ=            -53.6389
   XY=              0.0093   XZ=             -0.2747   YZ=              0.0364
 Traceless Quadrupole moment (field-independent basis, Debye-Ang):
   XX=              8.7040   YY=              5.0986   ZZ=            -13.8026
   XY=              0.0093   XZ=             -0.2747   YZ=              0.0364
 Octapole moment (field-independent basis, Debye-Ang**2):
  XXX=              3.0076  YYY=              0.0536  ZZZ=              0.5230  XYY=             11.6319
  XXY=             -0.0646  XXZ=              0.8512  XZZ=              1.3595  YZZ=             -0.0106
  YYZ=             -0.6044  XYZ=              0.1496
 Hexadecapole moment (field-independent basis, Debye-Ang**3):
 XXXX=           -723.2644 YYYY=           -672.2918 ZZZZ=            -71.3165 XXXY=              0.0721
 XXXZ=             -2.2715 YYYX=             -0.0176 YYYZ=             -0.2321 ZZZX=             -3.1600
 ZZZY=              0.5826 XXYY=           -242.0369 XXZZ=           -154.4917 YYZZ=           -135.3944
 XXYZ=              0.0992 YYXZ=              1.3797 ZZXY=              0.0754
 N-N= 4.361119329198D+02 E-N=-1.705521324134D+03  KE= 3.611462891263D+02
   1 Symmetry operations used in ECPInt.
 ECPInt:  NShTT=    4095 NPrTT=   14349 LenC2=    4054 LenP2D=   11239.
 LDataN:  DoStor=T MaxTD1= 5 Len=  102
 Calling FoFJK, ICntrl=      2127 FMM=F ISym2X=0 I1Cent= 0 IOpClX= 0 NMat=1 NMatS=1 NMatT=0.
 ***** Axes restored to original set *****
 -------------------------------------------------------------------
 Center     Atomic                   Forces (Hartrees/Bohr)
 Number     Number              X              Y              Z
 -------------------------------------------------------------------
      1        6          -0.006071035   -0.057348771   -0.000655117
      2        6          -0.024728614    0.006782342   -0.000228045
      3        6           0.034560996    0.001240274   -0.000168523
      4        6          -0.024199858   -0.008631847   -0.000326457
      5        6          -0.010473966    0.056552800   -0.000224093
      6        7           0.061313291    0.002443276    0.000162948
      7        1          -0.005020020    0.002797837    0.000155030
      8        1          -0.004793771   -0.003173212    0.000218422
      9        6          -0.045112961   -0.001382210    0.005631250
     10        1           0.009026126   -0.015911822    0.008079115
     11        1           0.007806752   -0.000074905   -0.020420383
     12        1           0.007872779    0.016680901    0.007576792
     13        6           0.023489066   -0.037217907   -0.000040691
     14        1           0.003457381    0.012347724    0.016168909
     15        1           0.003704002    0.012486922   -0.015927057
     16        1          -0.020390318   -0.002302099   -0.000158677
     17        6           0.020806664    0.038776193   -0.000709060
     18        1           0.005691754   -0.012764849   -0.014692119
     19        1           0.003111894   -0.011397436    0.017267095
     20        1          -0.020449642    0.000794562   -0.001732784
     21        1          -0.019600520   -0.000697772    0.000023445
 -------------------------------------------------------------------
 Cartesian Forces:  Max     0.061313291 RMS     0.019158221

 GradGradGradGradGradGradGradGradGradGradGradGradGradGradGradGradGradGrad
 Berny optimization.
 FormGI is forming the generalized inverse of G from B-inverse, IUseBI=4.
 Internal  Forces:  Max     0.028945808 RMS     0.009875996
 Search for a local minimum.
 Step number   1 out of a maximum of  109
 All quantities printed in internal units (Hartrees-Bohrs-Radians)
 Mixed Optimization -- RFO/linear search
 Second derivative matrix not updated -- first step.
 ITU=  0
     Eigenvalues ---    0.00237   0.00237   0.00237   0.01345   0.01443
     Eigenvalues ---    0.01474   0.02060   0.02063   0.02114   0.02135
     Eigenvalues ---    0.02295   0.02389   0.07243   0.07243   0.07243
     Eigenvalues ---    0.07243   0.07243   0.07243   0.16000   0.16000
     Eigenvalues ---    0.16000   0.16000   0.16000   0.16000   0.16000
     Eigenvalues ---    0.16000   0.16000   0.16000   0.16000   0.16000
     Eigenvalues ---    0.23476   0.23500   0.23543   0.25000   0.25000
     Eigenvalues ---    0.25000   0.28519   0.28519   0.28519   0.33967
     Eigenvalues ---    0.33968   0.37230   0.37230   0.37230   0.37230
     Eigenvalues ---    0.37230   0.37230   0.37230   0.37230   0.37230
     Eigenvalues ---    0.41202   0.43723   0.44502   0.46005   0.47688
     Eigenvalues ---    0.53459   0.54796
 RFO step:  Lambda=-2.81484101D-02 EMin= 2.36824159D-03
 Linear search not attempted -- first point.
 Iteration  1 RMS(Cart)=  0.03378870 RMS(Int)=  0.00062801
 Iteration  2 RMS(Cart)=  0.00098174 RMS(Int)=  0.00010112
 Iteration  3 RMS(Cart)=  0.00000059 RMS(Int)=  0.00010112
 Variable       Old X    -DE/DX   Delta X   Delta X   Delta X     New X
                                 (Linear)    (Quad)   (Total)
    R1        2.65861  -0.02294   0.00000  -0.04851  -0.04851   2.61011
    R2        2.54585   0.01033   0.00000   0.01719   0.01737   2.56322
    R3        2.91018  -0.01793   0.00000  -0.05721  -0.05721   2.85297
    R4        2.63821   0.00926   0.00000   0.01946   0.01929   2.65750
    R5        2.07384  -0.00495   0.00000  -0.01346  -0.01346   2.06038
    R6        2.63801   0.00926   0.00000   0.01945   0.01927   2.65729
    R7        2.91018  -0.02042   0.00000  -0.06517  -0.06517   2.84501
    R8        2.65877  -0.02291   0.00000  -0.04847  -0.04847   2.61031
    R9        2.07385  -0.00496   0.00000  -0.01349  -0.01349   2.06036
   R10        2.54622   0.01003   0.00000   0.01668   0.01686   2.56308
   R11        2.91018  -0.01791   0.00000  -0.05717  -0.05717   2.85301
   R12        1.88973   0.01961   0.00000   0.03884   0.03884   1.92856
   R13        2.02201   0.01986   0.00000   0.04959   0.04959   2.07159
   R14        2.02201   0.02185   0.00000   0.05457   0.05457   2.07658
   R15        2.02201   0.01980   0.00000   0.04944   0.04944   2.07144
   R16        2.02201   0.02058   0.00000   0.05139   0.05139   2.07340
   R17        2.02201   0.02052   0.00000   0.05124   0.05124   2.07325
   R18        2.02201   0.02026   0.00000   0.05060   0.05060   2.07261
   R19        2.02201   0.02022   0.00000   0.05049   0.05049   2.07249
   R20        2.02201   0.02087   0.00000   0.05212   0.05212   2.07413
   R21        2.02201   0.02029   0.00000   0.05066   0.05066   2.07267
    A1        2.15518  -0.02158   0.00000  -0.08157  -0.08140   2.07379
    A2        2.10831   0.00857   0.00000   0.03280   0.03271   2.14102
    A3        2.01970   0.01301   0.00000   0.04877   0.04868   2.06837
    A4        2.06865   0.00699   0.00000   0.02610   0.02593   2.09459
    A5        2.10074  -0.00652   0.00000  -0.02913  -0.02904   2.07169
    A6        2.11379  -0.00047   0.00000   0.00303   0.00311   2.11690
    A7        2.07309   0.00019   0.00000  -0.00011  -0.00047   2.07262
    A8        2.10485  -0.00012   0.00000  -0.00004   0.00013   2.10498
    A9        2.10525  -0.00007   0.00000   0.00014   0.00031   2.10556
   A10        2.06831   0.00708   0.00000   0.02640   0.02623   2.09454
   A11        2.11417  -0.00053   0.00000   0.00280   0.00288   2.11705
   A12        2.10071  -0.00655   0.00000  -0.02920  -0.02911   2.07160
   A13        2.15543  -0.02162   0.00000  -0.08178  -0.08160   2.07383
   A14        2.10824   0.00853   0.00000   0.03267   0.03258   2.14082
   A15        2.01951   0.01310   0.00000   0.04911   0.04902   2.06854
   A16        2.04571   0.02895   0.00000   0.11096   0.11130   2.15701
   A17        2.11874  -0.01446   0.00000  -0.05540  -0.05557   2.06317
   A18        2.11874  -0.01449   0.00000  -0.05557  -0.05574   2.06300
   A19        1.91063   0.00252   0.00000   0.01480   0.01469   1.92532
   A20        1.91063  -0.00063   0.00000  -0.00632  -0.00629   1.90434
   A21        1.91063   0.00263   0.00000   0.01554   0.01543   1.92606
   A22        1.91063  -0.00178   0.00000  -0.01258  -0.01256   1.89808
   A23        1.91063  -0.00098   0.00000   0.00073   0.00048   1.91112
   A24        1.91063  -0.00176   0.00000  -0.01218  -0.01215   1.89848
   A25        1.91063   0.00075   0.00000   0.00291   0.00285   1.91348
   A26        1.91063   0.00075   0.00000   0.00292   0.00286   1.91349
   A27        1.91063   0.00450   0.00000   0.02603   0.02592   1.93655
   A28        1.91063  -0.00191   0.00000  -0.01441  -0.01441   1.89622
   A29        1.91063  -0.00205   0.00000  -0.00879  -0.00890   1.90173
   A30        1.91063  -0.00204   0.00000  -0.00867  -0.00879   1.90185
   A31        1.91063   0.00085   0.00000   0.00354   0.00347   1.91410
   A32        1.91063   0.00068   0.00000   0.00248   0.00242   1.91306
   A33        1.91063   0.00445   0.00000   0.02577   0.02565   1.93628
   A34        1.91063  -0.00191   0.00000  -0.01435  -0.01435   1.89628
   A35        1.91063  -0.00202   0.00000  -0.00844  -0.00857   1.90207
   A36        1.91063  -0.00205   0.00000  -0.00900  -0.00910   1.90153
    D1        0.00018  -0.00001   0.00000  -0.00023  -0.00017   0.00001
    D2        3.14149  -0.00004   0.00000  -0.00103  -0.00096   3.14053
    D3       -3.14146   0.00019   0.00000   0.00432   0.00424  -3.13722
    D4       -0.00015   0.00015   0.00000   0.00352   0.00345   0.00330
    D5       -0.00002   0.00000   0.00000   0.00046   0.00041   0.00039
    D6        3.14158   0.00007   0.00000   0.00160   0.00154  -3.14007
    D7       -3.14157  -0.00019   0.00000  -0.00388  -0.00381   3.13781
    D8        0.00003  -0.00012   0.00000  -0.00274  -0.00268  -0.00265
    D9       -0.94954   0.00066   0.00000   0.00603   0.00599  -0.94355
   D10        1.14485  -0.00074   0.00000  -0.00786  -0.00799   1.13687
   D11       -3.04394  -0.00011   0.00000  -0.00158  -0.00167  -3.04561
   D12        2.19201   0.00084   0.00000   0.01024   0.01038   2.20239
   D13       -1.99678  -0.00056   0.00000  -0.00365  -0.00360  -2.00038
   D14        0.09761   0.00008   0.00000   0.00263   0.00272   0.10033
   D15       -0.00020   0.00001   0.00000  -0.00010  -0.00011  -0.00031
   D16       -3.14059   0.00029   0.00000   0.00648   0.00646  -3.13413
   D17       -3.14151   0.00005   0.00000   0.00071   0.00071  -3.14080
   D18        0.00128   0.00033   0.00000   0.00728   0.00728   0.00857
   D19        0.00007  -0.00002   0.00000   0.00016   0.00016   0.00023
   D20       -3.14149  -0.00005   0.00000  -0.00050  -0.00051   3.14118
   D21        3.14047  -0.00029   0.00000  -0.00641  -0.00642   3.13405
   D22       -0.00110  -0.00032   0.00000  -0.00708  -0.00708  -0.00819
   D23       -0.53947   0.00085   0.00000   0.00652   0.00663  -0.53285
   D24        1.55492  -0.00017   0.00000  -0.00369  -0.00370   1.55123
   D25       -2.63387  -0.00110   0.00000  -0.01296  -0.01307  -2.64694
   D26        2.60334   0.00113   0.00000   0.01322   0.01333   2.61667
   D27       -1.58545   0.00011   0.00000   0.00300   0.00300  -1.58244
   D28        0.50895  -0.00082   0.00000  -0.00626  -0.00637   0.50258
   D29        0.00009   0.00001   0.00000   0.00006   0.00005   0.00014
   D30        3.14148  -0.00004   0.00000  -0.00113  -0.00110   3.14037
   D31       -3.14153   0.00004   0.00000   0.00073   0.00070  -3.14083
   D32       -0.00014  -0.00001   0.00000  -0.00047  -0.00046  -0.00060
   D33       -0.00012  -0.00000   0.00000  -0.00037  -0.00035  -0.00047
   D34        3.14148  -0.00007   0.00000  -0.00151  -0.00149   3.13999
   D35       -3.14151   0.00005   0.00000   0.00077   0.00076  -3.14076
   D36        0.00008  -0.00002   0.00000  -0.00037  -0.00038  -0.00030
   D37       -1.05616   0.00072   0.00000   0.00738   0.00744  -1.04872
   D38        1.03823  -0.00069   0.00000  -0.00669  -0.00672   1.03152
   D39        3.13263   0.00002   0.00000   0.00042   0.00044   3.13307
   D40        2.08524   0.00067   0.00000   0.00625   0.00628   2.09152
   D41       -2.10355  -0.00074   0.00000  -0.00782  -0.00788  -2.11143
   D42       -0.00915  -0.00003   0.00000  -0.00071  -0.00073  -0.00988
         Item               Value     Threshold  Converged?
 Maximum Force            0.028946     0.000450     NO 
 RMS     Force            0.009876     0.000300     NO 
 Maximum Displacement     0.130369     0.001800     NO 
 RMS     Displacement     0.033579     0.001200     NO 
 Predicted change in Energy=-1.531622D-02
 GradGradGradGradGradGradGradGradGradGradGradGradGradGradGradGradGradGrad

                          Input orientation:                          
 ---------------------------------------------------------------------
 Center     Atomic      Atomic             Coordinates (Angstroms)
 Number     Number       Type             X           Y           Z
 ---------------------------------------------------------------------
      1          6           0        0.161239   -0.730029    0.003780
      2          6           0        1.541977   -0.694318    0.008918
      3          6           0        2.213626    0.541205    0.012676
      4          6           0        1.453578    1.724274    0.010712
      5          6           0        0.073818    1.658963    0.005462
      6          7           0       -0.523117    0.441067    0.002451
      7          1           0        2.090104   -1.636824    0.010993
      8          1           0        1.931247    2.704361    0.013857
      9          6           0        3.718145    0.595791    0.008615
     10          1           0        4.132038   -0.277763    0.525662
     11          1           0        4.075433    0.593307   -1.030556
     12          1           0        4.067793    1.511289    0.499714
     13          6           0       -0.800111    2.890051    0.004656
     14          1           0       -0.596631    3.487213    0.902340
     15          1           0       -0.577536    3.499580   -0.879988
     16          1           0       -1.862293    2.617073   -0.008559
     17          6           0       -0.620617   -2.021529    0.005112
     18          1           0       -0.290112   -2.654005   -0.827670
     19          1           0       -0.443095   -2.558639    0.945688
     20          1           0       -1.695507   -1.829154   -0.097792
     21          1           0       -1.542986    0.403850    0.000018
 ---------------------------------------------------------------------
                    Distance matrix (angstroms):
                    1          2          3          4          5
     1  C    0.000000
     2  C    1.381210   0.000000
     3  C    2.414210   1.406287   0.000000
     4  C    2.773769   2.420208   1.406176   0.000000
     5  C    2.390592   2.773704   2.414169   1.381315   0.000000
     6  N    1.356396   2.356641   2.738593   2.356695   1.356322
     7  H    2.131397   1.090305   2.181529   3.420840   3.863632
     8  H    3.863686   3.420903   2.181510   1.090297   2.131425
     9  C    3.795972   2.529840   1.505515   2.530166   3.796243
    10  H    4.030403   2.673753   2.148061   3.383411   4.526661
    11  H    4.259342   3.026034   2.134801   3.039318   4.268710
    12  H    4.531073   3.389001   2.148535   2.668071   4.027149
    13  C    3.745554   4.281717   3.820962   2.537358   1.509745
    14  H    4.378002   4.780904   4.167494   2.847158   2.143919
    15  H    4.383655   4.782392   4.164063   2.840859   2.143864
    16  H    3.911256   4.749176   4.574144   3.434015   2.160254
    17  C    1.509726   2.537384   3.821073   4.281748   3.745432
    18  H    2.143994   2.810125   4.145389   4.786718   4.407748
    19  H    2.143881   2.879886   4.187805   4.776494   4.351941
    20  H    2.160069   3.432280   4.572978   4.749249   3.912561
    21  H    2.046968   3.274607   3.759143   3.274604   2.046800
                    6          7          8          9         10
     6  N    0.000000
     7  H    3.338657   0.000000
     8  H    3.338642   4.344092   0.000000
     9  C    4.244088   2.763167   2.763892   0.000000
    10  H    4.739296   2.506277   3.741455   1.096240   0.000000
    11  H    4.715606   3.162252   3.185103   1.098880   1.784315
    12  H    4.740158   3.749762   2.494856   1.096160   1.790393
    13  C    2.464600   5.370846   2.737678   5.067374   5.884945
    14  H    3.177138   5.853956   2.791492   5.270328   6.056173
    15  H    3.183734   5.856005   2.779447   5.260654   6.198730
    16  H    2.555096   5.806674   3.794610   5.935247   6.678133
    17  C    2.464527   2.737891   5.370859   5.067074   5.089148
    18  H    3.212921   2.720927   5.861288   5.227492   5.199370
    19  H    3.145527   2.853156   5.848503   5.305135   5.129392
    20  H    2.557039   3.792055   5.806769   5.932901   6.062655
    21  H    1.020551   4.166991   4.166874   5.264638   5.739929
                   11         12         13         14         15
    11  H    0.000000
    12  H    1.784510   0.000000
    13  C    5.487953   5.083557   0.000000
    14  H    5.825716   5.081656   1.097197   0.000000
    15  H    5.488098   5.237934   1.097115   1.782473   0.000000
    16  H    6.355840   6.053677   1.096778   1.785715   1.785723
    17  C    5.473835   5.891233   4.914859   5.581382   5.591771
    18  H    5.444647   6.172759   5.629336   6.387601   6.160516
    19  H    5.852983   6.091906   5.540869   6.047957   6.328759
    20  H    6.327884   6.688138   4.804490   5.520104   5.500645
    21  H    5.715296   5.740814   2.594818   3.349164   3.360067
                   16         17         18         19         20
    16  H    0.000000
    17  C    4.801934   0.000000
    18  H    5.561201   1.096716   0.000000
    19  H    5.450936   1.097581   1.782497   0.000000
    20  H    4.450248   1.096807   1.785564   1.785927   0.000000
    21  H    2.236154   2.594852   3.406646   3.298544   2.240343
                   21
    21  H    0.000000
 Stoichiometry    C8H12N(1+)
 Framework group  C1[X(C8H12N)]
 Deg. of freedom    57
 Full point group                 C1      NOp   1
 Largest Abelian subgroup         C1      NOp   1
 Largest concise Abelian subgroup C1      NOp   1
                         Standard orientation:                         
 ---------------------------------------------------------------------
 Center     Atomic      Atomic             Coordinates (Angstroms)
 Number     Number       Type             X           Y           Z
 ---------------------------------------------------------------------
      1          6           0        0.658749   -1.196045    0.001848
      2          6           0       -0.722394   -1.209200   -0.001787
      3          6           0       -1.437333    0.001790   -0.004688
      4          6           0       -0.719610    1.211006   -0.003424
      5          6           0        0.661601    1.194545    0.000322
      6          7           0        1.301249   -0.001472    0.002558
      7          1           0       -1.236838   -2.170506   -0.003366
      8          1           0       -1.231654    2.173582   -0.005948
      9          6           0       -2.942836    0.003119    0.001012
     10          1           0       -3.326129   -0.884495   -0.515677
     11          1           0       -3.298682   -0.012072    1.040570
     12          1           0       -3.325185    0.905707   -0.489612
     13          6           0        1.491434    2.455778    0.000308
     14          1           0        1.265980    3.045427   -0.897091
     15          1           0        1.248398    3.056993    0.885258
     16          1           0        2.562621    2.220545    0.012343
     17          6           0        1.485801   -2.459078   -0.000467
     18          1           0        1.178783   -3.102905    0.832607
     19          1           0        1.326367   -3.002069   -0.940906
     20          1           0        2.553324   -2.228805    0.101290
     21          1           0        2.321798   -0.002588    0.003880
 ---------------------------------------------------------------------
 Rotational constants (GHZ):           1.8190540           1.7151244           0.8978483
 Standard basis: def2SVP (5D, 7F)
 There are   195 symmetry adapted cartesian basis functions of A   symmetry.
 There are   186 symmetry adapted basis functions of A   symmetry.
   186 basis functions,   309 primitive gaussians,   195 cartesian basis functions
    33 alpha electrons       33 beta electrons
       nuclear repulsion energy       436.7244833102 Hartrees.
 NAtoms=   21 NActive=   21 NUniq=   21 SFac= 1.00D+00 NAtFMM=   60 NAOKFM=F Big=F
 Integral buffers will be    131072 words long.
 Raffenetti 2 integral format.
 Two-electron integral symmetry is turned on.
 One-electron integrals computed using PRISM.
   1 Symmetry operations used in ECPInt.
 ECPInt:  NShTT=    4095 NPrTT=   14349 LenC2=    4057 LenP2D=   11228.
 LDataN:  DoStor=T MaxTD1= 4 Len=   56
 NBasis=   186 RedAO= T EigKep=  5.90D-04  NBF=   186
 NBsUse=   186 1.00D-06 EigRej= -1.00D+00 NBFU=   186
 Initial guess from the checkpoint file:  "collidine-H_opt.chk"
 B after Tr=    -0.000000   -0.000000   -0.000000
         Rot=    1.000000   -0.000020   -0.000124    0.000527 Ang=  -0.06 deg.
 ExpMin= 1.22D-01 ExpMax= 1.71D+03 ExpMxC= 2.58D+02 IAcc=3 IRadAn=         5 AccDes= 0.00D+00
 Harris functional with IExCor= 1009 and IRadAn=       5 diagonalized for initial guess.
 HarFok:  IExCor= 1009 AccDes= 0.00D+00 IRadAn=         5 IDoV= 1 UseB2=F ITyADJ=14
 ICtDFT=  3500011 ScaDFX=  1.000000  1.000000  1.000000  1.000000
 FoFCou: FMM=F IPFlag=           0 FMFlag=      100000 FMFlg1=           0
         NFxFlg=           0 DoJE=T BraDBF=F KetDBF=T FulRan=T
         wScrn=  0.000000 ICntrl=       500 IOpCl=  0 I1Cent=   200000004 NGrid=           0
         NMat0=    1 NMatS0=      1 NMatT0=    0 NMatD0=    1 NMtDS0=    0 NMtDT0=    0
 Petite list used in FoFCou.
 Requested convergence on RMS density matrix=1.00D-08 within 128 cycles.
 Requested convergence on MAX density matrix=1.00D-06.
 Requested convergence on             energy=1.00D-06.
 No special actions if energy rises.
 Integral accuracy reduced to 1.0D-05 until final iterations.
 Initial convergence to 1.0D-05 achieved.  Increase integral accuracy.
 SCF Done:  E(RMN15) =  -365.841978096     A.U. after   12 cycles
            NFock= 12  Conv=0.30D-08     -V/T= 2.0135
   1 Symmetry operations used in ECPInt.
 ECPInt:  NShTT=    4095 NPrTT=   14349 LenC2=    4057 LenP2D=   11228.
 LDataN:  DoStor=T MaxTD1= 5 Len=  102
 Calling FoFJK, ICntrl=      2127 FMM=F ISym2X=0 I1Cent= 0 IOpClX= 0 NMat=1 NMatS=1 NMatT=0.
 ***** Axes restored to original set *****
 -------------------------------------------------------------------
 Center     Atomic                   Forces (Hartrees/Bohr)
 Number     Number              X              Y              Z
 -------------------------------------------------------------------
      1        6          -0.009399905   -0.013541049   -0.000501032
      2        6           0.001059982    0.006838336   -0.000245032
      3        6           0.008537779    0.000365222    0.000289180
      4        6           0.001605927   -0.006783242   -0.000286449
      5        6          -0.010469380    0.012730670   -0.000193245
      6        7           0.007878408    0.000356521    0.000130243
      7        1           0.001176151   -0.000074459    0.000182678
      8        1           0.001179464    0.000154827    0.000243488
      9        6          -0.010005490   -0.000238925    0.003114699
     10        1           0.002095909   -0.000498309   -0.000865672
     11        1           0.001859277    0.000017571   -0.001154498
     12        1           0.002052388    0.000585553   -0.000868310
     13        6           0.004060699   -0.011564735   -0.000024522
     14        1          -0.000290058    0.001533591    0.000335698
     15        1          -0.000272676    0.001544218   -0.000298278
     16        1          -0.001293525    0.001559071   -0.000001250
     17        6           0.003225608    0.011813759   -0.000224077
     18        1          -0.000102058   -0.001553366   -0.000156894
     19        1          -0.000267973   -0.001541508    0.000471168
     20        1          -0.001183380   -0.001648655    0.000045345
     21        1          -0.001447147   -0.000055091    0.000006759
 -------------------------------------------------------------------
 Cartesian Forces:  Max     0.013541049 RMS     0.004408995

 GradGradGradGradGradGradGradGradGradGradGradGradGradGradGradGradGradGrad
 Berny optimization.
 Using GEDIIS/GDIIS optimizer.
 FormGI is forming the generalized inverse of G from B-inverse, IUseBI=4.
 Internal  Forces:  Max     0.006925199 RMS     0.001869457
 Search for a local minimum.
 Step number   2 out of a maximum of  109
 All quantities printed in internal units (Hartrees-Bohrs-Radians)
 Mixed Optimization -- RFO/linear search
 Update second derivatives using D2CorX and points    1    2
 DE= -1.56D-02 DEPred=-1.53D-02 R= 1.02D+00
 TightC=F SS=  1.41D+00  RLast= 2.97D-01 DXNew= 5.0454D-01 8.9043D-01
 Trust test= 1.02D+00 RLast= 2.97D-01 DXMaxT set to 5.05D-01
 ITU=  1  0
 Use linear search instead of GDIIS.
     Eigenvalues ---    0.00237   0.00237   0.00237   0.01322   0.01406
     Eigenvalues ---    0.01417   0.02061   0.02065   0.02114   0.02134
     Eigenvalues ---    0.02307   0.02389   0.07029   0.07030   0.07036
     Eigenvalues ---    0.07200   0.07209   0.07244   0.15479   0.16000
     Eigenvalues ---    0.16000   0.16000   0.16000   0.16000   0.16000
     Eigenvalues ---    0.16000   0.16000   0.16000   0.16000   0.16094
     Eigenvalues ---    0.21624   0.23497   0.23685   0.24999   0.25000
     Eigenvalues ---    0.25356   0.27442   0.28519   0.28591   0.33968
     Eigenvalues ---    0.34014   0.37209   0.37230   0.37230   0.37230
     Eigenvalues ---    0.37230   0.37230   0.37230   0.37230   0.37922
     Eigenvalues ---    0.41363   0.43630   0.46010   0.47047   0.48445
     Eigenvalues ---    0.53623   0.54952
 RFO step:  Lambda=-1.30430474D-03 EMin= 2.36823535D-03
 Quartic linear search produced a step of  0.12841.
 Iteration  1 RMS(Cart)=  0.01405609 RMS(Int)=  0.00017221
 Iteration  2 RMS(Cart)=  0.00018841 RMS(Int)=  0.00006926
 Iteration  3 RMS(Cart)=  0.00000003 RMS(Int)=  0.00006926
 Variable       Old X    -DE/DX   Delta X   Delta X   Delta X     New X
                                 (Linear)    (Quad)   (Total)
    R1        2.61011   0.00472  -0.00623   0.01645   0.01022   2.62033
    R2        2.56322   0.00017   0.00223  -0.00119   0.00108   2.56430
    R3        2.85297  -0.00691  -0.00735  -0.02167  -0.02901   2.82395
    R4        2.65750  -0.00090   0.00248  -0.00406  -0.00162   2.65587
    R5        2.06038   0.00066  -0.00173   0.00345   0.00173   2.06210
    R6        2.65729  -0.00096   0.00247  -0.00422  -0.00178   2.65550
    R7        2.84501  -0.00400  -0.00837  -0.00942  -0.01779   2.82722
    R8        2.61031   0.00476  -0.00622   0.01656   0.01033   2.62064
    R9        2.06036   0.00066  -0.00173   0.00346   0.00173   2.06209
   R10        2.56308   0.00009   0.00216  -0.00130   0.00090   2.56398
   R11        2.85301  -0.00693  -0.00734  -0.02171  -0.02906   2.82395
   R12        1.92856   0.00145   0.00499  -0.00019   0.00479   1.93336
   R13        2.07159   0.00078   0.00637  -0.00234   0.00403   2.07562
   R14        2.07658   0.00170   0.00701  -0.00005   0.00696   2.08354
   R15        2.07144   0.00075   0.00635  -0.00240   0.00395   2.07539
   R16        2.07340   0.00106   0.00660  -0.00168   0.00492   2.07832
   R17        2.07325   0.00104   0.00658  -0.00170   0.00488   2.07812
   R18        2.07261   0.00086   0.00650  -0.00218   0.00432   2.07693
   R19        2.07249   0.00098   0.00648  -0.00181   0.00468   2.07717
   R20        2.07413   0.00111   0.00669  -0.00157   0.00512   2.07925
   R21        2.07267   0.00087   0.00651  -0.00218   0.00432   2.07699
    A1        2.07379  -0.00384  -0.01045  -0.00997  -0.02037   2.05341
    A2        2.14102   0.00415   0.00420   0.01577   0.01994   2.16095
    A3        2.06837  -0.00031   0.00625  -0.00583   0.00039   2.06876
    A4        2.09459   0.00288   0.00333   0.01098   0.01428   2.10886
    A5        2.07169  -0.00043  -0.00373   0.00327  -0.00045   2.07125
    A6        2.11690  -0.00245   0.00040  -0.01424  -0.01383   2.10307
    A7        2.07262  -0.00209  -0.00006  -0.01051  -0.01069   2.06193
    A8        2.10498   0.00103   0.00002   0.00512   0.00514   2.11012
    A9        2.10556   0.00107   0.00004   0.00528   0.00532   2.11089
   A10        2.09454   0.00289   0.00337   0.01095   0.01429   2.10882
   A11        2.11705  -0.00247   0.00037  -0.01431  -0.01393   2.10312
   A12        2.07160  -0.00042  -0.00374   0.00336  -0.00036   2.07124
   A13        2.07383  -0.00384  -0.01048  -0.00993  -0.02036   2.05346
   A14        2.14082   0.00412   0.00418   0.01565   0.01981   2.16063
   A15        2.06854  -0.00028   0.00629  -0.00572   0.00055   2.06909
   A16        2.15701   0.00400   0.01429   0.00848   0.02286   2.17987
   A17        2.06317  -0.00200  -0.00714  -0.00427  -0.01145   2.05172
   A18        2.06300  -0.00200  -0.00716  -0.00422  -0.01142   2.05158
   A19        1.92532   0.00227   0.00189   0.01612   0.01781   1.94313
   A20        1.90434   0.00078  -0.00081   0.00244   0.00164   1.90598
   A21        1.92606   0.00229   0.00198   0.01634   0.01813   1.94419
   A22        1.89808  -0.00208  -0.00161  -0.01701  -0.01862   1.87946
   A23        1.91112  -0.00132   0.00006  -0.00230  -0.00260   1.90852
   A24        1.89848  -0.00205  -0.00156  -0.01656  -0.01812   1.88036
   A25        1.91348   0.00088   0.00037   0.00494   0.00525   1.91873
   A26        1.91349   0.00089   0.00037   0.00505   0.00536   1.91885
   A27        1.93655   0.00237   0.00333   0.01571   0.01893   1.95548
   A28        1.89622  -0.00147  -0.00185  -0.01247  -0.01432   1.88190
   A29        1.90173  -0.00139  -0.00114  -0.00704  -0.00829   1.89344
   A30        1.90185  -0.00139  -0.00113  -0.00692  -0.00815   1.89369
   A31        1.91410   0.00088   0.00045   0.00509   0.00547   1.91957
   A32        1.91306   0.00090   0.00031   0.00493   0.00519   1.91825
   A33        1.93628   0.00237   0.00329   0.01574   0.01893   1.95521
   A34        1.89628  -0.00147  -0.00184  -0.01242  -0.01427   1.88201
   A35        1.90207  -0.00134  -0.00110  -0.00630  -0.00751   1.89456
   A36        1.90153  -0.00145  -0.00117  -0.00776  -0.00902   1.89251
    D1        0.00001   0.00000  -0.00002  -0.00001  -0.00001   0.00000
    D2        3.14053  -0.00003  -0.00012  -0.00168  -0.00179   3.13874
    D3       -3.13722   0.00011   0.00054   0.00685   0.00740  -3.12982
    D4        0.00330   0.00008   0.00044   0.00519   0.00562   0.00892
    D5        0.00039  -0.00002   0.00005   0.00084   0.00085   0.00124
    D6       -3.14007   0.00003   0.00020   0.00218   0.00233  -3.13773
    D7        3.13781  -0.00012  -0.00049  -0.00568  -0.00610   3.13171
    D8       -0.00265  -0.00007  -0.00034  -0.00434  -0.00462  -0.00727
    D9       -0.94355   0.00035   0.00077   0.01095   0.01172  -0.93184
   D10        1.13687  -0.00036  -0.00103   0.00184   0.00073   1.13760
   D11       -3.04561  -0.00007  -0.00022   0.00542   0.00515  -3.04046
   D12        2.20239   0.00047   0.00133   0.01781   0.01923   2.22162
   D13       -2.00038  -0.00024  -0.00046   0.00870   0.00825  -1.99213
   D14        0.10033   0.00005   0.00035   0.01227   0.01266   0.11299
   D15       -0.00031   0.00003  -0.00001  -0.00065  -0.00063  -0.00094
   D16       -3.13413   0.00026   0.00083   0.01473   0.01553  -3.11860
   D17       -3.14080   0.00007   0.00009   0.00105   0.00117  -3.13963
   D18        0.00857   0.00029   0.00094   0.01643   0.01733   0.02590
   D19        0.00023  -0.00005   0.00002   0.00054   0.00052   0.00075
   D20        3.14118  -0.00007  -0.00007  -0.00109  -0.00119   3.14000
   D21        3.13405  -0.00027  -0.00082  -0.01484  -0.01565   3.11840
   D22       -0.00819  -0.00029  -0.00091  -0.01648  -0.01735  -0.02554
   D23       -0.53285   0.00056   0.00085   0.00124   0.00220  -0.53065
   D24        1.55123  -0.00014  -0.00047  -0.00833  -0.00884   1.54238
   D25       -2.64694  -0.00078  -0.00168  -0.01720  -0.01906  -2.66600
   D26        2.61667   0.00080   0.00171   0.01699   0.01888   2.63555
   D27       -1.58244   0.00010   0.00039   0.00742   0.00784  -1.57460
   D28        0.50258  -0.00054  -0.00082  -0.00146  -0.00238   0.50020
   D29        0.00014   0.00002   0.00001   0.00022   0.00022   0.00036
   D30        3.14037  -0.00001  -0.00014  -0.00173  -0.00186   3.13852
   D31       -3.14083   0.00005   0.00009   0.00182   0.00190  -3.13892
   D32       -0.00060   0.00001  -0.00006  -0.00013  -0.00017  -0.00077
   D33       -0.00047   0.00001  -0.00004  -0.00094  -0.00096  -0.00142
   D34        3.13999  -0.00004  -0.00019  -0.00228  -0.00244   3.13755
   D35       -3.14076   0.00004   0.00010   0.00090   0.00099  -3.13976
   D36       -0.00030  -0.00001  -0.00005  -0.00043  -0.00049  -0.00079
   D37       -1.04872   0.00037   0.00096   0.00370   0.00470  -1.04402
   D38        1.03152  -0.00035  -0.00086  -0.00548  -0.00638   1.02514
   D39        3.13307   0.00002   0.00006  -0.00078  -0.00071   3.13235
   D40        2.09152   0.00033   0.00081   0.00175   0.00259   2.09411
   D41       -2.11143  -0.00039  -0.00101  -0.00743  -0.00849  -2.11992
   D42       -0.00988  -0.00002  -0.00009  -0.00272  -0.00282  -0.01271
         Item               Value     Threshold  Converged?
 Maximum Force            0.006925     0.000450     NO 
 RMS     Force            0.001869     0.000300     NO 
 Maximum Displacement     0.044211     0.001800     NO 
 RMS     Displacement     0.014021     0.001200     NO 
 Predicted change in Energy=-8.550990D-04
 GradGradGradGradGradGradGradGradGradGradGradGradGradGradGradGradGradGrad

                          Input orientation:                          
 ---------------------------------------------------------------------
 Center     Atomic      Atomic             Coordinates (Angstroms)
 Number     Number       Type             X           Y           Z
 ---------------------------------------------------------------------
      1          6           0        0.159253   -0.737847    0.000942
      2          6           0        1.544966   -0.689533    0.014222
      3          6           0        2.222661    0.541666    0.024411
      4          6           0        1.456755    1.719818    0.019592
      5          6           0        0.071060    1.666553    0.006077
      6          7           0       -0.512018    0.441455   -0.001814
      7          1           0        2.101571   -1.628108    0.019355
      8          1           0        1.943109    2.696608    0.028647
      9          6           0        3.717699    0.595923    0.009229
     10          1           0        4.154383   -0.278655    0.510069
     11          1           0        4.070088    0.594242   -1.035504
     12          1           0        4.090188    1.512231    0.486494
     13          6           0       -0.807250    2.875564    0.004060
     14          1           0       -0.615670    3.479726    0.902863
     15          1           0       -0.585237    3.498985   -0.874228
     16          1           0       -1.873686    2.610586   -0.016934
     17          6           0       -0.628657   -2.007625    0.004202
     18          1           0       -0.295095   -2.658802   -0.816118
     19          1           0       -0.466491   -2.546741    0.949560
     20          1           0       -1.706233   -1.824357   -0.110920
     21          1           0       -1.534403    0.404074   -0.008118
 ---------------------------------------------------------------------
                    Distance matrix (angstroms):
                    1          2          3          4          5
     1  C    0.000000
     2  C    1.386619   0.000000
     3  C    2.428036   1.405427   0.000000
     4  C    2.779204   2.410971   1.405232   0.000000
     5  C    2.406023   2.779139   2.427982   1.386784   0.000000
     6  N    1.356970   2.347462   2.736640   2.347495   1.356800
     7  H    2.136704   1.091218   2.173156   3.409456   3.870135
     8  H    3.870193   3.409498   2.173003   1.091211   2.136841
     9  C    3.800204   2.524518   1.496099   2.524900   3.800558
    10  H    4.053533   2.687702   2.154145   3.392884   4.550975
    11  H    4.259497   3.020967   2.130533   3.034742   4.269306
    12  H    4.555312   3.398376   2.154803   2.682548   4.050680
    13  C    3.740439   4.271176   3.824638   2.541989   1.494369
    14  H    4.381996   4.779201   4.178517   2.858740   2.136216
    15  H    4.389867   4.782342   4.175833   2.852031   2.136227
    16  H    3.917291   4.751731   4.589357   3.447700   2.161889
    17  C    1.494372   2.542067   3.824828   4.271184   3.740214
    18  H    2.136372   2.820161   4.157954   4.789540   4.418005
    19  H    2.136241   2.893102   4.198297   4.771503   4.350974
    20  H    2.161725   3.445836   4.588310   4.752126   3.919045
    21  H    2.042679   3.267873   3.759724   3.267870   2.042442
                    6          7          8          9         10
     6  N    0.000000
     7  H    3.333825   0.000000
     8  H    3.333810   4.327628   0.000000
     9  C    4.232551   2.749233   2.749987   0.000000
    10  H    4.749303   2.505166   3.738140   1.098371   0.000000
    11  H    4.699740   3.150654   3.174335   1.102564   1.777034
    12  H    4.750295   3.746271   2.494458   1.098249   1.792192
    13  C    2.451955   5.361393   2.756284   5.066750   5.901097
    14  H    3.171793   5.852688   2.815116   5.281382   6.085485
    15  H    3.180402   5.857005   2.802057   5.265314   6.216980
    16  H    2.561152   5.811240   3.818036   5.943328   6.705450
    17  C    2.451864   2.756521   5.361379   5.066488   5.111038
    18  H    3.212747   2.739407   5.865458   5.232298   5.217444
    19  H    3.136320   2.881685   5.843540   5.316766   5.166221
    20  H    2.563583   3.815083   5.811738   5.940643   6.092753
    21  H    1.023088   4.165432   4.165352   5.255634   5.752993
                   11         12         13         14         15
    11  H    0.000000
    12  H    1.777523   0.000000
    13  C    5.483936   5.106498   0.000000
    14  H    5.834349   5.117568   1.099801   0.000000
    15  H    5.489590   5.259121   1.099696   1.777456   0.000000
    16  H    6.358583   6.085032   1.099063   1.784386   1.784463
    17  C    5.470732   5.906733   4.886455   5.560467   5.576404
    18  H    5.448416   6.190720   5.618203   6.382726   6.164892
    19  H    5.864026   6.119886   5.514661   6.028494   6.315941
    20  H    6.330115   6.714777   4.786507   5.509118   5.493382
    21  H    5.701053   5.754015   2.576270   3.336704   3.351051
                   16         17         18         19         20
    16  H    0.000000
    17  C    4.783140   0.000000
    18  H    5.558516   1.099190   0.000000
    19  H    5.432525   1.100293   1.777513   0.000000
    20  H    4.439099   1.099096   1.784633   1.784213   0.000000
    21  H    2.232463   2.576203   3.401464   3.280989   2.237408
                   21
    21  H    0.000000
 Stoichiometry    C8H12N(1+)
 Framework group  C1[X(C8H12N)]
 Deg. of freedom    57
 Full point group                 C1      NOp   1
 Largest Abelian subgroup         C1      NOp   1
 Largest concise Abelian subgroup C1      NOp   1
                         Standard orientation:                         
 ---------------------------------------------------------------------
 Center     Atomic      Atomic             Coordinates (Angstroms)
 Number     Number       Type             X           Y           Z
 ---------------------------------------------------------------------
      1          6           0        0.661725   -1.203760    0.004767
      2          6           0       -0.724857   -1.204600   -0.005389
      3          6           0       -1.445797    0.001803   -0.013408
      4          6           0       -0.722133    1.206366   -0.009675
      5          6           0        0.664607    1.202258    0.000713
      6          7           0        1.290768   -0.001400    0.006649
      7          1           0       -1.247847   -2.162316   -0.009776
      8          1           0       -1.242831    2.165303   -0.017124
      9          6           0       -2.941781    0.003013    0.005146
     10          1           0       -3.348311   -0.886271   -0.495180
     11          1           0       -3.291533   -0.011633    1.050664
     12          1           0       -3.347596    0.905755   -0.470798
     13          6           0        1.499503    2.441648    0.001409
     14          1           0        1.284599    3.039044   -0.896643
     15          1           0        1.257507    3.056409    0.880522
     16          1           0        2.574708    2.214637    0.019876
     17          6           0        1.494147   -2.444803   -0.000930
     18          1           0        1.185731   -3.107767    0.819788
     19          1           0        1.349067   -2.988902   -0.946208
     20          1           0        2.564805   -2.223497    0.111880
     21          1           0        2.313847   -0.002513    0.010647
 ---------------------------------------------------------------------
 Rotational constants (GHZ):           1.8304932           1.7086443           0.8987366
 Standard basis: def2SVP (5D, 7F)
 There are   195 symmetry adapted cartesian basis functions of A   symmetry.
 There are   186 symmetry adapted basis functions of A   symmetry.
   186 basis functions,   309 primitive gaussians,   195 cartesian basis functions
    33 alpha electrons       33 beta electrons
       nuclear repulsion energy       436.9497673757 Hartrees.
 NAtoms=   21 NActive=   21 NUniq=   21 SFac= 1.00D+00 NAtFMM=   60 NAOKFM=F Big=F
 Integral buffers will be    131072 words long.
 Raffenetti 2 integral format.
 Two-electron integral symmetry is turned on.
 One-electron integrals computed using PRISM.
   1 Symmetry operations used in ECPInt.
 ECPInt:  NShTT=    4095 NPrTT=   14349 LenC2=    4056 LenP2D=   11228.
 LDataN:  DoStor=T MaxTD1= 4 Len=   56
 NBasis=   186 RedAO= T EigKep=  5.84D-04  NBF=   186
 NBsUse=   186 1.00D-06 EigRej= -1.00D+00 NBFU=   186
 Initial guess from the checkpoint file:  "collidine-H_opt.chk"
 B after Tr=     0.000000    0.000000    0.000000
         Rot=    1.000000   -0.000056   -0.000039   -0.000028 Ang=  -0.01 deg.
 ExpMin= 1.22D-01 ExpMax= 1.71D+03 ExpMxC= 2.58D+02 IAcc=3 IRadAn=         5 AccDes= 0.00D+00
 Harris functional with IExCor= 1009 and IRadAn=       5 diagonalized for initial guess.
 HarFok:  IExCor= 1009 AccDes= 0.00D+00 IRadAn=         5 IDoV= 1 UseB2=F ITyADJ=14
 ICtDFT=  3500011 ScaDFX=  1.000000  1.000000  1.000000  1.000000
 FoFCou: FMM=F IPFlag=           0 FMFlag=      100000 FMFlg1=           0
         NFxFlg=           0 DoJE=T BraDBF=F KetDBF=T FulRan=T
         wScrn=  0.000000 ICntrl=       500 IOpCl=  0 I1Cent=   200000004 NGrid=           0
         NMat0=    1 NMatS0=      1 NMatT0=    0 NMatD0=    1 NMtDS0=    0 NMtDT0=    0
 Petite list used in FoFCou.
 Requested convergence on RMS density matrix=1.00D-08 within 128 cycles.
 Requested convergence on MAX density matrix=1.00D-06.
 Requested convergence on             energy=1.00D-06.
 No special actions if energy rises.
 Integral accuracy reduced to 1.0D-05 until final iterations.
 Initial convergence to 1.0D-05 achieved.  Increase integral accuracy.
 SCF Done:  E(RMN15) =  -365.842882415     A.U. after   11 cycles
            NFock= 11  Conv=0.39D-08     -V/T= 2.0135
   1 Symmetry operations used in ECPInt.
 ECPInt:  NShTT=    4095 NPrTT=   14349 LenC2=    4056 LenP2D=   11228.
 LDataN:  DoStor=T MaxTD1= 5 Len=  102
[...]
 0043003,-0.00021846,0.00026271,-0.00002103,0.09734357,-0.23542893,0.09
 942517,-0.10475071,0.24530613,0.00031853,0.00000349,-0.00011264,-0.000
 42525,-0.00033525,0.00019488,0.00591124,-0.00499305,-0.00003700,0.0001
 8372,0.00046846,0.00069761,0.00139647,0.00012553,-0.00002633,-0.000512
 79,-0.00047012,0.00006529,-0.00045119,-0.00010973,0.00017706,-0.000051
 44,0.00009308,0.00002372,-0.05629282,0.09947423,-0.09336898,0.05543224
 ,-0.10661315,0.09656536,0.00046084,-0.00003840,-0.00157854,-0.00129117
 ,0.00037959,-0.00151294,-0.01008712,-0.00021277,0.03146909,-0.00140286
 ,-0.00046477,-0.00158082,0.00053363,0.00010982,-0.00161679,-0.00068054
 ,-0.00006082,0.00017685,0.00005248,-0.00019115,0.00064256,0.00003069,0
 .00020758,0.00066456,-0.05805994,-0.00050910,0.07123101,0.00333096,-0.
 00073829,-0.01294328,0.06430123,0.00110815,-0.00056615,-0.00056570,-0.
 00195982,-0.00039614,-0.00100975,-0.00030396,-0.00152169,0.00116874,0.
 00187405,-0.00027009,0.00089960,-0.00101661,-0.00063499,0.00045072,-0.
 00006574,0.00097910,0.00000346,-0.00008676,-0.00013588,0.00033813,0.00
 009966,-0.00011592,-0.00029039,-0.00052837,-0.03796978,0.00174840,-0.0
 0732935,0.00065571,0.02320879,0.00069409,0.03888396,0.00141194,-0.0001
 0401,-0.00011137,-0.00144794,-0.00142178,0.00033191,0.00358557,0.00013
 732,-0.00009996,-0.00156120,0.00131466,0.00031616,0.00140686,0.0002113
 3,-0.00011581,-0.00119413,-0.00004714,0.00000639,0.00009018,-0.0000231
 7,-0.00018130,0.00008751,0.00002949,-0.00017925,0.06553879,0.00153792,
 -0.30549835,0.00339533,-0.00178537,-0.01016276,-0.07465678,-0.00181200
 ,0.32557913,0.00010927,-0.00140355,0.00087300,-0.00497853,0.00117969,0
 .00076093,-0.01167468,-0.02730047,-0.01385777,0.00107105,-0.00126942,0
 .00069572,0.00053231,-0.00014845,0.00038143,-0.00014822,0.00026656,-0.
 00006186,-0.00016209,-0.00000641,-0.00023348,-0.00012631,0.00083865,-0
 .00028974,-0.08324291,-0.08428084,-0.04523258,0.00502885,0.01080857,0.
 00728253,0.00272390,0.00750989,0.00320765,0.09110888,-0.00047913,0.000
 01500,-0.00021335,0.00042374,0.00079057,-0.00100634,-0.00053576,0.0006
 2274,0.00226973,0.00244623,0.00047270,0.00058008,-0.00084220,-0.000161
 65,0.00052469,0.00056260,0.00033264,-0.00008315,0.00018672,0.00027790,
 0.00000236,-0.00038987,0.00004214,-0.00045137,-0.08636931,-0.25022080,
 -0.10207733,-0.00929690,-0.01476014,-0.01085718,0.00081716,0.00111875,
 0.00195718,0.09361470,0.26143133,0.00140500,-0.00002261,-0.00002383,0.
 00021373,-0.00045408,0.00070836,0.00552625,0.00540500,-0.00008962,-0.0
 0046428,0.00030097,0.00018866,0.00032344,0.00002032,-0.00011602,-0.000
 54978,0.00042925,0.00006297,-0.00004567,-0.00009826,0.00002399,-0.0004
 5549,0.00007708,0.00017944,-0.04821896,-0.10234850,-0.09204018,0.00652
 169,0.01150537,0.00604671,-0.01119584,-0.02417380,-0.01001780,0.046787
 09,0.10935353,0.09514049,-0.00672495,-0.00095930,0.00054056,0.00282433
 ,0.00321710,-0.00017915,-0.00218354,-0.00626630,0.00074273,-0.02097892
 ,0.02682385,0.00180152,-0.14462838,0.07905433,0.00356110,0.01689303,-0
 .01609090,-0.00073318,0.00021218,0.00003628,-0.00003453,0.00080995,0.0
 0136796,-0.00034793,0.00006715,0.00079852,-0.00021542,-0.00023206,-0.0
 0000488,0.00002772,0.00000562,0.00007898,0.00000804,0.00003403,-0.0000
 3143,0.00002803,0.56398720,-0.00575888,0.00185367,0.00027965,0.0020001
 8,0.00009906,-0.00008974,-0.00268491,-0.00111175,0.00026570,0.00437536
 ,0.00441783,-0.00013097,0.07760423,-0.18803533,-0.00408474,0.01953983,
 -0.04301225,-0.00095900,0.00010091,0.00007442,-0.00001077,-0.00158305,
 0.00071617,0.00001348,-0.00004194,0.00053890,-0.00008442,-0.00015554,0
 .00002152,0.00001909,-0.00000910,0.00002354,0.00002436,0.00004340,-0.0
 0001043,-0.00000375,0.04812257,0.56743212,0.00089528,-0.00006270,0.004
 34093,-0.00045647,-0.00036321,-0.00077616,0.00040752,0.00066495,0.0085
 1949,0.00198903,-0.00161256,0.01278248,0.00326715,-0.00396937,-0.07533
 211,-0.00095947,0.00127901,0.00367164,-0.00006236,-0.00000741,-0.00064
 167,-0.00023942,-0.00005234,-0.00483176,-0.00006881,0.00031612,-0.0015
 3720,-0.00017355,-0.00013091,-0.00010953,0.00040572,-0.00011648,0.0001
 0490,-0.00011551,0.00001193,-0.00001369,0.00010285,-0.00323374,0.55891
 355,-0.00063580,0.00061332,-0.00056438,0.00037119,-0.00011734,0.000007
 31,-0.00065551,-0.00002498,-0.00109353,-0.00016714,0.00238364,-0.00066
 129,-0.01361786,0.00170803,0.01474003,0.00062751,-0.00278334,-0.000508
 62,0.00002028,0.00002900,0.00014324,0.00007641,0.00008456,0.00066955,-
 0.00000425,0.00011003,0.00016708,-0.00002765,0.00002226,0.00002689,-0.
 00005818,0.00001061,-0.00001551,0.00002057,-0.00001120,0.00001331,-0.1
 1899661,0.00006861,0.12954201,0.12812511,0.00158490,-0.00086057,0.0005
 7593,-0.00085880,-0.00072735,-0.00009579,0.00038261,0.00095939,0.00090
 893,0.00059241,-0.00210676,0.00073949,0.01382411,-0.00141654,-0.023503
 33,-0.00023663,0.00228715,0.00089561,-0.00005228,0.00000894,0.00000077
 ,0.00015637,-0.00002789,-0.00022901,-0.00004040,-0.00006428,-0.0001553
 1,0.00001234,-0.00002663,-0.00003057,0.00004586,-0.00004081,0.00000304
 ,-0.00002987,0.00000518,-0.00000574,0.00102935,-0.04498188,-0.00178541
 ,-0.00430823,0.04578827,0.00020412,-0.00050232,0.00010366,-0.00022679,
 0.00012152,0.00002748,-0.00001719,-0.00003037,-0.00032309,-0.00106283,
 0.00023490,-0.00074064,-0.00152031,-0.00059807,0.00252023,-0.00020746,
 0.00074511,0.00094625,-0.00001426,-0.00001124,-0.00002506,-0.00005960,
 -0.00001080,0.00021366,-0.00003112,-0.00000655,0.00012680,0.00000704,0
 .00000255,0.00000332,-0.00003561,0.00000919,-0.00001273,-0.00000419,-0
 .00000212,-0.00000236,0.12908947,-0.00039143,-0.24871076,-0.13832645,0
 .00171747,0.26248381,0.00076333,0.00071551,0.00001754,0.00004110,-0.00
 005601,-0.00000230,0.00019990,0.00000704,-0.00003553,0.00050342,0.0011
 7085,-0.00005173,0.01237123,0.01812173,-0.00126788,-0.00266969,0.00458
 364,0.00024569,-0.00003376,-0.00003896,0.00000438,-0.00023047,-0.00030
 280,0.00004586,-0.00002343,-0.00007345,0.00002049,0.00002000,-0.000010
 07,-0.00000758,0.00000282,0.00000982,-0.00000247,-0.00003398,0.0000074
 3,-0.00000754,-0.13582216,-0.14016958,0.00792496,-0.00734492,-0.011824
 46,-0.00161828,0.14157151,-0.00127701,0.00008902,0.00006380,0.00025905
 ,0.00014298,-0.00001040,-0.00015771,-0.00005148,0.00000042,-0.00174547
 ,0.00133580,0.00004089,-0.01509267,-0.01864403,0.00118598,0.00358049,-
 0.00411447,-0.00014039,0.00005515,0.00004294,-0.00000047,0.00078794,0.
 00027757,-0.00002367,0.00002253,0.00006152,-0.00002340,-0.00001969,0.0
 0001031,0.00000132,0.00000718,-0.00000988,0.00000565,0.00003361,-0.000
 00792,0.00000831,-0.13370329,-0.25389911,0.01167918,0.00240512,0.00244
 944,-0.00060689,0.14185239,0.27059484,-0.00002554,-0.00004307,0.000663
 23,0.00001163,0.00002148,-0.00000860,-0.00001872,-0.00003176,-0.000177
 21,-0.00005383,-0.00005137,-0.00033349,-0.00081931,-0.00115901,-0.0030
 8880,0.00027647,-0.00029721,0.00174251,0.00000255,0.00000111,-0.000005
 33,0.00001446,0.00002103,0.00039201,0.00000165,0.00002336,-0.00000978,
 -0.00000051,0.00000281,0.00000129,0.00001165,-0.00001827,-0.00000396,-
 0.00000773,-0.00000665,0.00002196,0.00783492,0.01216271,-0.04365186,0.
 01260284,0.02218828,0.00045550,-0.00849917,-0.01240208,0.04237834,-0.0
 0052063,0.00064455,0.00064096,0.00033912,-0.00017232,-0.00003045,-0.00
 058444,0.00004775,0.00110643,0.00004004,0.00235218,0.00047702,-0.01521
 646,0.00129972,-0.01243528,0.00078451,-0.00283204,0.00059551,0.0000045
 6,0.00002796,-0.00014787,0.00004714,0.00009371,-0.00062213,-0.00001962
 ,0.00018521,-0.00019691,-0.00006703,-0.00001395,0.00000162,0.00002912,
 -0.00000636,0.00001022,-0.00000194,-0.00000530,-0.00000283,-0.15676025
 ,-0.00338326,-0.14232620,0.01172511,0.00008871,0.01339321,-0.00865034,
 0.00222026,-0.01132839,0.16844200,0.00149855,-0.00082691,-0.00067689,-
 0.00081711,-0.00071890,0.00017030,0.00034213,0.00094769,-0.00098015,0.
 00058972,-0.00221113,-0.00080061,0.01694887,-0.00080282,0.02149448,-0.
 00032502,0.00233431,-0.00086284,-0.00005121,0.00000873,-0.00000533,0.0
 0018596,-0.00003220,0.00021930,-0.00004287,-0.00017682,0.00026691,0.00
 005330,0.00000796,0.00000263,-0.00006223,0.00000875,-0.00002225,0.0000
 1152,0.00001661,-0.00001640,-0.00235557,-0.04529171,-0.00260734,-0.000
 22314,-0.00074249,0.00023615,-0.01468364,0.00199384,-0.02038585,-0.000
 73502,0.04596870,-0.00023270,0.00048618,0.00006033,0.00028199,-0.00002
 716,0.00000096,0.00009480,-0.00011641,-0.00042364,0.00086425,-0.000443
 22,-0.00086945,0.00369973,0.00035391,0.00341273,0.00029699,-0.00048019
 ,0.00088097,0.00001469,0.00000684,-0.00000665,0.00006811,-0.00000911,0
 .00028504,0.00004908,-0.00004857,0.00008181,0.00002861,0.00001203,0.00
 000713,-0.00001160,-0.00000119,0.00000419,0.00001360,-0.00000240,0.000
 00815,-0.14212755,-0.00366629,-0.21121795,-0.01733685,-0.00061064,-0.0
 1669178,0.00324784,0.00026890,0.00228766,0.15158908,0.00333566,0.22242
 175,-0.13332663,-0.07498143,0.00370985,-0.01854283,-0.02851305,0.00196
 032,-0.00283731,0.00614324,0.00071927,0.00319388,-0.00298896,-0.000165
 57,-0.00717329,0.00029420,0.00055486,0.01682047,0.02051753,-0.00092869
 ,0.00079373,-0.00136441,-0.00033624,0.00022156,-0.00002561,-0.00003484
 ,0.00012542,-0.00083059,-0.00021548,0.00003467,0.00003493,0.00002747,0
 .00001082,-0.00007985,0.00001030,-0.00024251,-0.00001447,0.00002910,0.
 00066364,0.00090688,0.00000084,0.00005381,-0.00002271,-0.00002908,-0.0
 0022466,0.00028224,0.00001058,0.00005574,-0.00004090,0.00002090,0.5710
 9621,-0.07353294,-0.19928069,0.00510299,-0.00606417,0.00199407,0.00033
 026,0.00255993,-0.00046319,-0.00015302,-0.00177397,-0.00026788,0.00007
 260,0.00509580,0.00230115,-0.00022472,-0.01511335,-0.04294037,0.001193
 31,0.00158726,0.00073228,-0.00007374,-0.00009040,0.00006510,0.00000373
 ,0.00001102,0.00047896,0.00005560,-0.00004076,-0.00001116,0.00000579,0
 .00001062,0.00001906,-0.00002316,0.00013487,0.00003257,-0.00001786,-0.
 00080822,-0.00066796,0.00007509,-0.00001491,0.00010185,0.00002556,0.00
 016288,-0.00017760,-0.00001141,-0.00001602,0.00009732,-0.00002927,-0.0
 4785205,0.56036457,0.00341508,0.00496496,-0.07538909,0.00189632,0.0018
 1680,0.01277000,0.00043645,-0.00057584,0.00852469,-0.00047048,0.000325
 06,-0.00077879,0.00085414,0.00014183,0.00434182,-0.00076462,-0.0010481
 6,0.00367221,-0.00025130,-0.00000083,-0.00483166,-0.00006198,-0.000001
 69,-0.00064171,-0.00004493,-0.00033326,-0.00153529,-0.00011412,-0.0000
 2045,-0.00001361,0.00039589,0.00014669,0.00010417,-0.00018354,0.000116
 83,-0.00011037,0.00001139,-0.00006532,0.00081215,-0.00001318,0.0001337
 2,-0.00004055,0.00001540,-0.00002047,-0.00003858,-0.00000735,-0.000123
 74,-0.00004406,0.00017266,0.00321552,0.55887371,0.01242546,-0.01582776
 ,-0.00107482,0.00046566,-0.00123558,-0.00004061,0.00018744,0.00001044,
 -0.00003544,0.00005661,0.00004958,-0.00000336,0.00071828,-0.00066875,0
 .00002656,-0.00207624,-0.00443114,0.00026187,-0.00019197,0.00026829,0.
 00004222,-0.00003214,0.00003342,0.00000412,-0.00002672,0.00006705,0.00
 001828,-0.00003081,-0.00000918,-0.00000686,0.00000400,-0.00000882,-0.0
 0000198,0.00001775,0.00001057,-0.00000753,-0.00019162,-0.00016383,0.00
 001485,-0.00000425,0.00000657,-0.00000685,0.00005953,-0.00005532,-0.00
 000407,-0.00000334,0.00000609,0.00000714,-0.15664361,0.14742718,0.0078
 2054,0.16317711,0.01738806,-0.01869838,-0.00117538,0.00168067,0.001373
 55,-0.00005480,0.00017525,-0.00003885,-0.00000380,-0.00026536,0.000127
 40,0.00000927,0.00132342,0.00013395,-0.00005862,-0.00342788,-0.0047047
 4,0.00019791,-0.00082261,0.00023912,0.00002770,-0.00006070,0.00004133,
 0.00000047,-0.00002905,0.00006483,0.00002437,-0.00003535,-0.00001111,-
 0.00000865,-0.00000609,-0.00001099,-0.00000577,0.00002024,0.00001253,-
 0.00000194,-0.00028321,-0.00021043,0.00002256,-0.00000398,0.00002201,0
 .00000270,0.00006493,-0.00007057,-0.00000447,-0.00000397,0.00002227,-0
 .00000353,0.14096063,-0.23321491,-0.00984752,-0.14986664,0.24913137,-0
 .00100910,0.00119128,-0.00308868,-0.00006798,0.00003617,-0.00033343,-0
 .00002203,0.00002950,-0.00017740,0.00001491,-0.00002146,-0.00000853,-0
 .00003706,0.00004429,0.00066333,0.00027470,0.00035679,0.00173935,0.000
 02099,-0.00001891,0.00039197,0.00000301,-0.00000120,-0.00000532,0.0000
 0356,-0.00002363,-0.00000976,-0.00000800,0.00000626,0.00002196,0.00001
 032,0.00001912,-0.00000405,-0.00000042,-0.00000290,0.00000132,0.000011
 46,0.00001322,-0.00003879,0.00000468,-0.00000190,0.00000239,-0.0000047
 8,0.00000455,-0.00000567,-0.00000361,0.00000139,0.00000210,0.00780699,
 -0.01033547,-0.04351462,-0.00843035,0.01041637,0.04223618,-0.01240883,
 -0.00244091,0.01297697,0.00004170,-0.00222818,-0.00059084,-0.00062004,
 -0.00009833,-0.00102298,0.00029344,0.00019289,-0.00000092,-0.00047514,
 -0.00058821,-0.00051668,0.00041412,0.00264194,-0.00045779,0.00009341,-
 0.00007146,0.00065131,0.00001847,-0.00002739,0.00014308,0.00000051,-0.
 00010425,0.00015579,0.00001746,0.00001219,0.00001277,-0.00005391,-0.00
 001168,-0.00001518,-0.00002511,-0.00002199,0.00002471,0.00005131,0.000
 01116,-0.00000333,0.00001425,-0.00001953,0.00001148,-0.00000392,0.0000
 0209,0.00000451,0.00001557,-0.00000931,-0.00000787,-0.11855248,-0.0047
 0503,0.12910856,-0.00798745,-0.00308863,0.01422576,0.12708465,-0.01465
 188,-0.00247017,0.02455695,-0.00043955,-0.00232199,-0.00077643,-0.0004
 9941,0.00091810,-0.00099518,0.00093298,-0.00064969,0.00010055,-0.00155
 514,-0.00102190,-0.00060943,0.00009716,0.00248967,-0.00094046,-0.00014
 780,-0.00004326,0.00027944,0.00005289,0.00001084,0.00000961,0.00004495
 ,-0.00006804,0.00016842,0.00003077,0.00000835,0.00000665,-0.00004704,-
 0.00004515,-0.00000397,-0.00001220,-0.00002898,0.00003270,0.00001882,0
 .00010333,-0.00013522,0.00002452,-0.00005215,-0.00000535,-0.00000853,0
 .00002167,0.00000212,0.00001341,0.00000433,0.00002219,-0.00566826,-0.0
 4534026,0.01007028,0.01104446,0.00295950,-0.02121069,0.00946177,0.0467
 3059,-0.00147030,0.00051548,0.00236476,-0.00103987,-0.00030333,-0.0007
 3412,-0.00001621,0.00002143,-0.00031723,-0.00022288,-0.00013374,0.0000
 2765,0.00017600,0.00052292,0.00010419,-0.00015246,-0.00076754,0.000956
 81,-0.00005934,0.00000798,0.00021197,-0.00001537,0.00000993,-0.0000251
 7,-0.00003184,0.00000547,0.00012574,-0.00000452,0.00000174,-0.00000241
 ,-0.00003455,-0.00001160,-0.00001264,0.00000728,-0.00000183,0.00000314
 ,-0.00002721,-0.00002854,-0.00003954,0.00001089,0.00000670,0.00003032,
 -0.00000658,-0.00000332,0.00000239,0.00000365,0.00002231,-0.00001243,0
 .12876581,0.00864643,-0.24879501,-0.00172940,0.00046946,0.00058769,-0.
 13790489,-0.01057291,0.26258091,-0.01379262,-0.00232957,-0.01080215,0.
 00024424,-0.00216781,0.00043031,-0.00054767,-0.00015206,0.00103187,0.0
 0026036,0.00024477,-0.00001925,-0.00036444,-0.00060643,0.00059297,0.00
 056039,0.00270386,0.00051310,0.00006748,-0.00009015,-0.00060367,0.0000
 0290,-0.00002933,-0.00014768,-0.00000995,-0.00017399,-0.00017555,-0.00
 000139,0.00000394,-0.00000405,0.00002395,0.00000755,0.00000850,-0.0000
 6373,0.00000865,0.00000172,0.00005177,0.00001253,-0.00001654,0.0000158
 1,-0.00001252,0.00000537,-0.00000304,0.00000207,-0.00000351,0.00001055
 ,-0.00001974,-0.00000779,-0.15652973,-0.00575063,-0.14208844,-0.009508
 70,-0.00315286,-0.01278548,0.01164790,0.00091310,0.01337314,0.16761729
 ,-0.01788369,-0.00236627,-0.02232095,-0.00040293,-0.00240735,0.0008432
 7,-0.00045262,0.00091810,0.00105063,0.00089145,-0.00064099,-0.00016782
 ,-0.00146566,-0.00098166,0.00072847,0.00019501,0.00256740,0.00089384,-
 0.00017812,-0.00005394,-0.00026256,0.00005088,0.00001035,-0.00000568,0
 .00005556,-0.00018796,-0.00027895,-0.00001278,0.00001617,0.00001609,0.
 00006328,0.00001408,0.00002289,-0.00005843,0.00000459,-0.00000254,0.00
 003762,0.00010226,0.00012196,0.00001013,0.00000381,-0.00002208,-0.0000
 0792,0.00002200,-0.00000178,0.00002412,-0.00004930,0.00000478,-0.00677
 711,-0.04557692,-0.00895419,0.01384850,0.00297626,0.01949129,0.0010317
 9,-0.00066473,0.00065327,0.01069840,0.04685131,0.00382566,-0.00004343,
 0.00355218,0.00083173,0.00051502,-0.00087759,0.00008886,0.00011488,-0.
 00043078,0.00027380,0.00005190,0.00000178,-0.00018715,-0.00049568,0.00
 005898,0.00025953,0.00049082,0.00087234,0.00006831,0.00001624,0.000286
 50,0.00001484,-0.00000585,-0.00000661,0.00004498,0.00005372,0.00008319
 ,0.00001346,0.00000335,0.00000802,-0.00001204,0.00000026,0.00000404,0.
 00002977,-0.00000986,0.00000722,0.00001848,0.00002983,-0.00004502,-0.0
 0000626,-0.00002282,-0.00001215,0.00000691,0.00000393,0.00000208,-0.00
 000758,-0.00000482,0.00003375,-0.14196255,-0.00788376,-0.21116557,0.00
 317004,-0.00003308,0.00216389,-0.01733690,-0.00077218,-0.01669210,0.15
 134911,0.00897527,0.22236547,-0.01260220,0.00119079,0.00069409,0.00231
 010,0.00290364,0.00021918,-0.00058533,0.00003421,0.00011413,0.00267309
 ,-0.00231768,0.00022953,-0.01004968,-0.00240752,0.00056837,-0.43631977
 ,-0.01351979,0.02251101,-0.00019449,-0.00019298,0.00005219,-0.00011508
 ,0.00015441,0.00004678,0.00037143,0.00000812,-0.00050853,0.00005080,0.
 00008344,0.00007408,0.00012366,0.00000453,0.00013432,0.00005339,-0.000
 08024,0.00007384,0.00091826,0.00116442,-0.00012856,0.00046213,-0.00031
 779,0.00044931,-0.00049246,0.00054102,-0.00001050,0.00033056,-0.000270
 39,-0.00055247,0.00100310,-0.00122713,-0.00012650,-0.00041498,-0.00056
 688,-0.00000757,0.00043409,0.00039500,0.00037865,0.00031861,0.00033253
 ,-0.00048302,0.45172477,0.03205120,0.00642475,-0.00185001,0.00258238,-
 0.00521918,-0.00003859,0.00003331,-0.00149787,0.00000572,-0.00199645,-
 0.00558083,0.00012881,-0.03326815,0.00388428,0.00186778,-0.01351961,-0
 .06935191,0.00095663,0.00122643,0.00040974,-0.00005537,-0.00126518,0.0
 0033055,0.00006115,0.00001015,0.00010409,-0.00002202,-0.00004563,0.000
 01784,-0.00000745,0.00000458,0.00001451,0.00000477,0.00004795,0.000014
 67,0.00001295,-0.00008230,0.00183806,-0.00009411,0.00001730,-0.0005787
 0,-0.00090793,0.00047916,-0.00006688,-0.00000996,0.00017067,-0.0005582
 2,0.00094750,0.00001976,0.00175400,0.00005980,-0.00050513,-0.00014414,
 0.00000594,0.00006106,-0.00054008,0.00093971,-0.00010978,-0.00055719,-
 0.00098373,0.01408829,0.06930250,0.00047486,-0.00001927,0.00061974,0.0
 0021395,-0.00007965,0.00623964,-0.00014482,-0.00000378,-0.00102578,0.0
 0021934,0.00016919,0.00623842,0.00067938,0.00003286,0.00060780,0.02261
 023,0.00096050,-0.02959412,0.00001469,0.00002560,0.00070890,0.00002433
 ,-0.00002203,0.00070871,0.00007648,-0.00000037,-0.00091077,-0.00005930
 ,0.00009780,0.00002092,0.00017115,0.00000607,-0.00005089,-0.00005218,-
 0.00010185,0.00002147,-0.00011330,-0.00005932,-0.00219909,0.00059824,-
 0.00072941,-0.00035428,-0.00002524,-0.00003185,-0.00062371,-0.00070908
 ,0.00073709,-0.00022061,-0.00011651,0.00002552,-0.00219985,-0.00002435
 ,0.00002673,-0.00062393,0.00054244,0.00077292,-0.00036492,-0.00065197,
 -0.00078520,-0.00020963,-0.02372832,-0.00102157,0.02321197\\-0.0000021
 2,0.00000067,-0.00000054,0.00000100,0.,-0.00000053,-0.00000017,-0.0000
 0085,0.00000073,-0.00000060,0.00000106,-0.00000006,-0.00000042,-0.0000
 0019,-0.00000074,0.00000203,-0.00000036,0.00000031,-0.00000022,0.00000
 005,0.00000038,0.00000009,-0.00000038,0.00000043,0.00000061,0.00000038
 ,0.00000162,0.00000038,-0.00000060,-0.00000011,-0.00000025,-0.00000013
 ,-0.00000102,0.00000025,0.00000045,-0.00000010,0.00000006,-0.00000027,
 0.00000128,-0.00000016,0.00000003,0.00000009,0.00000028,0.00000077,-0.
 00000037,-0.00000045,0.00000024,-0.00000102,0.00000003,-0.00000005,0.0
 0000082,0.00000033,-0.00000084,-0.00000011,0.00000021,0.00000019,0.000
 00039,-0.00000014,0.00000003,-0.00000103,-0.00000073,-0.00000022,-0.00
 000044\\\@


 IN THE UNIVERSE THE DIFFICULT THINGS ARE DONE AS IF THEY WERE EASY.

                                                          -- LAO-TSU
 Job cpu time:       0 days  0 hours 37 minutes 27.9 seconds.
 Elapsed time:       0 days  0 hours  0 minutes 35.7 seconds.
 File lengths (MBytes):  RWF=     83 Int=      0 D2E=      0 Chk=      4 Scr=      1
 Normal termination of Gaussian 16 at Fri Jan  2 16:34:40 2026.
