 Entering Gaussian System, Link 0=/project/xlzhang/shared/bin/g16/g16
 Input=/users/s1155246976/scratch/collidine_opt/collidine_opt.com
 Output=/users/s1155246976/scratch/collidine_opt/collidine_opt.log
 Initial command:
 /project/xlzhang/shared/bin/g16/l1.exe "/lustre/scratch/xlzhang/jingyi/collidine_opt/Gau-809489.inp" -scrdir="/lustre/scratch/xlzhang/jingyi/collidine_opt/"
 Entering Link 1 = /project/xlzhang/shared/bin/g16/l1.exe PID=    809490.
  
 Copyright (c) 1988-2017, Gaussian, Inc.  All Rights Reserved.
  
 This is part of the Gaussian(R) 16 program.  It is based on
 the Gaussian(R) 09 system (copyright 2009, Gaussian, Inc.),
 the Gaussian(R) 03 system (copyright 2003, Gaussian, Inc.),
 the Gaussian(R) 98 system (copyright 1998, Gaussian, Inc.),
 the Gaussian(R) 94 system (copyright 1995, Gaussian, Inc.),
 the Gaussian 92(TM) system (copyright 1992, Gaussian, Inc.),
 the Gaussian 90(TM) system (copyright 1990, Gaussian, Inc.),
 the Gaussian 88(TM) system (copyright 1988, Gaussian, Inc.),
 the Gaussian 86(TM) system (copyright 1986, Carnegie Mellon
 University), and the Gaussian 82(TM) system (copyright 1983,
 Carnegie Mellon University). Gaussian is a federally registered
 trademark of Gaussian, Inc.
  
 This software contains proprietary and confidential information,
 including trade secrets, belonging to Gaussian, Inc.
  
 This software is provided under written license and may be
 used, copied, transmitted, or stored only in accord with that
 written license.
  
 The following legend is applicable only to US Government
 contracts under FAR:
  
                    RESTRICTED RIGHTS LEGEND
  
 Use, reproduction and disclosure by the US Government is
 subject to restrictions as set forth in subparagraphs (a)
 and (c) of the Commercial Computer Software - Restricted
 Rights clause in FAR 52.227-19.
  
 Gaussian, Inc.
 340 Quinnipiac St., Bldg. 40, Wallingford CT 06492
  
  
 ---------------------------------------------------------------
 Warning -- This program may not be used in any manner that
 competes with the business of Gaussian, Inc. or will provide
 assistance to any competitor of Gaussian, Inc.  The licensee
 of this program is prohibited from giving any competitor of
 Gaussian, Inc. access to this program.  By using this program,
 the user acknowledges that Gaussian, Inc. is engaged in the
 business of creating and licensing software in the field of
 computational chemistry and represents and warrants to the
 licensee that it is not a competitor of Gaussian, Inc. and that
 it will not use this program in any manner prohibited above.
 ---------------------------------------------------------------
  

 Cite this work as:
 Gaussian 16, Revision B.01,
 M. J. Frisch, G. W. Trucks, H. B. Schlegel, G. E. Scuseria, 
 M. A. Robb, J. R. Cheeseman, G. Scalmani, V. Barone, 
 G. A. Petersson, H. Nakatsuji, X. Li, M. Caricato, A. V. Marenich, 
 J. Bloino, B. G. Janesko, R. Gomperts, B. Mennucci, H. P. Hratchian, 
 J. V. Ortiz, A. F. Izmaylov, J. L. Sonnenberg, D. Williams-Young, 
 F. Ding, F. Lipparini, F. Egidi, J. Goings, B. Peng, A. Petrone, 
 T. Henderson, D. Ranasinghe, V. G. Zakrzewski, J. Gao, N. Rega, 
 G. Zheng, W. Liang, M. Hada, M. Ehara, K. Toyota, R. Fukuda, 
 J. Hasegawa, M. Ishida, T. Nakajima, Y. Honda, O. Kitao, H. Nakai, 
 T. Vreven, K. Throssell, J. A. Montgomery, Jr., J. E. Peralta, 
 F. Ogliaro, M. J. Bearpark, J. J. Heyd, E. N. Brothers, K. N. Kudin, 
 V. N. Staroverov, T. A. Keith, R. Kobayashi, J. Normand, 
 K. Raghavachari, A. P. Rendell, J. C. Burant, S. S. Iyengar, 
 J. Tomasi, M. Cossi, J. M. Millam, M. Klene, C. Adamo, R. Cammi, 
 J. W. Ochterski, R. L. Martin, K. Morokuma, O. Farkas, 
 J. B. Foresman, and D. J. Fox, Gaussian, Inc., Wallingford CT, 2016.
 
 ******************************************
 Gaussian 16:  ES64L-G16RevB.01 20-Dec-2017
                 5-Jan-2026 
 ******************************************
 %chk=collidine_opt.chk
 %nprocshared=64
 Will use up to   64 processors via shared memory.
 %mem=180GB
 -----------------------
 # opt freq mn15 def2svp
 -----------------------
 1/18=20,19=15,26=3,38=1/1,3;
 2/9=110,12=2,17=6,18=5,40=1/2;
 3/5=43,7=101,11=2,25=1,30=1,71=1,74=-73/1,2,3;
 4//1;
 5/5=2,38=5/2;
 6/7=2,8=2,9=2,10=2,28=1/1;
 7//1,2,3,16;
 1/18=20,19=15,26=3/3(2);
 2/9=110/2;
 99//99;
 2/9=110/2;
 3/5=43,7=101,11=2,25=1,30=1,71=1,74=-73/1,2,3;
 4/5=5,16=3,69=1/1;
 5/5=2,38=5/2;
 7//1,2,3,16;
 1/18=20,19=15,26=3/3(-5);
 2/9=110/2;
 6/7=2,8=2,9=2,10=2,19=2,28=1/1;
 99/9=1/99;
 ----------------------------------
 Gaussian job with default settings
 ----------------------------------
 Symbolic Z-matrix:
 Charge =  0 Multiplicity = 1
 C                     0.13057  -0.7071    0.02943 
 C                     1.53145  -0.68679  -0.00851 
 C                     2.19816   0.53906  -0.02958 
 C                     1.44616   1.71458  -0.01214 
 C                     0.04737   1.63558   0.02589 
 N                    -0.56725   0.44096   0.04548 
 H                     2.08462  -1.60262  -0.02122 
 H                     1.93298   2.6673   -0.02767 
 C                     3.73663   0.59363  -0.07133 
 H                     4.13758  -0.26558   0.42453 
 H                     4.06566   0.60378  -1.08944 
 H                     4.07557   1.48062   0.4219 
 C                    -0.7911    2.92717   0.04538 
 H                    -0.958     3.22879   1.05833 
 H                    -0.2665    3.70084  -0.47531 
 H                    -1.73135   2.74926  -0.43333 
 C                    -0.61416  -2.05485   0.05291 
 H                    -0.03595  -2.79093  -0.46551 
 H                    -0.75936  -2.3645    1.06678 
 H                    -1.56462  -1.94554  -0.42624 
 

 GradGradGradGradGradGradGradGradGradGradGradGradGradGradGradGradGradGrad
 Berny optimization.
 Initialization pass.
                           ----------------------------
                           !    Initial Parameters    !
                           ! (Angstroms and Degrees)  !
 --------------------------                            --------------------------
 ! Name  Definition              Value          Derivative Info.                !
 --------------------------------------------------------------------------------
 ! R1    R(1,2)                  1.4015         estimate D2E/DX2                !
 ! R2    R(1,6)                  1.3436         estimate D2E/DX2                !
 ! R3    R(1,17)                 1.54           estimate D2E/DX2                !
 ! R4    R(2,3)                  1.3956         estimate D2E/DX2                !
 ! R5    R(2,7)                  1.07           estimate D2E/DX2                !
 ! R6    R(3,4)                  1.3956         estimate D2E/DX2                !
 ! R7    R(3,9)                  1.54           estimate D2E/DX2                !
 ! R8    R(4,5)                  1.4015         estimate D2E/DX2                !
 ! R9    R(4,8)                  1.07           estimate D2E/DX2                !
 ! R10   R(5,6)                  1.3436         estimate D2E/DX2                !
 ! R11   R(5,13)                 1.54           estimate D2E/DX2                !
 ! R12   R(9,10)                 1.07           estimate D2E/DX2                !
 ! R13   R(9,11)                 1.07           estimate D2E/DX2                !
 ! R14   R(9,12)                 1.07           estimate D2E/DX2                !
 ! R15   R(13,14)                1.07           estimate D2E/DX2                !
 ! R16   R(13,15)                1.07           estimate D2E/DX2                !
 ! R17   R(13,16)                1.07           estimate D2E/DX2                !
 ! R18   R(17,18)                1.07           estimate D2E/DX2                !
 ! R19   R(17,19)                1.07           estimate D2E/DX2                !
 ! R20   R(17,20)                1.07           estimate D2E/DX2                !
 ! A1    A(2,1,6)              120.468          estimate D2E/DX2                !
 ! A2    A(2,1,17)             119.766          estimate D2E/DX2                !
 ! A3    A(6,1,17)             119.766          estimate D2E/DX2                !
 ! A4    A(1,2,3)              119.383          estimate D2E/DX2                !
 ! A5    A(1,2,7)              120.3085         estimate D2E/DX2                !
 ! A6    A(3,2,7)              120.3085         estimate D2E/DX2                !
 ! A7    A(2,3,4)              118.8332         estimate D2E/DX2                !
 ! A8    A(2,3,9)              120.5834         estimate D2E/DX2                !
 ! A9    A(4,3,9)              120.5834         estimate D2E/DX2                !
 ! A10   A(3,4,5)              119.383          estimate D2E/DX2                !
 ! A11   A(3,4,8)              120.3085         estimate D2E/DX2                !
 ! A12   A(5,4,8)              120.3085         estimate D2E/DX2                !
 ! A13   A(4,5,6)              120.468          estimate D2E/DX2                !
 ! A14   A(4,5,13)             119.766          estimate D2E/DX2                !
 ! A15   A(6,5,13)             119.766          estimate D2E/DX2                !
 ! A16   A(1,6,5)              121.4649         estimate D2E/DX2                !
 ! A17   A(3,9,10)             109.4712         estimate D2E/DX2                !
 ! A18   A(3,9,11)             109.4712         estimate D2E/DX2                !
 ! A19   A(3,9,12)             109.4712         estimate D2E/DX2                !
 ! A20   A(10,9,11)            109.4712         estimate D2E/DX2                !
 ! A21   A(10,9,12)            109.4712         estimate D2E/DX2                !
 ! A22   A(11,9,12)            109.4712         estimate D2E/DX2                !
 ! A23   A(5,13,14)            109.4712         estimate D2E/DX2                !
 ! A24   A(5,13,15)            109.4712         estimate D2E/DX2                !
 ! A25   A(5,13,16)            109.4712         estimate D2E/DX2                !
 ! A26   A(14,13,15)           109.4712         estimate D2E/DX2                !
 ! A27   A(14,13,16)           109.4712         estimate D2E/DX2                !
 ! A28   A(15,13,16)           109.4712         estimate D2E/DX2                !
 ! A29   A(1,17,18)            109.4712         estimate D2E/DX2                !
 ! A30   A(1,17,19)            109.4712         estimate D2E/DX2                !
 ! A31   A(1,17,20)            109.4712         estimate D2E/DX2                !
 ! A32   A(18,17,19)           109.4712         estimate D2E/DX2                !
 ! A33   A(18,17,20)           109.4712         estimate D2E/DX2                !
 ! A34   A(19,17,20)           109.4712         estimate D2E/DX2                !
 ! D1    D(6,1,2,3)             -0.0001         estimate D2E/DX2                !
 ! D2    D(6,1,2,7)            179.9999         estimate D2E/DX2                !
 ! D3    D(17,1,2,3)           179.9999         estimate D2E/DX2                !
 ! D4    D(17,1,2,7)            -0.0001         estimate D2E/DX2                !
 ! D5    D(2,1,6,5)              0.0003         estimate D2E/DX2                !
 ! D6    D(17,1,6,5)          -179.9997         estimate D2E/DX2                !
 ! D7    D(2,1,17,18)          -30.0            estimate D2E/DX2                !
 ! D8    D(2,1,17,19)           90.0            estimate D2E/DX2                !
 ! D9    D(2,1,17,20)         -150.0            estimate D2E/DX2                !
 ! D10   D(6,1,17,18)          150.0            estimate D2E/DX2                !
 ! D11   D(6,1,17,19)          -90.0            estimate D2E/DX2                !
 ! D12   D(6,1,17,20)           30.0            estimate D2E/DX2                !
 ! D13   D(1,2,3,4)              0.0            estimate D2E/DX2                !
 ! D14   D(1,2,3,9)            180.0            estimate D2E/DX2                !
 ! D15   D(7,2,3,4)            179.9999         estimate D2E/DX2                !
 ! D16   D(7,2,3,9)             -0.0001         estimate D2E/DX2                !
 ! D17   D(2,3,4,5)              0.0            estimate D2E/DX2                !
 ! D18   D(2,3,4,8)           -180.0            estimate D2E/DX2                !
 ! D19   D(9,3,4,5)           -180.0            estimate D2E/DX2                !
 ! D20   D(9,3,4,8)              0.0            estimate D2E/DX2                !
 ! D21   D(2,3,9,10)           -30.0            estimate D2E/DX2                !
 ! D22   D(2,3,9,11)            90.0            estimate D2E/DX2                !
 ! D23   D(2,3,9,12)          -150.0            estimate D2E/DX2                !
 ! D24   D(4,3,9,10)           150.0            estimate D2E/DX2                !
 ! D25   D(4,3,9,11)           -90.0            estimate D2E/DX2                !
 ! D26   D(4,3,9,12)            30.0            estimate D2E/DX2                !
 ! D27   D(3,4,5,6)              0.0001         estimate D2E/DX2                !
 ! D28   D(3,4,5,13)          -179.9999         estimate D2E/DX2                !
 ! D29   D(8,4,5,6)           -179.9999         estimate D2E/DX2                !
 ! D30   D(8,4,5,13)             0.0001         estimate D2E/DX2                !
 ! D31   D(4,5,6,1)             -0.0003         estimate D2E/DX2                !
 ! D32   D(13,5,6,1)           179.9998         estimate D2E/DX2                !
 ! D33   D(4,5,13,14)          -90.0            estimate D2E/DX2                !
 ! D34   D(4,5,13,15)           30.0            estimate D2E/DX2                !
 ! D35   D(4,5,13,16)          150.0            estimate D2E/DX2                !
 ! D36   D(6,5,13,14)           90.0            estimate D2E/DX2                !
 ! D37   D(6,5,13,15)         -150.0            estimate D2E/DX2                !
 ! D38   D(6,5,13,16)          -30.0            estimate D2E/DX2                !
 --------------------------------------------------------------------------------
 Trust Radius=3.00D-01 FncErr=1.00D-07 GrdErr=1.00D-06 EigMax=2.50D+02 EigMin=1.00D-04
 Number of steps in this run=    102 maximum allowed number of steps=    120.
 GradGradGradGradGradGradGradGradGradGradGradGradGradGradGradGradGradGrad

                          Input orientation:                          
 ---------------------------------------------------------------------
 Center     Atomic      Atomic             Coordinates (Angstroms)
 Number     Number       Type             X           Y           Z
 ---------------------------------------------------------------------
      1          6           0        0.130565   -0.707102    0.029433
      2          6           0        1.531446   -0.686790   -0.008514
      3          6           0        2.198159    0.539057   -0.029579
      4          6           0        1.446164    1.714578   -0.012142
      5          6           0        0.047367    1.635578    0.025894
      6          7           0       -0.567247    0.440960    0.045476
      7          1           0        2.084618   -1.602617   -0.021216
      8          1           0        1.932976    2.667297   -0.027665
      9          6           0        3.736626    0.593631   -0.071332
     10          1           0        4.137584   -0.265583    0.424534
     11          1           0        4.065657    0.603779   -1.089436
     12          1           0        4.075570    1.480617    0.421896
     13          6           0       -0.791096    2.927166    0.045382
     14          1           0       -0.958005    3.228794    1.058329
     15          1           0       -0.266497    3.700842   -0.475312
     16          1           0       -1.731354    2.749264   -0.433331
     17          6           0       -0.614164   -2.054851    0.052907
     18          1           0       -0.035948   -2.790931   -0.465506
     19          1           0       -0.759364   -2.364502    1.066778
     20          1           0       -1.564622   -1.945543   -0.426239
 ---------------------------------------------------------------------
                    Distance matrix (angstroms):
                    1          2          3          4          5
     1  C    0.000000
     2  C    1.401542   0.000000
     3  C    2.414817   1.395583   0.000000
     4  C    2.756277   2.402885   1.395583   0.000000
     5  C    2.344160   2.756277   2.414817   1.401542   0.000000
     6  N    1.343595   2.383117   2.768164   2.383117   1.343595
     7  H    2.150077   1.070000   2.144698   3.378090   3.826031
     8  H    3.826031   3.378090   2.144698   1.070000   2.150077
     9  C    3.834805   2.550734   1.540000   2.550734   3.834805
    10  H    4.050586   2.675239   2.148263   3.369788   4.528046
    11  H    4.295954   3.042398   2.148263   3.042398   4.295954
    12  H    4.528046   3.369788   2.148263   2.675239   4.050586
    13  C    3.749349   4.296252   3.826791   2.545389   1.540000
    14  H    4.211282   4.761021   4.287144   3.036245   2.148263
    15  H    4.454481   4.764642   4.033620   2.663264   2.148263
    16  H    3.953146   4.757394   4.526489   3.368173   2.148263
    17  C    1.540000   2.545389   3.826791   4.296252   3.749349
    18  H    2.148263   2.663264   4.033620   4.764641   4.454480
    19  H    2.148263   3.036245   4.287144   4.761021   4.211282
    20  H    2.148263   3.368173   4.526489   4.757394   3.953146
                    6          7          8          9         10
     6  N    0.000000
     7  H    3.348588   0.000000
     8  H    3.348588   4.272611   0.000000
     9  C    4.308164   2.748663   2.748663   0.000000
    10  H    4.772664   2.490185   3.696832   1.070000   0.000000
    11  H    4.772666   3.151792   3.151792   1.070000   1.747303
    12  H    4.772664   3.696832   2.490185   1.070000   1.747303
    13  C    2.496263   5.365920   2.737414   5.095024   5.884666
    14  H    2.991753   5.810809   3.138859   5.500888   6.211071
    15  H    3.314891   5.818988   2.471090   5.083596   5.994846
    16  H    2.629195   5.802615   3.687627   5.888683   6.653545
    17  C    2.496263   2.737414   5.365920   5.095024   5.091041
    18  H    3.314891   2.471090   5.818988   5.083596   4.958621
    19  H    2.991753   3.138859   5.810809   5.500889   5.366381
    20  H    2.629195   3.687627   5.802615   5.888683   6.005101
                   11         12         13         14         15
    11  H    0.000000
    12  H    1.747303   0.000000
    13  C    5.502180   5.091041   0.000000
    14  H    6.061417   5.366381   1.070000   0.000000
    15  H    5.360644   4.958621   1.070000   1.747303   0.000000
    16  H    6.216021   6.005101   1.070000   1.747303   1.747303
    17  C    5.502180   5.884666   4.985164   5.389435   5.790327
    18  H    5.360644   5.994846   5.790327   6.277687   6.495873
    19  H    6.061418   6.211071   5.389435   5.596829   6.277687
    20  H    6.216021   6.653545   4.956215   5.417167   5.793893
                   16         17         18         19         20
    16  H    0.000000
    17  C    4.956215   0.000000
    18  H    5.793893   1.070000   0.000000
    19  H    5.417167   1.070000   1.747303   0.000000
    20  H    4.697772   1.070000   1.747303   1.747303   0.000000
 Stoichiometry    C8H11N
 Framework group  C1[X(C8H11N)]
 Deg. of freedom    54
 Full point group                 C1      NOp   1
 Largest Abelian subgroup         C1      NOp   1
 Largest concise Abelian subgroup C1      NOp   1
                         Standard orientation:                         
 ---------------------------------------------------------------------
 Center     Atomic      Atomic             Coordinates (Angstroms)
 Number     Number       Type             X           Y           Z
 ---------------------------------------------------------------------
      1          6           0       -0.716601   -1.172080    0.000001
      2          6           0        0.684633   -1.201443   -0.000000
      3          6           0        1.394696   -0.000001   -0.000000
      4          6           0        0.684634    1.201442   -0.000000
      5          6           0       -0.716600    1.172080    0.000001
      6          7           0       -1.373468    0.000001    0.000004
      7          1           0        1.205143   -2.136306   -0.000001
      8          1           0        1.205145    2.136305   -0.000000
      9          6           0        2.934696   -0.000001   -0.000000
     10          1           0        3.291362   -0.873653    0.504403
     11          1           0        3.291362   -0.000002   -1.008806
     12          1           0        3.291363    0.873650    0.504403
     13          6           0       -1.508984    2.492582   -0.000002
     14          1           0       -1.692502    2.798415    1.008804
     15          1           0       -0.943374    3.247937   -0.504406
     16          1           0       -2.441631    2.348887   -0.504404
     17          6           0       -1.508987   -2.492581   -0.000002
     18          1           0       -0.943377   -3.247936   -0.504406
     19          1           0       -1.692504   -2.798414    1.008804
     20          1           0       -2.441634   -2.348885   -0.504404
 ---------------------------------------------------------------------
 Rotational constants (GHZ):           1.8033364           1.7356642           0.8989485
 Standard basis: def2SVP (5D, 7F)
 There are   190 symmetry adapted cartesian basis functions of A   symmetry.
 There are   181 symmetry adapted basis functions of A   symmetry.
   181 basis functions,   302 primitive gaussians,   190 cartesian basis functions
    33 alpha electrons       33 beta electrons
       nuclear repulsion energy       422.0295506758 Hartrees.
 NAtoms=   20 NActive=   20 NUniq=   20 SFac= 1.00D+00 NAtFMM=   60 NAOKFM=F Big=F
 Integral buffers will be    131072 words long.
 Raffenetti 2 integral format.
 Two-electron integral symmetry is turned on.
 One-electron integrals computed using PRISM.
   1 Symmetry operations used in ECPInt.
 ECPInt:  NShTT=    3828 NPrTT=   13516 LenC2=    3787 LenP2D=   10522.
 LDataN:  DoStor=T MaxTD1= 4 Len=   56
 NBasis=   181 RedAO= T EigKep=  6.14D-04  NBF=   181
 NBsUse=   181 1.00D-06 EigRej= -1.00D+00 NBFU=   181
 ExpMin= 1.22D-01 ExpMax= 1.71D+03 ExpMxC= 2.58D+02 IAcc=3 IRadAn=         5 AccDes= 0.00D+00
 Harris functional with IExCor= 1009 and IRadAn=       5 diagonalized for initial guess.
 HarFok:  IExCor= 1009 AccDes= 0.00D+00 IRadAn=         5 IDoV= 1 UseB2=F ITyADJ=14
 ICtDFT=  3500011 ScaDFX=  1.000000  1.000000  1.000000  1.000000
 FoFCou: FMM=F IPFlag=           0 FMFlag=      100000 FMFlg1=           0
         NFxFlg=           0 DoJE=T BraDBF=F KetDBF=T FulRan=T
         wScrn=  0.000000 ICntrl=       500 IOpCl=  0 I1Cent=   200000004 NGrid=           0
         NMat0=    1 NMatS0=      1 NMatT0=    0 NMatD0=    1 NMtDS0=    0 NMtDT0=    0
 Petite list used in FoFCou.
 Requested convergence on RMS density matrix=1.00D-08 within 128 cycles.
 Requested convergence on MAX density matrix=1.00D-06.
 Requested convergence on             energy=1.00D-06.
 No special actions if energy rises.
 Integral accuracy reduced to 1.0D-05 until final iterations.
 Initial convergence to 1.0D-05 achieved.  Increase integral accuracy.
 SCF Done:  E(RMN15) =  -365.446140163     A.U. after   14 cycles
            NFock= 14  Conv=0.42D-08     -V/T= 2.0127

 **********************************************************************

            Population analysis using the SCF Density.

 **********************************************************************

 Orbital symmetries:
       Occupied  (A) (A) (A) (A) (A) (A) (A) (A) (A) (A) (A) (A)
                 (A) (A) (A) (A) (A) (A) (A) (A) (A) (A) (A) (A)
                 (A) (A) (A) (A) (A) (A) (A) (A) (A)
       Virtual   (A) (A) (A) (A) (A) (A) (A) (A) (A) (A) (A) (A)
                 (A) (A) (A) (A) (A) (A) (A) (A) (A) (A) (A) (A)
                 (A) (A) (A) (A) (A) (A) (A) (A) (A) (A) (A) (A)
                 (A) (A) (A) (A) (A) (A) (A) (A) (A) (A) (A) (A)
                 (A) (A) (A) (A) (A) (A) (A) (A) (A) (A) (A) (A)
                 (A) (A) (A) (A) (A) (A) (A) (A) (A) (A) (A) (A)
                 (A) (A) (A) (A) (A) (A) (A) (A) (A) (A) (A) (A)
                 (A) (A) (A) (A) (A) (A) (A) (A) (A) (A) (A) (A)
                 (A) (A) (A) (A) (A) (A) (A) (A) (A) (A) (A) (A)
                 (A) (A) (A) (A) (A) (A) (A) (A) (A) (A) (A) (A)
                 (A) (A) (A) (A) (A) (A) (A) (A) (A) (A) (A) (A)
                 (A) (A) (A) (A) (A) (A) (A) (A) (A) (A) (A) (A)
                 (A) (A) (A) (A)
 The electronic state is 1-A.
 Alpha  occ. eigenvalues --  -14.07905 -10.08851 -10.08846 -10.06938 -10.04957
 Alpha  occ. eigenvalues --  -10.04509 -10.04508 -10.03795 -10.03792  -0.96493
 Alpha  occ. eigenvalues --   -0.84386  -0.82020  -0.75588  -0.73828  -0.71606
 Alpha  occ. eigenvalues --   -0.63187  -0.60875  -0.53613  -0.52931  -0.48193
 Alpha  occ. eigenvalues --   -0.46791  -0.46222  -0.45573  -0.44396  -0.44150
 Alpha  occ. eigenvalues --   -0.44111  -0.41644  -0.39949  -0.39624  -0.38174
 Alpha  occ. eigenvalues --   -0.30138  -0.27894  -0.27695
 Alpha virt. eigenvalues --    0.01333   0.01884   0.11107   0.13227   0.13259
 Alpha virt. eigenvalues --    0.15157   0.15498   0.15500   0.18804   0.19249
 Alpha virt. eigenvalues --    0.19914   0.20162   0.21156   0.22516   0.25376
 Alpha virt. eigenvalues --    0.26286   0.26585   0.29477   0.32437   0.33556
 Alpha virt. eigenvalues --    0.37847   0.40393   0.42593   0.43176   0.44772
 Alpha virt. eigenvalues --    0.46119   0.47935   0.48650   0.49149   0.49293
 Alpha virt. eigenvalues --    0.50279   0.52219   0.56970   0.57070   0.59178
 Alpha virt. eigenvalues --    0.61716   0.62560   0.65116   0.65878   0.67581
 Alpha virt. eigenvalues --    0.68533   0.69577   0.69595   0.71247   0.71401
 Alpha virt. eigenvalues --    0.71733   0.72147   0.72649   0.73181   0.73251
 Alpha virt. eigenvalues --    0.74836   0.74911   0.75535   0.76676   0.77565
 Alpha virt. eigenvalues --    0.78384   0.83034   0.83575   0.84761   0.87745
 Alpha virt. eigenvalues --    0.96655   0.97540   1.02433   1.03628   1.14059
 Alpha virt. eigenvalues --    1.15476   1.16637   1.20366   1.20375   1.23876
 Alpha virt. eigenvalues --    1.26573   1.26859   1.31573   1.37120   1.38776
 Alpha virt. eigenvalues --    1.45070   1.46120   1.54255   1.54639   1.55203
 Alpha virt. eigenvalues --    1.57170   1.58568   1.58655   1.60131   1.61932
 Alpha virt. eigenvalues --    1.67813   1.69809   1.71786   1.73991   1.74832
 Alpha virt. eigenvalues --    1.76796   1.78748   1.79528   1.79911   1.81749
 Alpha virt. eigenvalues --    1.82381   1.83137   1.84166   1.84392   1.86740
 Alpha virt. eigenvalues --    1.91774   1.93683   1.95607   1.99066   2.01571
 Alpha virt. eigenvalues --    2.05905   2.06175   2.08270   2.08281   2.10557
 Alpha virt. eigenvalues --    2.12649   2.16422   2.19731   2.20986   2.25509
 Alpha virt. eigenvalues --    2.26426   2.28191   2.31241   2.32870   2.36059
 Alpha virt. eigenvalues --    2.40624   2.42555   2.43564   2.45572   2.47445
 Alpha virt. eigenvalues --    2.51439   2.53070   2.57547   2.59466   2.64301
 Alpha virt. eigenvalues --    2.66662   2.69364   2.76073   2.76123   2.76962
 Alpha virt. eigenvalues --    2.81557   2.87186   2.88241   2.90951   2.91127
 Alpha virt. eigenvalues --    2.91703   2.92612   2.93984   3.01098   3.03354
 Alpha virt. eigenvalues --    3.03557   3.28109   3.48734
          Condensed to atoms (all electrons):
               1          2          3          4          5          6
     1  C    4.935333   0.416154   0.023726  -0.076813  -0.035345   0.523905
     2  C    0.416154   5.065326   0.369384   0.020171  -0.076813  -0.041574
     3  C    0.023726   0.369384   5.045479   0.369384   0.023726  -0.057179
     4  C   -0.076813   0.020171   0.369384   5.065326   0.416154  -0.041574
     5  C   -0.035345  -0.076813   0.023726   0.416154   4.935333   0.523905
     6  N    0.523905  -0.041574  -0.057179  -0.041574   0.523905   6.295576
     7  H   -0.049834   0.412877  -0.066012   0.015776   0.000085   0.007388
     8  H    0.000085   0.015776  -0.066012   0.412877  -0.049834   0.007388
     9  C    0.010927  -0.077583   0.425663  -0.077583   0.010927   0.000029
    10  H    0.001056  -0.007710  -0.011611   0.007106  -0.000587   0.000022
    11  H   -0.000336  -0.001440  -0.005937  -0.001440  -0.000336   0.000030
    12  H   -0.000587   0.007106  -0.011611  -0.007710   0.001056   0.000022
    13  C    0.007258   0.000380   0.008297  -0.104123   0.408527  -0.074068
    14  H   -0.000093   0.000058  -0.000280   0.000258  -0.004072   0.000060
    15  H   -0.000228  -0.000136   0.002163  -0.007167  -0.008677   0.003943
    16  H    0.000317   0.000199  -0.000561   0.010768  -0.001047   0.007637
    17  C    0.408527  -0.104123   0.008297   0.000380   0.007258  -0.074068
    18  H   -0.008677  -0.007167   0.002163  -0.000136  -0.000228   0.003943
    19  H   -0.004072   0.000258  -0.000280   0.000058  -0.000093   0.000060
    20  H   -0.001047   0.010768  -0.000561   0.000199   0.000317   0.007637
               7          8          9         10         11         12
     1  C   -0.049834   0.000085   0.010927   0.001056  -0.000336  -0.000587
     2  C    0.412877   0.015776  -0.077583  -0.007710  -0.001440   0.007106
     3  C   -0.066012  -0.066012   0.425663  -0.011611  -0.005937  -0.011611
     4  C    0.015776   0.412877  -0.077583   0.007106  -0.001440  -0.007710
     5  C    0.000085  -0.049834   0.010927  -0.000587  -0.000336   0.001056
     6  N    0.007388   0.007388   0.000029   0.000022   0.000030   0.000022
     7  H    0.752085  -0.000205  -0.016086   0.005473   0.001038   0.000194
     8  H   -0.000205   0.752085  -0.016086   0.000194   0.001038   0.005473
     9  C   -0.016086  -0.016086   4.482287   0.377575   0.377266   0.377575
    10  H    0.005473   0.000194   0.377575   0.653653  -0.015858  -0.020356
    11  H    0.001038   0.001038   0.377266  -0.015858   0.628216  -0.015858
    12  H    0.000194   0.005473   0.377575  -0.020356  -0.015858   0.653653
    13  C    0.000066  -0.010754  -0.000267   0.000010   0.000015   0.000000
    14  H   -0.000002   0.000625   0.000014   0.000000   0.000000  -0.000006
    15  H   -0.000004   0.002712   0.000005  -0.000000  -0.000007   0.000007
    16  H   -0.000006  -0.000039   0.000009  -0.000000  -0.000000  -0.000000
    17  C   -0.010754   0.000066  -0.000267   0.000000   0.000015   0.000010
    18  H    0.002712  -0.000004   0.000005   0.000007  -0.000007  -0.000000
    19  H    0.000625  -0.000002   0.000014  -0.000006   0.000000   0.000000
    20  H   -0.000039  -0.000006   0.000009  -0.000000  -0.000000  -0.000000
              13         14         15         16         17         18
     1  C    0.007258  -0.000093  -0.000228   0.000317   0.408527  -0.008677
     2  C    0.000380   0.000058  -0.000136   0.000199  -0.104123  -0.007167
     3  C    0.008297  -0.000280   0.002163  -0.000561   0.008297   0.002163
     4  C   -0.104123   0.000258  -0.007167   0.010768   0.000380  -0.000136
     5  C    0.408527  -0.004072  -0.008677  -0.001047   0.007258  -0.000228
     6  N   -0.074068   0.000060   0.003943   0.007637  -0.074068   0.003943
     7  H    0.000066  -0.000002  -0.000004  -0.000006  -0.010754   0.002712
     8  H   -0.010754   0.000625   0.002712  -0.000039   0.000066  -0.000004
     9  C   -0.000267   0.000014   0.000005   0.000009  -0.000267   0.000005
    10  H    0.000010   0.000000  -0.000000  -0.000000   0.000000   0.000007
    11  H    0.000015   0.000000  -0.000007  -0.000000   0.000015  -0.000007
    12  H    0.000000  -0.000006   0.000007  -0.000000   0.000010  -0.000000
    13  C    4.519347   0.372513   0.374033   0.353286   0.000018   0.000004
    14  H    0.372513   0.630139  -0.017286  -0.010573   0.000003  -0.000000
    15  H    0.374033  -0.017286   0.666600  -0.017499   0.000004   0.000000
    16  H    0.353286  -0.010573  -0.017499   0.640737  -0.000132   0.000001
    17  C    0.000018   0.000003   0.000004  -0.000132   4.519347   0.374033
    18  H    0.000004  -0.000000   0.000000   0.000001   0.374033   0.666600
    19  H    0.000003  -0.000005  -0.000000   0.000010   0.372513  -0.017286
    20  H   -0.000132   0.000010   0.000001   0.000068   0.353286  -0.017499
              19         20
     1  C   -0.004072  -0.001047
     2  C    0.000258   0.010768
     3  C   -0.000280  -0.000561
     4  C    0.000058   0.000199
     5  C   -0.000093   0.000317
     6  N    0.000060   0.007637
     7  H    0.000625  -0.000039
     8  H   -0.000002  -0.000006
     9  C    0.000014   0.000009
    10  H   -0.000006  -0.000000
    11  H    0.000000  -0.000000
    12  H    0.000000  -0.000000
    13  C    0.000003  -0.000132
    14  H   -0.000005   0.000010
    15  H   -0.000000   0.000001
    16  H    0.000010   0.000068
    17  C    0.372513   0.353286
    18  H   -0.017286  -0.017499
    19  H    0.630139  -0.010573
    20  H   -0.010573   0.640737
 Mulliken charges:
               1
     1  C   -0.150255
     2  C   -0.001913
     3  C   -0.058238
     4  C   -0.001913
     5  C   -0.150255
     6  N   -0.093083
     7  H   -0.055377
     8  H   -0.055377
     9  C    0.125569
    10  H    0.011035
    11  H    0.033599
    12  H    0.011035
    13  C    0.145588
    14  H    0.028639
    15  H    0.001535
    16  H    0.016825
    17  C    0.145588
    18  H    0.001535
    19  H    0.028639
    20  H    0.016825
 Sum of Mulliken charges =  -0.00000
 Mulliken charges with hydrogens summed into heavy atoms:
               1
     1  C   -0.150255
     2  C   -0.057290
     3  C   -0.058238
     4  C   -0.057290
     5  C   -0.150255
     6  N   -0.093083
     9  C    0.181238
    13  C    0.192587
    17  C    0.192587
 Electronic spatial extent (au):  <R**2>=           1338.8746
 Charge=             -0.0000 electrons
 Dipole moment (field-independent basis, Debye):
    X=              1.8250    Y=             -0.0000    Z=              0.0490  Tot=              1.8256
 Quadrupole moment (field-independent basis, Debye-Ang):
   XX=            -53.9747   YY=            -48.6624   ZZ=            -56.0318
   XY=              0.0000   XZ=             -0.2791   YZ=              0.0000
 Traceless Quadrupole moment (field-independent basis, Debye-Ang):
   XX=             -1.0851   YY=              4.2273   ZZ=             -3.1422
   XY=              0.0000   XZ=             -0.2791   YZ=              0.0000
 Octapole moment (field-independent basis, Debye-Ang**2):
  XXX=             10.9337  YYY=              0.0000  ZZZ=              0.5589  XYY=             -3.2030
  XXY=             -0.0000  XXZ=             -0.9183  XZZ=             -1.6612  YZZ=              0.0000
  YYZ=              0.8845  XYZ=              0.0000
 Hexadecapole moment (field-independent basis, Debye-Ang**3):
 XXXX=           -882.1154 YYYY=           -847.2184 ZZZZ=            -77.4664 XXXY=              0.0000
 XXXZ=              1.7718 YYYX=             -0.0000 YYYZ=              0.0000 ZZZX=             -3.9453
 ZZZY=              0.0000 XXYY=           -279.7277 XXZZ=           -156.9439 YYZZ=           -156.4059
 XXYZ=             -0.0000 YYXZ=             -1.2985 ZZXY=             -0.0000
 N-N= 4.220295506758D+02 E-N=-1.689496918164D+03  KE= 3.608611188213D+02
   1 Symmetry operations used in ECPInt.
 ECPInt:  NShTT=    3828 NPrTT=   13516 LenC2=    3787 LenP2D=   10522.
 LDataN:  DoStor=T MaxTD1= 5 Len=  102
 Calling FoFJK, ICntrl=      2127 FMM=F ISym2X=0 I1Cent= 0 IOpClX= 0 NMat=1 NMatS=1 NMatT=0.
 ***** Axes restored to original set *****
 -------------------------------------------------------------------
 Center     Atomic                   Forces (Hartrees/Bohr)
 Number     Number              X              Y              Z
 -------------------------------------------------------------------
      1        6          -0.002632072   -0.000377544   -0.001123655
      2        6          -0.011321548    0.014762343    0.000190733
      3        6           0.021189703    0.000754510    0.001316986
      4        6          -0.010245831   -0.015527640    0.000236553
      5        6          -0.002652111    0.000186478   -0.001124483
      6        7          -0.007714940   -0.000273838    0.000094851
      7        1           0.009021223   -0.014969896   -0.000269348
      8        1           0.007936587    0.015571262   -0.000315517
      9        6          -0.042814258   -0.001515352    0.003410928
     10        1           0.009886038   -0.016050441    0.008212594
     11        1           0.008764730    0.000281238   -0.019881661
     12        1           0.008721655    0.016736007    0.008163064
     13        6           0.019937182   -0.037588938   -0.003746962
     14        1          -0.004715880    0.007161122    0.019984918
     15        1           0.009528862    0.016081325   -0.008443440
     16        1          -0.018176513   -0.003554396   -0.007222684
     17        6           0.017220856    0.038897078   -0.003862485
     18        1           0.010646548   -0.015390253   -0.008395901
     19        1          -0.004198143   -0.007417286    0.020006937
     20        1          -0.018382089    0.002234220   -0.007231429
 -------------------------------------------------------------------
 Cartesian Forces:  Max     0.042814258 RMS     0.013676170

 GradGradGradGradGradGradGradGradGradGradGradGradGradGradGradGradGradGrad
 Berny optimization.
 FormGI is forming the generalized inverse of G from B-inverse, IUseBI=4.
 Internal  Forces:  Max     0.021673543 RMS     0.008283205
 Search for a local minimum.
 Step number   1 out of a maximum of  102
 All quantities printed in internal units (Hartrees-Bohrs-Radians)
 Mixed Optimization -- RFO/linear search
 Second derivative matrix not updated -- first step.
 ITU=  0
     Eigenvalues ---    0.00237   0.00237   0.00237   0.01242   0.01312
     Eigenvalues ---    0.01388   0.02102   0.02104   0.02133   0.02145
     Eigenvalues ---    0.02351   0.07243   0.07243   0.07243   0.07243
     Eigenvalues ---    0.07243   0.07243   0.16000   0.16000   0.16000
     Eigenvalues ---    0.16000   0.16000   0.16000   0.16000   0.16000
     Eigenvalues ---    0.16000   0.16000   0.16000   0.23489   0.23516
     Eigenvalues ---    0.25000   0.25000   0.25000   0.25000   0.28519
     Eigenvalues ---    0.28519   0.28519   0.37230   0.37230   0.37230
     Eigenvalues ---    0.37230   0.37230   0.37230   0.37230   0.37230
     Eigenvalues ---    0.37230   0.37230   0.37230   0.41928   0.44178
     Eigenvalues ---    0.45367   0.46187   0.54288   0.55690
 RFO step:  Lambda=-1.76287843D-02 EMin= 2.36824139D-03
 Linear search not attempted -- first point.
 Iteration  1 RMS(Cart)=  0.04401610 RMS(Int)=  0.00050587
 Iteration  2 RMS(Cart)=  0.00069635 RMS(Int)=  0.00008109
 Iteration  3 RMS(Cart)=  0.00000049 RMS(Int)=  0.00008109
 Variable       Old X    -DE/DX   Delta X   Delta X   Delta X     New X
                                 (Linear)    (Quad)   (Total)
    R1        2.64853   0.00060   0.00000   0.00124   0.00124   2.64977
    R2        2.53903  -0.01181   0.00000  -0.02123  -0.02123   2.51779
    R3        2.91018  -0.01859   0.00000  -0.06137  -0.06137   2.84880
    R4        2.63727  -0.00029   0.00000   0.00053   0.00053   2.63780
    R5        2.02201   0.01748   0.00000   0.04483   0.04483   2.06684
    R6        2.63727  -0.00029   0.00000   0.00053   0.00053   2.63780
    R7        2.91018  -0.01544   0.00000  -0.05100  -0.05100   2.85918
    R8        2.64853   0.00060   0.00000   0.00124   0.00124   2.64977
    R9        2.02201   0.01748   0.00000   0.04483   0.04483   2.06684
   R10        2.53903  -0.01181   0.00000  -0.02123  -0.02123   2.51779
   R11        2.91018  -0.01859   0.00000  -0.06137  -0.06137   2.84880
   R12        2.02201   0.02040   0.00000   0.05231   0.05231   2.07432
   R13        2.02201   0.02162   0.00000   0.05543   0.05543   2.07744
   R14        2.02201   0.02040   0.00000   0.05231   0.05231   2.07432
   R15        2.02201   0.02167   0.00000   0.05558   0.05558   2.07759
   R16        2.02201   0.02041   0.00000   0.05234   0.05234   2.07435
   R17        2.02201   0.01979   0.00000   0.05077   0.05077   2.07277
   R18        2.02201   0.02041   0.00000   0.05234   0.05234   2.07435
   R19        2.02201   0.02167   0.00000   0.05558   0.05558   2.07759
   R20        2.02201   0.01979   0.00000   0.05077   0.05077   2.07277
    A1        2.10256   0.00816   0.00000   0.02870   0.02869   2.13125
    A2        2.09031   0.00343   0.00000   0.01372   0.01369   2.10400
    A3        2.09031  -0.01159   0.00000  -0.04242  -0.04245   2.04786
    A4        2.08363  -0.00063   0.00000  -0.00000   0.00001   2.08363
    A5        2.09978   0.00030   0.00000  -0.00009  -0.00010   2.09968
    A6        2.09978   0.00033   0.00000   0.00009   0.00009   2.09987
    A7        2.07403  -0.00677   0.00000  -0.02086  -0.02089   2.05314
    A8        2.10458   0.00339   0.00000   0.01043   0.01040   2.11498
    A9        2.10458   0.00339   0.00000   0.01043   0.01040   2.11498
   A10        2.08363  -0.00063   0.00000  -0.00000   0.00001   2.08363
   A11        2.09978   0.00033   0.00000   0.00009   0.00009   2.09987
   A12        2.09978   0.00030   0.00000  -0.00009  -0.00010   2.09968
   A13        2.10256   0.00816   0.00000   0.02870   0.02869   2.13125
   A14        2.09031   0.00343   0.00000   0.01372   0.01369   2.10400
   A15        2.09031  -0.01159   0.00000  -0.04242  -0.04245   2.04786
   A16        2.11996  -0.00828   0.00000  -0.03653  -0.03650   2.08346
   A17        1.91063   0.00266   0.00000   0.01587   0.01574   1.92637
   A18        1.91063   0.00184   0.00000   0.00853   0.00848   1.91912
   A19        1.91063   0.00266   0.00000   0.01587   0.01574   1.92637
   A20        1.91063  -0.00266   0.00000  -0.01682  -0.01687   1.89376
   A21        1.91063  -0.00182   0.00000  -0.00662  -0.00682   1.90381
   A22        1.91063  -0.00266   0.00000  -0.01682  -0.01687   1.89376
   A23        1.91063   0.00160   0.00000   0.00649   0.00647   1.91710
   A24        1.91063   0.00216   0.00000   0.01472   0.01466   1.92529
   A25        1.91063  -0.00031   0.00000  -0.00179  -0.00182   1.90881
   A26        1.91063  -0.00186   0.00000  -0.01039  -0.01045   1.90019
   A27        1.91063  -0.00181   0.00000  -0.01530  -0.01530   1.89533
   A28        1.91063   0.00022   0.00000   0.00627   0.00621   1.91685
   A29        1.91063   0.00216   0.00000   0.01472   0.01466   1.92529
   A30        1.91063   0.00160   0.00000   0.00649   0.00647   1.91710
   A31        1.91063  -0.00031   0.00000  -0.00179  -0.00182   1.90881
   A32        1.91063  -0.00186   0.00000  -0.01039  -0.01045   1.90019
   A33        1.91063   0.00022   0.00000   0.00627   0.00621   1.91685
   A34        1.91063  -0.00181   0.00000  -0.01530  -0.01530   1.89533
    D1       -0.00000   0.00004   0.00000   0.00039   0.00034   0.00034
    D2        3.14159   0.00007   0.00000   0.00106   0.00097  -3.14062
    D3        3.14159   0.00042   0.00000   0.01307   0.01330  -3.12829
    D4       -0.00000   0.00046   0.00000   0.01373   0.01394   0.01393
    D5        0.00000  -0.00010   0.00000  -0.00018  -0.00015  -0.00015
    D6       -3.14159  -0.00049   0.00000  -0.01285  -0.01272   3.12888
    D7       -0.52360   0.00031   0.00000   0.00108   0.00120  -0.52240
    D8        1.57080   0.00034   0.00000   0.00135   0.00148   1.57227
    D9       -2.61799  -0.00109   0.00000  -0.01452  -0.01443  -2.63242
   D10        2.61799   0.00070   0.00000   0.01367   0.01356   2.63155
   D11       -1.57080   0.00072   0.00000   0.01393   0.01384  -1.55696
   D12        0.52360  -0.00071   0.00000  -0.00193  -0.00207   0.52153
   D13       -0.00000   0.00002   0.00000  -0.00060  -0.00051  -0.00051
   D14        3.14159   0.00047   0.00000   0.01366   0.01360  -3.12799
   D15        3.14159  -0.00001   0.00000  -0.00127  -0.00114   3.14045
   D16       -0.00000   0.00044   0.00000   0.01299   0.01297   0.01297
   D17        0.00000  -0.00002   0.00000   0.00060   0.00051   0.00051
   D18       -3.14159   0.00001   0.00000   0.00127   0.00114  -3.14045
   D19       -3.14159  -0.00047   0.00000  -0.01366  -0.01360   3.12799
   D20        0.00000  -0.00044   0.00000  -0.01299  -0.01297  -0.01297
   D21       -0.52360   0.00028   0.00000  -0.00159  -0.00158  -0.52518
   D22        1.57080  -0.00023   0.00000  -0.00725  -0.00730   1.56349
   D23       -2.61799  -0.00074   0.00000  -0.01292  -0.01303  -2.63102
   D24        2.61799   0.00074   0.00000   0.01292   0.01303   2.63102
   D25       -1.57080   0.00023   0.00000   0.00725   0.00730  -1.56349
   D26        0.52360  -0.00028   0.00000   0.00159   0.00158   0.52518
   D27        0.00000  -0.00004   0.00000  -0.00039  -0.00034  -0.00034
   D28       -3.14159  -0.00042   0.00000  -0.01307  -0.01330   3.12829
   D29       -3.14159  -0.00007   0.00000  -0.00106  -0.00097   3.14062
   D30        0.00000  -0.00046   0.00000  -0.01373  -0.01394  -0.01393
   D31       -0.00000   0.00010   0.00000   0.00018   0.00015   0.00015
   D32        3.14159   0.00049   0.00000   0.01285   0.01272  -3.12888
   D33       -1.57080  -0.00034   0.00000  -0.00135  -0.00148  -1.57227
   D34        0.52360  -0.00031   0.00000  -0.00108  -0.00120   0.52240
   D35        2.61799   0.00109   0.00000   0.01452   0.01443   2.63242
   D36        1.57080  -0.00072   0.00000  -0.01393  -0.01384   1.55696
   D37       -2.61799  -0.00070   0.00000  -0.01367  -0.01356  -2.63155
   D38       -0.52360   0.00071   0.00000   0.00193   0.00207  -0.52153
         Item               Value     Threshold  Converged?
 Maximum Force            0.021674     0.000450     NO 
 RMS     Force            0.008283     0.000300     NO 
 Maximum Displacement     0.180771     0.001800     NO 
 RMS     Displacement     0.044377     0.001200     NO 
 Predicted change in Energy=-9.289908D-03
 GradGradGradGradGradGradGradGradGradGradGradGradGradGradGradGradGradGrad

                          Input orientation:                          
 ---------------------------------------------------------------------
 Center     Atomic      Atomic             Coordinates (Angstroms)
 Number     Number       Type             X           Y           Z
 ---------------------------------------------------------------------
      1          6           0        0.140390   -0.684875    0.017527
      2          6           0        1.542338   -0.679156   -0.008462
      3          6           0        2.222094    0.539917   -0.023382
      4          6           0        1.457570    1.707737   -0.012068
      5          6           0        0.058746    1.614067    0.014055
      6          7           0       -0.572374    0.440752    0.028209
      7          1           0        2.097973   -1.621183   -0.017560
      8          1           0        1.944980    2.686775   -0.024067
      9          6           0        3.733465    0.593522   -0.069099
     10          1           0        4.162272   -0.285147    0.429874
     11          1           0        4.077135    0.604150   -1.113280
     12          1           0        4.098807    1.501899    0.427175
     13          6           0       -0.792123    2.858152    0.044055
     14          1           0       -0.983946    3.154032    1.085385
     15          1           0       -0.280896    3.681925   -0.470710
     16          1           0       -1.752857    2.653604   -0.444064
     17          6           0       -0.620084   -1.986088    0.051372
     18          1           0       -0.051653   -2.773070   -0.460960
     19          1           0       -0.790546   -2.291687    1.093611
     20          1           0       -1.592856   -1.851682   -0.437258
 ---------------------------------------------------------------------
                    Distance matrix (angstroms):
                    1          2          3          4          5
     1  C    0.000000
     2  C    1.402200   0.000000
     3  C    2.415632   1.395861   0.000000
     4  C    2.731378   2.388400   1.395861   0.000000
     5  C    2.300394   2.731378   2.415632   1.402200   0.000000
     6  N    1.332359   2.393229   2.796703   2.393229   1.332359
     7  H    2.170262   1.093722   2.164669   3.389964   3.824434
     8  H    3.824434   3.389964   2.164669   1.093722   2.170262
     9  C    3.814707   2.534645   1.513013   2.534645   3.814707
    10  H    4.062677   2.685412   2.156493   3.388556   4.540799
    11  H    4.293980   3.048391   2.152482   3.048391   4.293980
    12  H    4.540799   3.388556   2.156493   2.685412   4.062677
    13  C    3.663785   4.238515   3.803191   2.527394   1.507522
    14  H    4.140249   4.719316   4.282716   3.042560   2.146263
    15  H    4.414159   4.749409   4.041940   2.670213   2.150904
    16  H    3.865604   4.706947   4.521602   3.374630   2.138320
    17  C    1.507522   2.527394   3.803191   4.238515   3.663785
    18  H    2.150904   2.670213   4.041940   4.749409   4.414159
    19  H    2.146263   3.042560   4.282716   4.719316   4.140249
    20  H    2.138320   3.374630   4.521602   4.706947   3.865604
                    6          7          8          9         10
     6  N    0.000000
     7  H    3.374081   0.000000
     8  H    3.374081   4.310679   0.000000
     9  C    4.309647   2.753618   2.753618   0.000000
    10  H    4.806780   2.499304   3.735608   1.097684   0.000000
    11  H    4.790368   3.173293   3.173293   1.099334   1.783094
    12  H    4.806780   3.735608   2.499304   1.097684   1.788175
    13  C    2.427419   5.331125   2.743309   5.061847   5.880069
    14  H    2.940902   5.789421   3.166674   5.490265   6.224244
    15  H    3.292276   5.829865   2.478778   5.080809   6.024156
    16  H    2.552116   5.769281   3.721760   5.872331   6.662491
    17  C    2.427419   2.743309   5.331125   5.061847   5.089931
    18  H    3.292276   2.478778   5.829865   5.080809   4.973983
    19  H    2.940902   3.166674   5.789421   5.490265   5.384901
    20  H    2.552116   3.721760   5.769281   5.872331   6.027226
                   11         12         13         14         15
    11  H    0.000000
    12  H    1.783094   0.000000
    13  C    5.489045   5.089931   0.000000
    14  H    6.078697   5.384901   1.099413   0.000000
    15  H    5.373827   4.973983   1.097697   1.787284   0.000000
    16  H    6.215860   6.027226   1.096864   1.783498   1.795779
    17  C    5.489045   5.880069   4.847300   5.255703   5.702104
    18  H    5.373828   6.024156   5.702104   6.196038   6.459071
    19  H    6.078697   6.224244   5.255703   5.449159   6.196038
    20  H    6.215860   6.662491   4.801601   5.267484   5.687105
                   16         17         18         19         20
    16  H    0.000000
    17  C    4.801601   0.000000
    18  H    5.687105   1.097697   0.000000
    19  H    5.267484   1.099413   1.787284   0.000000
    20  H    4.508132   1.096864   1.795779   1.783498   0.000000
 Stoichiometry    C8H11N
 Framework group  C1[X(C8H11N)]
 Deg. of freedom    54
 Full point group                 C1      NOp   1
 Largest Abelian subgroup         C1      NOp   1
 Largest concise Abelian subgroup C1      NOp   1
                         Standard orientation:                         
 ---------------------------------------------------------------------
 Center     Atomic      Atomic             Coordinates (Angstroms)
 Number     Number       Type             X           Y           Z
 ---------------------------------------------------------------------
      1          6           0       -0.709647   -1.150197   -0.007405
      2          6           0        0.691831   -1.194200    0.001886
      3          6           0        1.414527   -0.000000    0.006997
      4          6           0        0.691831    1.194200    0.001886
      5          6           0       -0.709647    1.150197   -0.007405
      6          7           0       -1.382111    0.000000   -0.011949
      7          1           0        1.213783   -2.155339    0.004502
      8          1           0        1.213783    2.155339    0.004503
      9          6           0        2.927521   -0.000000   -0.000565
     10          1           0        3.312196   -0.894087    0.506922
     11          1           0        3.297575    0.000000   -1.035744
     12          1           0        3.312196    0.894087    0.506922
     13          6           0       -1.516373    2.423650    0.004176
     14          1           0       -1.723791    2.724579    1.041060
     15          1           0       -0.963452    3.229536   -0.495588
     16          1           0       -2.471138    2.254066   -0.508441
     17          6           0       -1.516374   -2.423650    0.004176
     18          1           0       -0.963452   -3.229536   -0.495588
     19          1           0       -1.723791   -2.724579    1.041060
     20          1           0       -2.471138   -2.254066   -0.508441
 ---------------------------------------------------------------------
 Rotational constants (GHZ):           1.8790004           1.7228183           0.9143860
 Standard basis: def2SVP (5D, 7F)
 There are   190 symmetry adapted cartesian basis functions of A   symmetry.
 There are   181 symmetry adapted basis functions of A   symmetry.
   181 basis functions,   302 primitive gaussians,   190 cartesian basis functions
    33 alpha electrons       33 beta electrons
       nuclear repulsion energy       423.8767327943 Hartrees.
 NAtoms=   20 NActive=   20 NUniq=   20 SFac= 1.00D+00 NAtFMM=   60 NAOKFM=F Big=F
 Integral buffers will be    131072 words long.
 Raffenetti 2 integral format.
 Two-electron integral symmetry is turned on.
 One-electron integrals computed using PRISM.
   1 Symmetry operations used in ECPInt.
 ECPInt:  NShTT=    3828 NPrTT=   13516 LenC2=    3788 LenP2D=   10528.
 LDataN:  DoStor=T MaxTD1= 4 Len=   56
 NBasis=   181 RedAO= T EigKep=  6.02D-04  NBF=   181
 NBsUse=   181 1.00D-06 EigRej= -1.00D+00 NBFU=   181
 Initial guess from the checkpoint file:  "collidine_opt.chk"
 B after Tr=    -0.000000    0.000000   -0.000000
         Rot=    1.000000    0.000000   -0.000005   -0.000000 Ang=  -0.00 deg.
 ExpMin= 1.22D-01 ExpMax= 1.71D+03 ExpMxC= 2.58D+02 IAcc=3 IRadAn=         5 AccDes= 0.00D+00
 Harris functional with IExCor= 1009 and IRadAn=       5 diagonalized for initial guess.
 HarFok:  IExCor= 1009 AccDes= 0.00D+00 IRadAn=         5 IDoV= 1 UseB2=F ITyADJ=14
 ICtDFT=  3500011 ScaDFX=  1.000000  1.000000  1.000000  1.000000
 FoFCou: FMM=F IPFlag=           0 FMFlag=      100000 FMFlg1=           0
         NFxFlg=           0 DoJE=T BraDBF=F KetDBF=T FulRan=T
         wScrn=  0.000000 ICntrl=       500 IOpCl=  0 I1Cent=   200000004 NGrid=           0
         NMat0=    1 NMatS0=      1 NMatT0=    0 NMatD0=    1 NMtDS0=    0 NMtDT0=    0
 Petite list used in FoFCou.
 Requested convergence on RMS density matrix=1.00D-08 within 128 cycles.
 Requested convergence on MAX density matrix=1.00D-06.
 Requested convergence on             energy=1.00D-06.
 No special actions if energy rises.
 Integral accuracy reduced to 1.0D-05 until final iterations.
 Initial convergence to 1.0D-05 achieved.  Increase integral accuracy.
 SCF Done:  E(RMN15) =  -365.455304212     A.U. after   12 cycles
            NFock= 12  Conv=0.77D-08     -V/T= 2.0132
   1 Symmetry operations used in ECPInt.
 ECPInt:  NShTT=    3828 NPrTT=   13516 LenC2=    3788 LenP2D=   10528.
 LDataN:  DoStor=T MaxTD1= 5 Len=  102
 Calling FoFJK, ICntrl=      2127 FMM=F ISym2X=0 I1Cent= 0 IOpClX= 0 NMat=1 NMatS=1 NMatT=0.
 ***** Axes restored to original set *****
 -------------------------------------------------------------------
 Center     Atomic                   Forces (Hartrees/Bohr)
 Number     Number              X              Y              Z
 -------------------------------------------------------------------
      1        6           0.003102582   -0.006092290   -0.000032251
      2        6          -0.002667197    0.000943845   -0.000090502
      3        6           0.007532531    0.000268403    0.000590728
      4        6          -0.002593511   -0.001130941   -0.000087336
      5        6           0.002662592    0.006296908   -0.000050971
      6        7          -0.004122774   -0.000146686   -0.000178847
      7        1          -0.000495030   -0.000099124   -0.000017648
      8        1          -0.000500813    0.000063704   -0.000017914
      9        6          -0.009105070   -0.000321153    0.001458881
     10        1           0.001869582   -0.000177022   -0.000552830
     11        1           0.001858868    0.000065320   -0.000460690
     12        1           0.001852374    0.000307532   -0.000553561
     13        6           0.003381211   -0.004358624   -0.002305473
     14        1          -0.001246824    0.001478484    0.000500346
     15        1          -0.001080818    0.002215964    0.000959818
     16        1          -0.000744971    0.000515424    0.000842022
     17        6           0.003063746    0.004580526   -0.002318981
     18        1          -0.000921001   -0.002284147    0.000966615
     19        1          -0.001138854   -0.001561690    0.000504939
     20        1          -0.000706621   -0.000564430    0.000843654
 -------------------------------------------------------------------
 Cartesian Forces:  Max     0.009105070 RMS     0.002507439

 GradGradGradGradGradGradGradGradGradGradGradGradGradGradGradGradGradGrad
 Berny optimization.
 Using GEDIIS/GDIIS optimizer.
 FormGI is forming the generalized inverse of G from B-inverse, IUseBI=4.
 Internal  Forces:  Max     0.004452430 RMS     0.001285035
 Search for a local minimum.
 Step number   2 out of a maximum of  102
 All quantities printed in internal units (Hartrees-Bohrs-Radians)
 Mixed Optimization -- RFO/linear search
 Update second derivatives using D2CorX and points    1    2
 DE= -9.16D-03 DEPred=-9.29D-03 R= 9.86D-01
 TightC=F SS=  1.41D+00  RLast= 2.32D-01 DXNew= 5.0454D-01 6.9653D-01
 Trust test= 9.86D-01 RLast= 2.32D-01 DXMaxT set to 5.05D-01
 ITU=  1  0
 Use linear search instead of GDIIS.
     Eigenvalues ---    0.00237   0.00237   0.00237   0.01263   0.01334
     Eigenvalues ---    0.01382   0.02102   0.02104   0.02133   0.02145
     Eigenvalues ---    0.02346   0.07032   0.07092   0.07104   0.07129
     Eigenvalues ---    0.07194   0.07230   0.15231   0.16000   0.16000
     Eigenvalues ---    0.16000   0.16000   0.16000   0.16000   0.16000
     Eigenvalues ---    0.16000   0.16000   0.16018   0.23316   0.23533
     Eigenvalues ---    0.24798   0.24997   0.24999   0.25387   0.28051
     Eigenvalues ---    0.28519   0.28927   0.37008   0.37230   0.37230
     Eigenvalues ---    0.37230   0.37230   0.37230   0.37230   0.37230
     Eigenvalues ---    0.37230   0.37230   0.38229   0.41823   0.44224
     Eigenvalues ---    0.45438   0.46181   0.55635   0.56747
 RFO step:  Lambda=-7.73305550D-04 EMin= 2.36782911D-03
 Quartic linear search produced a step of  0.05193.
 Iteration  1 RMS(Cart)=  0.02309595 RMS(Int)=  0.00050482
 Iteration  2 RMS(Cart)=  0.00051896 RMS(Int)=  0.00004989
 Iteration  3 RMS(Cart)=  0.00000014 RMS(Int)=  0.00004989
 Variable       Old X    -DE/DX   Delta X   Delta X   Delta X     New X
                                 (Linear)    (Quad)   (Total)
    R1        2.64977  -0.00119   0.00006  -0.00276  -0.00270   2.64708
    R2        2.51779   0.00445  -0.00110   0.00888   0.00778   2.52557
    R3        2.84880  -0.00030  -0.00319  -0.00016  -0.00334   2.84546
    R4        2.63780   0.00200   0.00003   0.00418   0.00421   2.64201
    R5        2.06684  -0.00017   0.00233  -0.00113   0.00119   2.06803
    R6        2.63780   0.00200   0.00003   0.00418   0.00421   2.64201
    R7        2.85918  -0.00352  -0.00265  -0.01217  -0.01482   2.84436
    R8        2.64977  -0.00119   0.00006  -0.00276  -0.00270   2.64708
    R9        2.06684  -0.00017   0.00233  -0.00113   0.00119   2.06803
   R10        2.51779   0.00445  -0.00110   0.00888   0.00778   2.52557
   R11        2.84880  -0.00030  -0.00319  -0.00016  -0.00334   2.84546
   R12        2.07432   0.00062   0.00272   0.00097   0.00369   2.07801
   R13        2.07744   0.00102   0.00288   0.00205   0.00493   2.08237
   R14        2.07432   0.00062   0.00272   0.00097   0.00369   2.07801
   R15        2.07759   0.00109   0.00289   0.00224   0.00513   2.08272
   R16        2.07435   0.00071   0.00272   0.00122   0.00394   2.07829
   R17        2.07277   0.00018   0.00264  -0.00024   0.00239   2.07517
   R18        2.07435   0.00071   0.00272   0.00122   0.00394   2.07829
   R19        2.07759   0.00109   0.00289   0.00224   0.00513   2.08272
   R20        2.07277   0.00018   0.00264  -0.00024   0.00239   2.07517
    A1        2.13125  -0.00107   0.00149  -0.00459  -0.00311   2.12814
    A2        2.10400   0.00169   0.00071   0.00664   0.00733   2.11133
    A3        2.04786  -0.00062  -0.00220  -0.00215  -0.00437   2.04349
    A4        2.08363   0.00145   0.00000   0.00585   0.00586   2.08949
    A5        2.09968  -0.00122  -0.00001  -0.00614  -0.00616   2.09353
    A6        2.09987  -0.00023   0.00000   0.00030   0.00029   2.10016
    A7        2.05314  -0.00085  -0.00108  -0.00495  -0.00604   2.04710
    A8        2.11498   0.00042   0.00054   0.00238   0.00287   2.11785
    A9        2.11498   0.00042   0.00054   0.00238   0.00287   2.11785
   A10        2.08363   0.00145   0.00000   0.00585   0.00586   2.08949
   A11        2.09987  -0.00023   0.00000   0.00030   0.00029   2.10016
   A12        2.09968  -0.00122  -0.00001  -0.00614  -0.00616   2.09353
   A13        2.13125  -0.00107   0.00149  -0.00459  -0.00311   2.12814
   A14        2.10400   0.00169   0.00071   0.00664   0.00733   2.11133
   A15        2.04786  -0.00062  -0.00220  -0.00215  -0.00437   2.04349
   A16        2.08346   0.00008  -0.00190   0.00244   0.00054   2.08400
   A17        1.92637   0.00192   0.00082   0.01321   0.01391   1.94028
   A18        1.91912   0.00137   0.00044   0.00706   0.00746   1.92658
   A19        1.92637   0.00192   0.00082   0.01321   0.01391   1.94028
   A20        1.89376  -0.00195  -0.00088  -0.01422  -0.01514   1.87863
   A21        1.90381  -0.00147  -0.00035  -0.00605  -0.00657   1.89724
   A22        1.89376  -0.00195  -0.00088  -0.01422  -0.01514   1.87863
   A23        1.91710   0.00141   0.00034   0.00661   0.00690   1.92400
   A24        1.92529   0.00318   0.00076   0.02314   0.02377   1.94907
   A25        1.90881   0.00038  -0.00009   0.00252   0.00235   1.91116
   A26        1.90019  -0.00233  -0.00054  -0.01503  -0.01567   1.88452
   A27        1.89533  -0.00171  -0.00079  -0.01611  -0.01690   1.87843
   A28        1.91685  -0.00102   0.00032  -0.00181  -0.00164   1.91521
   A29        1.92529   0.00318   0.00076   0.02314   0.02377   1.94907
   A30        1.91710   0.00141   0.00034   0.00661   0.00690   1.92400
   A31        1.90881   0.00038  -0.00009   0.00252   0.00235   1.91116
   A32        1.90019  -0.00233  -0.00054  -0.01503  -0.01567   1.88452
   A33        1.91685  -0.00102   0.00032  -0.00181  -0.00164   1.91521
   A34        1.89533  -0.00171  -0.00079  -0.01611  -0.01690   1.87843
    D1        0.00034   0.00005   0.00002   0.00141   0.00142   0.00176
    D2       -3.14062   0.00009   0.00005   0.00304   0.00308  -3.13754
    D3       -3.12829   0.00018   0.00069   0.01104   0.01175  -3.11654
    D4        0.01393   0.00022   0.00072   0.01267   0.01341   0.02734
    D5       -0.00015  -0.00016  -0.00001  -0.00367  -0.00371  -0.00385
    D6        3.12888  -0.00028  -0.00066  -0.01294  -0.01357   3.11531
    D7       -0.52240   0.00035   0.00006   0.03033   0.03042  -0.49199
    D8        1.57227   0.00037   0.00008   0.03051   0.03063   1.60291
    D9       -2.63242  -0.00064  -0.00075   0.01635   0.01554  -2.61688
   D10        2.63155   0.00048   0.00070   0.03953   0.04025   2.67181
   D11       -1.55696   0.00050   0.00072   0.03971   0.04047  -1.51649
   D12        0.52153  -0.00051  -0.00011   0.02555   0.02538   0.54691
   D13       -0.00051   0.00007  -0.00003   0.00086   0.00086   0.00035
   D14       -3.12799   0.00027   0.00071   0.01538   0.01607  -3.11192
   D15        3.14045   0.00003  -0.00006  -0.00077  -0.00081   3.13965
   D16        0.01297   0.00023   0.00067   0.01375   0.01441   0.02738
   D17        0.00051  -0.00007   0.00003  -0.00086  -0.00086  -0.00035
   D18       -3.14045  -0.00003   0.00006   0.00077   0.00081  -3.13965
   D19        3.12799  -0.00027  -0.00071  -0.01538  -0.01607   3.11192
   D20       -0.01297  -0.00023  -0.00067  -0.01375  -0.01441  -0.02738
   D21       -0.52518   0.00023  -0.00008  -0.00272  -0.00278  -0.52796
   D22        1.56349  -0.00011  -0.00038  -0.00755  -0.00795   1.55554
   D23       -2.63102  -0.00045  -0.00068  -0.01237  -0.01312  -2.64414
   D24        2.63102   0.00045   0.00068   0.01237   0.01312   2.64414
   D25       -1.56349   0.00011   0.00038   0.00755   0.00795  -1.55554
   D26        0.52518  -0.00023   0.00008   0.00272   0.00278   0.52796
   D27       -0.00034  -0.00005  -0.00002  -0.00141  -0.00142  -0.00176
   D28        3.12829  -0.00018  -0.00069  -0.01104  -0.01175   3.11654
   D29        3.14062  -0.00009  -0.00005  -0.00304  -0.00308   3.13754
   D30       -0.01393  -0.00022  -0.00072  -0.01267  -0.01341  -0.02734
   D31        0.00015   0.00016   0.00001   0.00367   0.00371   0.00385
   D32       -3.12888   0.00028   0.00066   0.01294   0.01357  -3.11531
   D33       -1.57227  -0.00037  -0.00008  -0.03051  -0.03063  -1.60291
   D34        0.52240  -0.00035  -0.00006  -0.03033  -0.03042   0.49199
   D35        2.63242   0.00064   0.00075  -0.01635  -0.01554   2.61688
   D36        1.55696  -0.00050  -0.00072  -0.03971  -0.04047   1.51649
   D37       -2.63155  -0.00048  -0.00070  -0.03953  -0.04025  -2.67181
   D38       -0.52153   0.00051   0.00011  -0.02555  -0.02538  -0.54691
         Item               Value     Threshold  Converged?
 Maximum Force            0.004452     0.000450     NO 
 RMS     Force            0.001285     0.000300     NO 
 Maximum Displacement     0.087713     0.001800     NO 
 RMS     Displacement     0.023141     0.001200     NO 
 Predicted change in Energy=-4.122940D-04
 GradGradGradGradGradGradGradGradGradGradGradGradGradGradGradGradGradGrad

                          Input orientation:                          
 ---------------------------------------------------------------------
 Center     Atomic      Atomic             Coordinates (Angstroms)
 Number     Number       Type             X           Y           Z
 ---------------------------------------------------------------------
      1          6           0        0.145514   -0.688443    0.008665
      2          6           0        1.546160   -0.678733   -0.007504
      3          6           0        2.230755    0.540232   -0.017963
      4          6           0        1.461412    1.707588   -0.011109
      5          6           0        0.063605    1.617963    0.005181
      6          7           0       -0.569238    0.440839    0.012531
      7          1           0        2.099035   -1.623135   -0.014062
      8          1           0        1.945900    2.688808   -0.020575
      9          6           0        3.733953    0.593533   -0.073548
     10          1           0        4.180803   -0.283999    0.415800
     11          1           0        4.079218    0.604214   -1.119947
     12          1           0        4.117374    1.502026    0.413102
     13          6           0       -0.791840    2.856471    0.045246
     14          1           0       -1.022158    3.127129    1.088503
     15          1           0       -0.287704    3.713680   -0.424391
     16          1           0       -1.744084    2.660961   -0.465534
     17          6           0       -0.619921   -1.984388    0.052559
     18          1           0       -0.056197   -2.805088   -0.414544
     19          1           0       -0.830571   -2.267554    1.096652
     20          1           0       -1.583581   -1.858464   -0.458707
 ---------------------------------------------------------------------
                    Distance matrix (angstroms):
                    1          2          3          4          5
     1  C    0.000000
     2  C    1.400772   0.000000
     3  C    2.420450   1.398090   0.000000
     4  C    2.733669   2.387828   1.398090   0.000000
     5  C    2.307863   2.733669   2.420450   1.400772   0.000000
     6  N    1.336475   2.393481   2.801922   2.393481   1.336475
     7  H    2.165735   1.094354   2.167377   3.391208   3.827279
     8  H    3.827279   3.391208   2.167377   1.094354   2.165735
     9  C    3.811445   2.531692   1.505170   2.531692   3.811445
    10  H    4.075892   2.697471   2.161064   3.397611   4.553833
    11  H    4.291708   3.049569   2.152970   3.049569   4.291708
    12  H    4.553833   3.397611   2.161064   2.697471   4.075892
    13  C    3.666932   4.238713   3.808548   2.529872   1.505753
    14  H    4.133775   4.720389   4.300900   3.064695   2.151755
    15  H    4.444536   4.778090   4.071681   2.693439   2.167943
    16  H    3.874785   4.710526   4.527379   3.375000   2.139429
    17  C    1.505753   2.529872   3.808548   4.238713   3.666932
    18  H    2.167943   2.693439   4.071681   4.778090   4.444536
    19  H    2.151754   3.064695   4.300900   4.720389   4.133775
    20  H    2.139429   3.375000   4.527379   4.710526   3.874785
                    6          7          8          9         10
     6  N    0.000000
     7  H    3.373481   0.000000
     8  H    3.373481   4.314666   0.000000
     9  C    4.306759   2.755016   2.755016   0.000000
    10  H    4.821919   2.512335   3.744702   1.099636   0.000000
    11  H    4.787206   3.178867   3.178867   1.101941   1.777009
    12  H    4.821919   3.744702   2.512335   1.099636   1.787153
    13  C    2.426087   5.331749   2.743659   5.061403   5.892966
    14  H    2.928994   5.789862   3.198679   5.512718   6.257726
    15  H    3.313857   5.860588   2.490466   5.102170   6.054331
    16  H    2.556903   5.772943   3.716820   5.868288   6.674866
    17  C    2.426087   2.743659   5.331749   5.061403   5.105901
    18  H    3.313857   2.490466   5.860588   5.102170   4.999753
    19  H    2.928994   3.198679   5.789862   5.512718   5.432487
    20  H    2.556903   3.716820   5.772943   5.868288   6.039191
                   11         12         13         14         15
    11  H    0.000000
    12  H    1.777009   0.000000
    13  C    5.491589   5.105901   0.000000
    14  H    6.104620   5.432487   1.102128   0.000000
    15  H    5.405792   4.999753   1.099781   1.781098   0.000000
    16  H    6.210420   6.039191   1.098130   1.775816   1.797485
    17  C    5.491589   5.892966   4.843916   5.230925   5.727637
    18  H    5.405792   6.054331   5.727637   6.195436   6.522885
    19  H    6.104620   6.257725   5.230925   5.398090   6.195436
    20  H    6.210420   6.674866   4.807435   5.250256   5.720949
                   16         17         18         19         20
    16  H    0.000000
    17  C    4.807435   0.000000
    18  H    5.720949   1.099781   0.000000
    19  H    5.250256   1.102128   1.781098   0.000000
    20  H    4.522279   1.098130   1.797485   1.775816   0.000000
 Stoichiometry    C8H11N
 Framework group  C1[X(C8H11N)]
 Deg. of freedom    54
 Full point group                 C1      NOp   1
 Largest Abelian subgroup         C1      NOp   1
 Largest concise Abelian subgroup C1      NOp   1
                         Standard orientation:                         
 ---------------------------------------------------------------------
 Center     Atomic      Atomic             Coordinates (Angstroms)
 Number     Number       Type             X           Y           Z
 ---------------------------------------------------------------------
      1          6           0       -0.706842   -1.153932   -0.013761
      2          6           0        0.693232   -1.193914    0.005179
      3          6           0        1.420647    0.000000    0.014795
      4          6           0        0.693232    1.193914    0.005179
      5          6           0       -0.706842    1.153932   -0.013761
      6          7           0       -1.380992    0.000000   -0.025087
      7          1           0        1.212278   -2.157333    0.010204
      8          1           0        1.212278    2.157333    0.010204
      9          6           0        2.925711    0.000000   -0.002996
     10          1           0        3.328748   -0.893576    0.495283
     11          1           0        3.297309    0.000000   -1.040391
     12          1           0        3.328748    0.893576    0.495283
     13          6           0       -1.518589    2.421958    0.007839
     14          1           0       -1.765298    2.699045    1.045645
     15          1           0       -0.972753    3.261442   -0.446967
     16          1           0       -2.464036    2.261140   -0.527099
     17          6           0       -1.518589   -2.421958    0.007839
     18          1           0       -0.972753   -3.261442   -0.446966
     19          1           0       -1.765298   -2.699045    1.045646
     20          1           0       -2.464036   -2.261140   -0.527099
 ---------------------------------------------------------------------
 Rotational constants (GHZ):           1.8777629           1.7193710           0.9130082
 Standard basis: def2SVP (5D, 7F)
 There are   190 symmetry adapted cartesian basis functions of A   symmetry.
 There are   181 symmetry adapted basis functions of A   symmetry.
   181 basis functions,   302 primitive gaussians,   190 cartesian basis functions
    33 alpha electrons       33 beta electrons
       nuclear repulsion energy       423.5389846634 Hartrees.
 NAtoms=   20 NActive=   20 NUniq=   20 SFac= 1.00D+00 NAtFMM=   60 NAOKFM=F Big=F
 Integral buffers will be    131072 words long.
 Raffenetti 2 integral format.
 Two-electron integral symmetry is turned on.
 One-electron integrals computed using PRISM.
   1 Symmetry operations used in ECPInt.
 ECPInt:  NShTT=    3828 NPrTT=   13516 LenC2=    3788 LenP2D=   10520.
 LDataN:  DoStor=T MaxTD1= 4 Len=   56
 NBasis=   181 RedAO= T EigKep=  6.02D-04  NBF=   181
 NBsUse=   181 1.00D-06 EigRej= -1.00D+00 NBFU=   181
 Initial guess from the checkpoint file:  "collidine_opt.chk"
 B after Tr=     0.000000    0.000000    0.000000
         Rot=    1.000000   -0.000000    0.000387   -0.000000 Ang=   0.04 deg.
 ExpMin= 1.22D-01 ExpMax= 1.71D+03 ExpMxC= 2.58D+02 IAcc=3 IRadAn=         5 AccDes= 0.00D+00
 Harris functional with IExCor= 1009 and IRadAn=       5 diagonalized for initial guess.
 HarFok:  IExCor= 1009 AccDes= 0.00D+00 IRadAn=         5 IDoV= 1 UseB2=F ITyADJ=14
 ICtDFT=  3500011 ScaDFX=  1.000000  1.000000  1.000000  1.000000
 FoFCou: FMM=F IPFlag=           0 FMFlag=      100000 FMFlg1=           0
         NFxFlg=           0 DoJE=T BraDBF=F KetDBF=T FulRan=T
         wScrn=  0.000000 ICntrl=       500 IOpCl=  0 I1Cent=   200000004 NGrid=           0
         NMat0=    1 NMatS0=      1 NMatT0=    0 NMatD0=    1 NMtDS0=    0 NMtDT0=    0
 Petite list used in FoFCou.
 Requested convergence on RMS density matrix=1.00D-08 within 128 cycles.
 Requested convergence on MAX density matrix=1.00D-06.
 Requested convergence on             energy=1.00D-06.
 No special actions if energy rises.
 Integral accuracy reduced to 1.0D-05 until final iterations.
 Initial convergence to 1.0D-05 achieved.  Increase integral accuracy.
 SCF Done:  E(RMN15) =  -365.455782701     A.U. after   12 cycles
            NFock= 12  Conv=0.51D-08     -V/T= 2.0133
   1 Symmetry operations used in ECPInt.
 ECPInt:  NShTT=    3828 NPrTT=   13516 LenC2=    3788 LenP2D=   10520.
 LDataN:  DoStor=T MaxTD1= 5 Len=  102
 Calling FoFJK, ICntrl=      2127 FMM=F ISym2X=0 I1Cent= 0 IOpClX= 0 NMat=1 NMatS=1 NMatT=0.
 ***** Axes restored to original set *****
 -------------------------------------------------------------------
 Center     Atomic                   Forces (Hartrees/Bohr)
 Number     Number              X              Y              Z
 -------------------------------------------------------------------
      1        6           0.000952671   -0.001175269    0.000717076
      2        6          -0.000244410    0.000356863   -0.000136882
      3        6           0.000905335    0.000031168   -0.000647820
      4        6          -0.000218467   -0.000373708   -0.000135781
      5        6           0.000866821    0.001242044    0.000713423
      6        7          -0.001206060   -0.000042999   -0.000113697
      7        1          -0.000300791    0.000410813    0.000057352
      8        1          -0.000270898   -0.000430941    0.000058623
      9        6          -0.001290587   -0.000044757    0.000715655
     10        1           0.000241465    0.000467957   -0.000449769
     11        1           0.000260735    0.000009891    0.000417891
     12        1           0.000274103   -0.000451000   -0.000448379
     13        6           0.000532488   -0.000821873   -0.000957238
     14        1          -0.000212725   -0.000038983   -0.000414678
     15        1          -0.000480487   -0.000262333    0.000589821
     16        1           0.000203834    0.000332804    0.000409444
     17        6           0.000472948    0.000854683   -0.000959773
     18        1          -0.000497950    0.000229366    0.000589078
     19        1          -0.000214910    0.000022544   -0.000414771
     20        1           0.000226886   -0.000316269    0.000410425
 -------------------------------------------------------------------
 Cartesian Forces:  Max     0.001290587 RMS     0.000559125

 GradGradGradGradGradGradGradGradGradGradGradGradGradGradGradGradGradGrad
 Berny optimization.
 Using GEDIIS/GDIIS optimizer.
 FormGI is forming the generalized inverse of G from B-inverse, IUseBI=4.
 Internal  Forces:  Max     0.000710273 RMS     0.000329319
 Search for a local minimum.
 Step number   3 out of a maximum of  102
 All quantities printed in internal units (Hartrees-Bohrs-Radians)
 Mixed Optimization -- En-DIIS/RFO-DIIS
 Update second derivatives using D2CorX and points    1    2    3
 DE= -4.78D-04 DEPred=-4.12D-04 R= 1.16D+00
 TightC=F SS=  1.41D+00  RLast= 1.37D-01 DXNew= 8.4853D-01 4.0985D-01
 Trust test= 1.16D+00 RLast= 1.37D-01 DXMaxT set to 5.05D-01
 ITU=  1  1  0
 Use linear search instead of GDIIS.
     Eigenvalues ---    0.00220   0.00237   0.00237   0.01265   0.01333
     Eigenvalues ---    0.01440   0.02104   0.02104   0.02125   0.02145
     Eigenvalues ---    0.02345   0.06561   0.06878   0.06891   0.07030
     Eigenvalues ---    0.07063   0.07181   0.13264   0.16000   0.16000
     Eigenvalues ---    0.16000   0.16000   0.16000   0.16000   0.16000
     Eigenvalues ---    0.16000   0.16009   0.16192   0.22837   0.23526
     Eigenvalues ---    0.24548   0.24988   0.24996   0.25592   0.27892
     Eigenvalues ---    0.28519   0.29254   0.37150   0.37230   0.37230
     Eigenvalues ---    0.37230   0.37230   0.37230   0.37230   0.37230
     Eigenvalues ---    0.37230   0.37296   0.40607   0.41826   0.44483
     Eigenvalues ---    0.45375   0.46179   0.55637   0.56750
 RFO step:  Lambda=-1.06514062D-04 EMin= 2.19736161D-03
 Quartic linear search produced a step of  0.21597.
 Iteration  1 RMS(Cart)=  0.02542583 RMS(Int)=  0.00058168
 Iteration  2 RMS(Cart)=  0.00060449 RMS(Int)=  0.00001872
 Iteration  3 RMS(Cart)=  0.00000028 RMS(Int)=  0.00001872
 Variable       Old X    -DE/DX   Delta X   Delta X   Delta X     New X
                                 (Linear)    (Quad)   (Total)
    R1        2.64708  -0.00033  -0.00058  -0.00058  -0.00117   2.64591
[...]
 735,-0.00113743,0.00197404,0.00004500,-0.00119586,0.00306429,0.0004747
 7,0.00941697,0.01542082,-0.00045954,-0.11154627,-0.11554314,0.00347201
 ,-0.00460108,-0.02679858,0.00044231,-0.00698358,-0.00143373,0.00066363
 ,0.00054739,0.00077228,0.00001680,0.11337063,0.00075643,0.00019179,-0.
 00002830,0.00378696,-0.00210087,-0.00026100,-0.01354884,-0.01674588,0.
 00060983,-0.11636548,-0.28902896,0.00542577,0.00254809,-0.00007913,-0.
 00007208,-0.00002791,0.00196732,-0.00007310,-0.00067316,-0.00084551,0.
 00005656,0.12278626,0.30433605,-0.00003638,-0.00004871,-0.00029605,0.0
 0053517,0.00006981,0.00719127,-0.00097532,-0.00082729,0.00343461,0.003
 53716,0.00512411,-0.03635316,0.00045924,0.00139333,0.00151081,0.000674
 10,-0.00001377,0.00708813,0.00002282,-0.00005138,0.00040194,-0.0042471
 6,-0.00569131,0.02545833,0.00239544,-0.00131870,-0.00030019,-0.0202507
 1,-0.00423100,0.00162055,-0.24294537,-0.00551182,0.01238027,-0.0224848
 1,0.00243816,0.00184944,0.00217064,0.00181516,-0.00021283,-0.00121848,
 -0.00005032,0.00018216,0.00140588,0.00163237,0.00025567,0.00145557,-0.
 00160194,0.00020547,0.51527175,-0.00134735,-0.00482011,0.00130649,-0.0
 2897602,0.00280527,0.00343233,-0.00552042,-0.08741291,0.00046124,0.027
 18350,0.00502572,-0.00329992,0.00184088,-0.00459741,-0.00128695,-0.000
 04912,0.00020433,0.00000116,-0.00090333,0.00103669,-0.00077460,0.00093
 345,0.00098869,0.00077663,-0.00294668,0.59872483,-0.00120541,-0.000626
 27,0.00777905,0.00183871,0.00122272,0.00698021,0.00669226,0.00025923,-
 0.07294120,0.00183564,-0.00108305,0.00699385,-0.00125297,0.00057672,0.
 00778115,0.00097136,0.00002918,-0.00331185,0.00012398,0.00021338,-0.00
 373520,0.00013655,-0.00021847,-0.00373689,0.01374548,0.00041447,0.5500
 4167,0.00004192,0.00037156,0.00039520,0.00163415,0.00147555,0.00068942
 ,-0.01283230,0.02639280,-0.01363210,-0.00505335,-0.00201197,0.00028543
 ,0.00005682,0.00136835,0.00091435,-0.00007470,-0.00054132,-0.00023792,
 0.00009900,-0.00100112,-0.00032838,-0.00003163,0.00002535,-0.00026564,
 -0.09347083,0.09268913,-0.05229884,0.10255607,0.00041201,-0.00009059,-
 0.00058949,-0.00194610,0.00069601,-0.00040304,-0.00109057,0.00169711,-
 0.00254729,0.00024661,0.00048149,0.00049906,-0.00029385,-0.00017541,0.
 00004602,-0.00005818,0.00048369,0.00023825,0.00053700,0.00004866,0.000
 52911,-0.00017940,0.00032144,0.00005641,0.09433146,-0.22885715,0.09891
 890,-0.10191650,0.24042377,-0.00022652,0.00017448,-0.00006911,0.000047
 55,0.00003061,0.00033885,0.00400559,-0.00434652,0.00049227,0.00033580,
 0.00013555,0.00061812,0.00097815,0.00011907,0.00000318,-0.00015035,-0.
 00060180,0.00005679,-0.00033896,-0.00018368,0.00005084,-0.00002094,0.0
 0010535,0.00000899,-0.05393360,0.09923929,-0.09603648,0.05482680,-0.10
 700498,0.09913479,-0.00009757,0.00039507,-0.00152118,-0.00063143,0.000
 90898,-0.00097970,-0.01048400,-0.00031408,0.03060365,-0.00070612,-0.00
 093351,-0.00101674,0.00002014,-0.00034973,-0.00155391,-0.00044733,-0.0
 0006161,0.00057293,0.00009165,-0.00027917,0.00063512,0.00006879,0.0002
 9616,0.00065312,-0.06130250,-0.00059757,0.07470404,0.00301318,-0.00085
 239,-0.01270398,0.06814692,0.00130835,-0.00068349,-0.00053000,-0.00198
 279,-0.00040588,-0.00059489,-0.00035812,-0.00034947,0.00108989,0.00196
 026,-0.00032704,0.00052638,-0.00125712,-0.00079968,0.00042331,-0.00006
 291,0.00130977,0.00001812,-0.00002616,-0.00014229,0.00028826,0.0000414
 6,-0.00012020,-0.00024291,-0.00060387,-0.04131688,0.00225743,-0.007529
 37,0.00083840,0.02361708,0.00086080,0.04058707,0.00041255,-0.00000962,
 0.00008952,-0.00030824,-0.00081836,0.00042808,0.00145216,0.00005460,0.
 00166816,-0.00037155,0.00079661,0.00042395,0.00041461,0.00004151,0.000
 08801,-0.00028496,-0.00001235,-0.00016125,0.00008483,-0.00000590,-0.00
 026501,0.00008411,0.00001150,-0.00026423,0.07053044,0.00210921,-0.3031
 9618,0.00337870,-0.00154850,-0.01080044,-0.07872607,-0.00236976,0.3226
 5940,0.00013148,-0.00134374,0.00091938,-0.00515048,0.00161241,0.000314
 63,-0.01096772,-0.02733552,-0.01369727,0.00159605,-0.00140953,0.000663
 48,0.00009668,-0.00035716,0.00035348,-0.00011427,0.00049806,-0.0002219
 4,-0.00004072,-0.00005188,-0.00026081,0.00006598,0.00100145,-0.0002930
 4,-0.08090875,-0.08229293,-0.04490022,0.00439901,0.01064713,0.00713568
 ,0.00240997,0.00765350,0.00323867,0.08881659,0.00031866,-0.00025036,0.
 00001976,-0.00064605,0.00057677,-0.00047750,0.00020075,-0.00014770,0.0
 0157578,0.00201021,0.00073531,0.00044995,-0.00039940,-0.00014408,0.000
 61623,0.00001510,0.00052431,-0.00025594,0.00015361,0.00033001,-0.00007
 606,-0.00053677,0.00008057,-0.00055122,-0.08394015,-0.24202725,-0.1019
 4822,-0.00918182,-0.01591793,-0.01125098,0.00093072,0.00137391,0.00174
 764,0.09126512,0.25481938,0.00098319,-0.00004876,0.00000348,0.00034590
 ,-0.00011109,0.00061997,0.00368534,0.00461873,0.00047250,0.00004367,-0
 .00002851,0.00033765,-0.00021235,-0.00018992,-0.00007038,-0.00019273,0
 .00058826,0.00005574,-0.00001389,-0.00010755,0.00000951,-0.00034951,0.
 00015919,0.00005195,-0.04650317,-0.10238359,-0.09542847,0.00634710,0.0
 1179706,0.00631643,-0.01099805,-0.02449470,-0.01073275,0.04682165,0.11
 016478,0.09847867,0.00039508,-0.00602570,0.00039151,-0.00070998,0.0011
 8722,0.00000788,-0.00296957,-0.00294992,0.00067847,-0.01938854,0.02727
 078,0.00159692,-0.14181831,0.07582503,0.00349858,0.01402841,-0.0116162
 9,-0.00079638,0.00014570,0.00002796,-0.00006846,0.00041043,0.00110231,
 -0.00024529,-0.00004803,0.00091676,-0.00016340,-0.00026920,0.00004198,
 0.00003284,-0.00000727,0.00003057,0.00003590,0.00002769,-0.00006298,-0
 .00000801,0.56403877,-0.00350883,0.00039538,0.00016702,0.00168339,0.00
 032136,-0.00007526,-0.00187856,-0.00088959,0.00016630,0.00300136,0.002
 70320,-0.00012194,0.08017060,-0.17947539,-0.00425497,0.01296358,-0.047
 37545,-0.00060703,0.00019765,0.00003099,-0.00001209,-0.00157861,0.0003
 8863,0.00005247,-0.00014118,0.00041410,-0.00003504,-0.00013887,0.00002
 534,0.00000138,-0.00000753,0.00003036,0.00002653,0.00001867,-0.0000170
 7,-0.00001545,0.04793232,0.55721996,0.00046913,0.00032591,0.00785918,-
 0.00008496,-0.00014305,-0.00036299,0.00035366,0.00036745,0.00753157,0.
 00165551,-0.00155952,0.01096877,0.00340952,-0.00403128,-0.07395606,-0.
 00081937,0.00079533,-0.00111017,-0.00008029,-0.00001629,-0.00121187,-0
 .00019843,-0.00002587,-0.00388564,0.00009357,0.00006010,-0.00064640,-0
 .00004170,-0.00000587,-0.00010038,0.00016977,-0.00005919,0.00003973,-0
 .00003663,-0.00001903,-0.00003427,-0.00035736,-0.00264493,0.55525952,-
 0.00111960,0.00081734,-0.00093239,0.00069943,0.00015869,-0.00000012,-0
 .00053582,-0.00040948,-0.00110531,-0.00085264,0.00267686,-0.00040664,-
 0.01249346,0.00147417,0.01479135,0.00103327,-0.00319840,-0.00003603,0.
 00002699,0.00004731,0.00022290,0.00011054,0.00005427,0.00058683,-0.000
 03196,0.00014132,0.00008935,-0.00005425,0.00002413,0.00001611,-0.00004
 289,0.00000930,-0.00000184,0.00000823,-0.00001822,0.00001289,-0.124184
 27,-0.00230614,0.13258768,0.13398779,0.00015413,0.00027992,0.00071703,
 0.00010030,-0.00038391,-0.00021961,0.00034364,0.00012738,0.00084987,0.
 00031371,-0.00199510,0.00050895,0.01469275,-0.00046974,-0.02339632,-0.
 00035633,0.00160592,0.00129976,-0.00005696,0.00000902,-0.00001821,0.00
 018171,0.00007636,-0.00020117,0.00000430,-0.00012533,-0.00001421,0.000
 03794,-0.00001709,-0.00003022,0.00001102,-0.00001571,-0.00000871,-0.00
 001346,0.00001894,-0.00000019,-0.00178372,-0.04390449,0.00098994,-0.00
 181925,0.04419316,0.00054715,-0.00051839,0.00015398,-0.00040115,-0.000
 11567,-0.00002485,-0.00010496,0.00028127,-0.00019487,-0.00043507,-0.00
 029168,-0.00036022,-0.00149383,0.00047775,0.00201552,-0.00036335,0.000
 56062,0.00086371,-0.00001685,-0.00001549,-0.00004925,-0.00008105,-0.00
 000570,0.00014604,-0.00001808,-0.00001768,0.00004265,0.00001394,-0.000
 00855,0.00000432,-0.00001071,0.00000119,-0.00000344,-0.00000449,0.0000
 0209,-0.00000117,0.13166988,0.00179128,-0.24348299,-0.14091942,-0.0020
 3943,0.25787367,0.00039760,0.00085327,0.00001959,-0.00000727,-0.000101
 48,-0.00000939,0.00019791,0.00018595,-0.00001346,0.00037642,0.00081125
 ,-0.00003937,0.01132185,0.01489599,-0.00089724,-0.00134437,0.00389356,
 0.00015833,-0.00001421,-0.00004988,0.00000102,-0.00020882,-0.00014039,
 0.00003516,0.00000301,-0.00007523,-0.00000595,0.00003037,-0.00000778,-
 0.00000138,0.00001487,-0.00000192,-0.00000392,-0.00001361,0.00000479,0
 .00000268,-0.13357532,-0.13292926,0.00571950,-0.00777447,-0.01205593,-
 0.00212182,0.13949915,-0.00066325,0.00015582,0.00001476,0.00050080,0.0
 0002123,-0.00002147,-0.00000844,-0.00013870,0.00002688,-0.00179269,0.0
 0086080,0.00007592,-0.01795907,-0.01451230,0.00107974,0.00324940,-0.00
 713440,-0.00014030,0.00013734,0.00002897,-0.00000341,0.00090723,0.0004
 3802,-0.00003684,0.00000441,0.00002471,-0.00005532,-0.00000640,0.00001
 403,0.00000159,0.00003717,-0.00000877,-0.00000209,0.00005705,0.0000106
 5,0.00002396,-0.12800004,-0.24536634,0.00837980,0.00217164,0.00151173,
 -0.00039956,0.13907180,0.26298772,0.00001818,-0.00006207,0.00054760,-0
 .00001098,0.00000867,-0.00011492,-0.00001228,-0.00001258,-0.00013300,-
 0.00002814,-0.00002995,-0.00022589,-0.00076445,-0.00085013,-0.00296919
 ,0.00017518,-0.00019339,0.00186624,0.00000053,0.00000165,-0.00002103,0
 .00001896,0.00000561,0.00034732,-0.00000570,0.00002220,-0.00002760,-0.
 00000646,-0.00000122,-0.00000215,0.00001608,-0.00001510,-0.00000712,-0
 .00001180,-0.00000522,0.00001262,0.00570367,0.00867242,-0.04557287,0.0
 1226396,0.02197114,0.00121433,-0.00629306,-0.00909238,0.04266526,-0.00
 102223,0.00085840,0.00104619,0.00070568,0.00014290,-0.00006682,-0.0004
 5355,-0.00037953,0.00113388,-0.00075337,0.00268206,0.00041613,-0.01390
 487,0.00121966,-0.01299292,0.00109746,-0.00322126,0.00004750,0.0000043
 7,0.00004329,-0.00022844,0.00007528,0.00006196,-0.00057276,-0.00001698
 ,0.00015664,-0.00011686,-0.00006759,0.00001463,-0.00000613,-0.00000795
 ,0.00000449,0.00001734,0.00000254,-0.00001451,-0.00000471,-0.15640678,
 -0.00383851,-0.14283455,0.01117637,0.00025959,0.01374741,-0.00880867,0
 .00211365,-0.01106633,0.16833371,0.00005805,0.00029390,-0.00070552,0.0
 0014649,-0.00037186,0.00020787,0.00030258,0.00007929,-0.00089887,0.000
 28230,-0.00201787,-0.00055156,0.01736344,-0.00023482,0.02157511,-0.000
 51939,0.00160920,-0.00127273,-0.00005508,0.00001051,0.00001948,0.00020
 452,0.00007236,0.00018697,-0.00003448,-0.00015526,0.00009195,0.0000363
 9,-0.00001216,0.00000461,-0.00001958,0.00001429,-0.00001867,0.00000621
 ,0.00002632,0.00000258,-0.00329628,-0.04398810,-0.00244957,0.00016450,
 -0.00092276,0.00029289,-0.01450192,0.00133448,-0.02041111,-0.00011536,
 0.04425041,-0.00042844,0.00043429,0.00009603,0.00034481,0.00012087,-0.
 00005711,0.00015163,-0.00028171,-0.00032497,0.00044899,0.00003245,-0.0
 0043441,0.00321711,-0.00064361,0.00311222,0.00034909,-0.00022901,0.000
 82989,0.00001336,0.00000929,-0.00002434,0.00008621,-0.00000872,0.00020
 314,0.00001890,-0.00001458,0.00003645,0.00000805,0.00000674,0.00000185
 ,-0.00000700,0.00000075,0.00000231,0.00000612,0.00000125,0.00000498,-0
 .14197798,-0.00309214,-0.21139226,-0.01718535,-0.00046471,-0.01821180,
 0.00344677,0.00015571,0.00246466,0.15150348,0.00398039,0.22368012,-0.1
 3097027,-0.07236594,0.00340018,-0.01713566,-0.02867693,0.00166777,-0.0
 0330088,0.00278054,0.00067900,-0.00050166,-0.00124576,0.00000626,-0.00
 027967,0.00597891,0.00038346,0.01381491,0.01596549,-0.00088401,0.00037
 667,-0.00110389,-0.00023717,0.00016111,-0.00001891,-0.00006894,0.00000
 918,-0.00094604,-0.00016255,0.00002433,0.00006589,-0.00000928,-0.00000
 547,-0.00003301,0.00003778,-0.00027457,-0.00006321,0.00003303,0.000452
 40,0.00042018,-0.00000735,-0.00000424,0.00001202,0.00000817,-0.0001325
 6,0.00022456,0.00000485,-0.00000566,0.00000179,-0.00000770,0.57078793,
 -0.07671174,-0.19029667,0.00483525,-0.00440759,0.00045582,0.00026616,0
 .00170823,-0.00055971,-0.00009315,-0.00174221,0.00011368,0.00007400,0.
 00346230,0.00106880,-0.00011796,-0.00861419,-0.04716227,0.00068704,0.0
 0157716,0.00042223,-0.00008257,-0.00018864,0.00001565,0.00000348,0.000
 11268,0.00035679,0.00002035,-0.00001584,-0.00001362,0.00001478,0.00000
 549,0.00002868,-0.00002389,0.00011741,0.00003072,0.00000057,-0.0003619
 1,-0.00036715,0.00002465,-0.00001848,0.00002614,0.00003776,0.00010124,
 -0.00017601,-0.00000566,-0.00002227,0.00002531,-0.00003642,-0.04696911
 ,0.55048670,0.00334033,0.00460627,-0.07398282,0.00155100,0.00170167,0.
 01096326,0.00037252,-0.00031673,0.00753299,-0.00008966,0.00013509,-0.0
 0036364,0.00047975,-0.00027068,0.00786051,-0.00073330,-0.00071079,-0.0
 0110985,-0.00020407,-0.00000139,-0.00388547,-0.00008053,0.00000685,-0.
 00121192,0.00009733,-0.00005644,-0.00064631,-0.00003784,0.00001633,-0.
 00003437,0.00016512,0.00007111,0.00003961,-0.00004238,0.00000249,-0.00
 010039,-0.00000446,-0.00002353,0.00014226,0.00002445,0.00005813,0.0000
 0051,0.00000502,-0.00001032,-0.00004744,-0.00002654,-0.00005875,0.0000
 0187,-0.00040071,0.00262228,0.55524363,0.01097527,-0.01308587,-0.00077
 741,0.00030942,-0.00085056,-0.00003126,0.00020878,-0.00016127,-0.00001
 100,0.00002113,0.00010144,-0.00001118,0.00040982,-0.00083514,0.0000230
 9,-0.00086811,-0.00344747,0.00015809,-0.00015131,0.00009858,0.00003211
 ,-0.00000781,0.00004727,0.00000063,-0.00000189,0.00007331,-0.00001008,
 -0.00000911,-0.00000618,0.00000438,0.00001724,0.00000375,-0.00000407,0
 .00002928,0.00000886,-0.00000129,-0.00010972,-0.00009652,0.00000456,-0
 .00000541,-0.00000479,-0.00000903,0.00004717,-0.00003069,-0.00000318,-
 0.00000399,-0.00000410,0.00001009,-0.15260253,0.13954572,0.00586702,0.
 15980343,0.01976923,-0.01416649,-0.00110476,0.00175339,0.00092765,-0.0
 0008181,0.00003311,-0.00014962,-0.00002771,-0.00050084,-0.00000714,0.0
 0002038,0.00068135,0.00014375,-0.00001205,-0.00280327,-0.00760954,0.00
 017947,-0.00094909,0.00038060,0.00003904,-0.00013995,0.00002257,0.0000
 0333,-0.00000632,0.00002970,0.00005459,-0.00005849,0.00000610,-0.00002
 370,-0.00003528,-0.00001109,0.00000181,0.00000746,0.00001511,-0.000001
 73,-0.00021983,-0.00019879,0.00001109,0.00000500,0.00002962,0.00000158
 ,0.00004198,-0.00011175,-0.00000247,0.00000455,0.00003090,-0.00000244,
 0.13461651,-0.22638762,-0.00739293,-0.14643123,0.24273504,-0.00088099,
 0.00082614,-0.00296842,-0.00003543,0.00002431,-0.00022573,-0.00001321,
 0.00001171,-0.00013295,-0.00000881,-0.00000974,-0.00011495,0.00001166,
 0.00006433,0.00054745,0.00016919,0.00023355,0.00186511,0.00002213,-0.0
 0000434,0.00034722,0.00000107,-0.00000174,-0.00002103,-0.00000409,-0.0
 0002271,-0.00002769,-0.00001197,0.00000439,0.00001268,0.00001508,0.000
 01621,-0.00000717,-0.00000655,0.00000071,-0.00000215,0.00000509,0.0000
 0644,-0.00004749,-0.00000157,-0.00000815,0.00000649,-0.00000346,0.0000
 0255,-0.00000827,0.00000247,0.00000846,0.00000495,0.00588687,-0.007685
 40,-0.04552438,-0.00646784,0.00800366,0.04261365,-0.01129023,-0.002204
 03,0.01309967,-0.00064669,-0.00258210,-0.00036175,-0.00053702,0.000359
 11,-0.00104336,0.00071235,-0.00008078,-0.00001537,-0.00104377,-0.00091
 419,-0.00087655,0.00078465,0.00314021,0.00004678,0.00012701,-0.0000489
 4,0.00057123,0.00002620,-0.00004542,0.00022119,-0.00002213,-0.00013371
 ,0.00008851,0.00000604,0.00001734,0.00001280,-0.00004131,-0.00001112,-
 0.00000243,-0.00004967,-0.00002640,0.00001400,-0.00000454,0.00001639,0
 .00002846,0.00002888,-0.00001899,-0.00000419,-0.00000522,-0.00000749,-
 0.00000212,0.00002733,0.00000065,-0.00000216,-0.12409798,-0.00299651,0
 .13234633,-0.00842840,-0.00283688,0.01379925,0.13330866,-0.01546913,-0
 .00160237,0.02439592,-0.00021914,-0.00220178,-0.00053098,-0.00039106,0
 .00012504,-0.00092715,-0.00002360,-0.00039586,0.00022017,-0.00024665,0
 .00020346,-0.00078154,0.00029709,0.00184888,-0.00130198,-0.00017838,0.
 00006056,0.00024253,0.00005813,0.00000994,0.00003380,0.00000298,-0.000
 13505,0.00002105,0.00001253,0.00002113,0.00000104,-0.00001288,-0.00001
 727,0.00000860,-0.00004022,-0.00002154,0.00003136,-0.00001416,0.000026
 16,-0.00005633,0.00002338,-0.00003296,-0.00002030,0.00000229,0.0000294
 4,0.00000795,0.00000442,-0.00001085,0.00001386,-0.00352161,-0.04397271
 ,0.00781579,0.01134483,0.00210165,-0.02104726,0.00773099,0.04485638,-0
 .00141094,-0.00057184,0.00194491,-0.00045404,0.00026537,-0.00035949,-0
 .00008359,-0.00028894,-0.00019132,-0.00040820,0.00008803,-0.00002583,0
 .00050962,0.00055565,0.00015462,-0.00032358,-0.00058762,0.00086938,-0.
 00008072,0.00000019,0.00014536,-0.00001808,0.00001407,-0.00004937,-0.0
 0001931,0.00001688,0.00004254,-0.00000437,-0.00000247,-0.00000117,-0.0
 0001057,-0.00000191,-0.00000346,0.00001341,0.00000959,0.00000420,0.000
 01087,-0.00003716,0.00000080,-0.00000569,0.00002013,0.00002692,-0.0000
 0890,-0.00000229,0.00000647,-0.00000351,0.00001372,-0.00001963,0.13148
 927,0.00695142,-0.24350106,-0.00218010,0.00024506,0.00127834,-0.140746
 40,-0.00731878,0.25788958,-0.01252025,-0.00212801,-0.01142499,-0.00055
 007,-0.00257652,0.00038372,-0.00045644,0.00034463,0.00106621,0.0007207
 1,-0.00006534,-0.00005163,-0.00095082,-0.00094387,0.00099625,0.0008353
 2,0.00316605,-0.00005246,0.00009417,-0.00006210,-0.00055788,0.00000359
 ,-0.00004446,-0.00022635,-0.00000902,-0.00014658,-0.00010960,0.0000020
 7,0.00001278,-0.00000455,-0.00000891,-0.00000609,0.00001599,-0.0000637
 0,-0.00001832,-0.00000574,-0.00000695,0.00001988,-0.00003070,0.0000274
 9,-0.00000170,-0.00000252,-0.00000379,-0.00000701,0.00000308,0.0000289
 2,-0.00002074,0.00000399,-0.15631540,-0.00458174,-0.14262939,-0.009633
 25,-0.00293140,-0.01247889,0.01114586,0.00064020,0.01373483,0.16766048
 ,-0.01822518,-0.00168360,-0.02242994,-0.00017661,-0.00221951,0.0005850
 5,-0.00034037,0.00008588,0.00097576,-0.00006770,-0.00038784,-0.0002111
 0,-0.00014785,0.00022337,0.00077756,0.00046522,0.00187590,0.00126979,-
 0.00020269,0.00005287,-0.00022670,0.00005463,0.00001119,-0.00003574,0.
 00004494,-0.00016346,-0.00009940,-0.00000792,0.00002677,-0.00000297,0.
 00001791,0.00001530,0.00001982,-0.00004003,-0.00001608,-0.00000498,-0.
 00000412,0.00002688,0.00005664,0.00000207,-0.00001110,-0.00001396,0.00
 000167,0.00003067,-0.00000834,0.00002518,-0.00003327,0.00001775,-0.005
 12146,-0.04409478,-0.00819446,0.01373009,0.00221937,0.01957687,0.00064
 188,-0.00089225,0.00063088,0.00935036,0.04493369,0.00321668,0.00088445
 ,0.00317638,0.00045068,0.00000459,-0.00043608,0.00013228,0.00029056,-0
 .00032867,0.00035281,-0.00009511,-0.00005615,-0.00039622,-0.00046407,0
 .00009514,0.00033056,0.00025038,0.00082533,0.00008598,0.00001526,0.000
 20373,0.00001382,-0.00000844,-0.00002423,0.00001768,0.00001648,0.00003
 669,0.00000622,-0.00000088,0.00000500,-0.00000698,-0.00000129,0.000002
 26,0.00000862,-0.00000610,0.00000188,-0.00001025,0.00003570,0.00000158
 ,-0.00000117,-0.00001401,-0.00001955,0.00000989,0.00000307,0.00000497,
 0.00000517,-0.00001725,0.00002607,-0.14181893,-0.00749268,-0.21137697,
 0.00340643,0.00008962,0.00240435,-0.01717388,-0.00080776,-0.01821180,0
 .15137063,0.00731746,0.22367008\\0.00000046,-0.00000035,-0.00000009,-0
 .00000084,-0.00000024,0.00000027,-0.00000050,-0.00000002,-0.00000211,-
 0.00000085,0.00000018,0.00000027,0.00000043,0.00000039,-0.00000009,0.0
 0000054,0.00000002,-0.00000021,0.00000031,-0.00000024,0.00000036,0.000
 00030,0.00000026,0.00000036,0.00000096,0.00000004,0.,-0.00000042,-0.00
 000019,0.00000065,-0.00000101,-0.00000004,0.00000035,-0.00000044,0.000
 00016,0.00000065,0.00000125,0.00000126,-0.00000036,-0.00000064,-0.0000
 0044,0.00000033,-0.00000002,-0.00000015,0.00000011,-0.00000005,-0.0000
 0101,-0.00000029,0.00000133,-0.00000117,-0.00000036,-0.00000003,0.0000
 0015,0.00000011,-0.00000067,0.00000040,0.00000032,-0.00000012,0.000001
 00,-0.00000029\\\@


 LOGIC IS A SYSTEMATIC METHOD OF COMING TO THE
 WRONG CONCLUSION WITH CONFIDENCE.
 Job cpu time:       0 days  0 hours 34 minutes 33.1 seconds.
 Elapsed time:       0 days  0 hours  0 minutes 33.1 seconds.
 File lengths (MBytes):  RWF=     77 Int=      0 D2E=      0 Chk=      4 Scr=      1
 Normal termination of Gaussian 16 at Mon Jan  5 17:43:14 2026.
