 Entering Gaussian System, Link 0=/home/users/astar/bmsi/zhangx5/programs/g16/g16
 Input=/home/users/astar/bmsi/zhangx5/scratch/dppeFeCl2_opt_quintet_link_opt_link/dppeFeCl2_opt_quintet_link_opt_link.com
 Output=/home/users/astar/bmsi/zhangx5/scratch/dppeFeCl2_opt_quintet_link_opt_link/dppeFeCl2_opt_quintet_link_opt_link.log
 Initial command:
 /home/users/astar/bmsi/zhangx5/programs/g16/l1.exe "/scratch/users/astar/bmsi/zhangx5/dppeFeCl2_opt_quintet_link_opt_link/Gau-662768.inp" -scrdir="/scratch/users/astar/bmsi/zhangx5/dppeFeCl2_opt_quintet_link_opt_link/"
 Entering Link 1 = /home/users/astar/bmsi/zhangx5/programs/g16/l1.exe PID=    662769.
  
 Copyright (c) 1988-2017, Gaussian, Inc.  All Rights Reserved.
  
 This is part of the Gaussian(R) 16 program.  It is based on
 the Gaussian(R) 09 system (copyright 2009, Gaussian, Inc.),
 the Gaussian(R) 03 system (copyright 2003, Gaussian, Inc.),
 the Gaussian(R) 98 system (copyright 1998, Gaussian, Inc.),
 the Gaussian(R) 94 system (copyright 1995, Gaussian, Inc.),
 the Gaussian 92(TM) system (copyright 1992, Gaussian, Inc.),
 the Gaussian 90(TM) system (copyright 1990, Gaussian, Inc.),
 the Gaussian 88(TM) system (copyright 1988, Gaussian, Inc.),
 the Gaussian 86(TM) system (copyright 1986, Carnegie Mellon
 University), and the Gaussian 82(TM) system (copyright 1983,
 Carnegie Mellon University). Gaussian is a federally registered
 trademark of Gaussian, Inc.
  
 This software contains proprietary and confidential information,
 including trade secrets, belonging to Gaussian, Inc.
  
 This software is provided under written license and may be
 used, copied, transmitted, or stored only in accord with that
 written license.
  
 The following legend is applicable only to US Government
 contracts under FAR:
  
                    RESTRICTED RIGHTS LEGEND
  
 Use, reproduction and disclosure by the US Government is
 subject to restrictions as set forth in subparagraphs (a)
 and (c) of the Commercial Computer Software - Restricted
 Rights clause in FAR 52.227-19.
  
 Gaussian, Inc.
 340 Quinnipiac St., Bldg. 40, Wallingford CT 06492
  
  
 ---------------------------------------------------------------
 Warning -- This program may not be used in any manner that
 competes with the business of Gaussian, Inc. or will provide
 assistance to any competitor of Gaussian, Inc.  The licensee
 of this program is prohibited from giving any competitor of
 Gaussian, Inc. access to this program.  By using this program,
 the user acknowledges that Gaussian, Inc. is engaged in the
 business of creating and licensing software in the field of
 computational chemistry and represents and warrants to the
 licensee that it is not a competitor of Gaussian, Inc. and that
 it will not use this program in any manner prohibited above.
 ---------------------------------------------------------------
  

 Cite this work as:
 Gaussian 16, Revision B.01,
 M. J. Frisch, G. W. Trucks, H. B. Schlegel, G. E. Scuseria, 
 M. A. Robb, J. R. Cheeseman, G. Scalmani, V. Barone, 
 G. A. Petersson, H. Nakatsuji, X. Li, M. Caricato, A. V. Marenich, 
 J. Bloino, B. G. Janesko, R. Gomperts, B. Mennucci, H. P. Hratchian, 
 J. V. Ortiz, A. F. Izmaylov, J. L. Sonnenberg, D. Williams-Young, 
 F. Ding, F. Lipparini, F. Egidi, J. Goings, B. Peng, A. Petrone, 
 T. Henderson, D. Ranasinghe, V. G. Zakrzewski, J. Gao, N. Rega, 
 G. Zheng, W. Liang, M. Hada, M. Ehara, K. Toyota, R. Fukuda, 
 J. Hasegawa, M. Ishida, T. Nakajima, Y. Honda, O. Kitao, H. Nakai, 
 T. Vreven, K. Throssell, J. A. Montgomery, Jr., J. E. Peralta, 
 F. Ogliaro, M. J. Bearpark, J. J. Heyd, E. N. Brothers, K. N. Kudin, 
 V. N. Staroverov, T. A. Keith, R. Kobayashi, J. Normand, 
 K. Raghavachari, A. P. Rendell, J. C. Burant, S. S. Iyengar, 
 J. Tomasi, M. Cossi, J. M. Millam, M. Klene, C. Adamo, R. Cammi, 
 J. W. Ochterski, R. L. Martin, K. Morokuma, O. Farkas, 
 J. B. Foresman, and D. J. Fox, Gaussian, Inc., Wallingford CT, 2016.
 
 ******************************************
 Gaussian 16:  ES64L-G16RevB.01 20-Dec-2017
                13-Mar-2025 
 ******************************************
 %chk=dppeFeCl2_opt_quintet_link_opt_link.chk
 %nprocshared=64
 Will use up to   64 processors via shared memory.
 %mem=400GB
 ------------------------------------
 # umn15 def2svp stable=opt guess=mix
 ------------------------------------
 1/38=1,172=1/1;
 2/12=2,17=6,18=5,40=1/2;
 3/5=43,7=101,11=2,25=1,30=1,74=-73,116=2/1,2,3;
 4/13=-1/1;
 5/5=2,38=5/2;
 6/7=2,8=2,9=2,10=2,28=1/1;
 8/6=1,10=90,11=11/1;
 9/8=-3,42=1,46=1/14;
 5/5=2,8=3,17=40,38=5/8(-2);
 6/7=2,8=2,9=2,10=2,28=1/1;
 99/5=1,9=1/99;
 ----------------------------------
 Gaussian job with default settings
 ----------------------------------
 Symbolic Z-matrix:
 Charge =  0 Multiplicity = 5
 P                     1.45709  -0.38535  -0.27854 
 P                    -1.71168  -0.1359   -0.208 
 C                     0.51375  -0.32593  -1.88282 
 C                    -0.93399  -0.80897  -1.74009 
 C                     2.03554   1.31076   0.02958 
 C                     2.95159  -1.33964  -0.67678 
 C                    -3.46859  -0.52419  -0.40543 
 C                    -1.49832   1.65711  -0.36453 
 C                     2.26625   2.25321  -0.98392 
 C                     4.17453  -0.74233  -1.01085 
 C                    -4.44487   0.43355  -0.70828 
 C                    -1.67405   2.33254  -1.58372 
 C                     2.25786   1.67097   1.36777 
 C                     2.8434   -2.73927  -0.64908 
 C                    -3.83949  -1.86779  -0.22805 
 C                    -1.04806   2.36325   0.76026 
 C                     2.7075    3.53771  -0.66252 
 C                     5.27512  -1.53962  -1.33044 
 C                    -5.77942   0.04701  -0.84991 
 C                    -1.40107   3.69666  -1.67513 
 C                     2.70731   2.95402   1.68411 
 C                     3.94542  -3.52905  -0.978 
 C                    -5.17212  -2.24751  -0.38224 
 C                    -0.7817    3.73165   0.66668 
 C                     2.92877   3.8893    0.67138 
 C                     5.16104  -2.93125  -1.31912 
 C                    -6.14299  -1.29157  -0.69351 
 C                    -0.95452   4.39542  -0.54819 
 H                     1.05599  -0.9357   -2.62056 
 H                     0.52315   0.71389  -2.24251 
 H                    -0.97014  -1.90316  -1.60421 
 H                    -1.52882  -0.55441  -2.63208 
 H                     2.11145   1.99116  -2.03402 
 H                     4.27036   0.34636  -1.01519 
 H                    -4.16574   1.48351  -0.82609 
 H                    -2.0219    1.78537  -2.46603 
 H                     2.03471   0.95567   2.16509 
 H                     1.89665  -3.20239  -0.3521 
 H                    -3.07702  -2.60604   0.04384 
 H                    -0.87328   1.82595   1.69941 
 H                     2.88065   4.26569  -1.45822 
 H                     6.22714  -1.0697   -1.58704 
 H                    -6.53814   0.79768  -1.08184 
 H                    -1.53503   4.21748  -2.62582 
 H                     2.87172   3.22454   2.72931 
 H                     3.85575  -4.61718  -0.95409 
 H                    -5.45509  -3.29342  -0.24608 
 H                    -0.41881   4.2724    1.54333 
 H                     3.27334   4.89559   0.92047 
 H                     6.02483  -3.55173  -1.56809 
 H                    -7.18766  -1.59014  -0.80556 
 H                    -0.73502   5.463    -0.62285 
 Fe                   -0.19025  -1.19929   1.38756 
 Cl                   -0.51725  -3.33074   0.73926 
 Cl                   -0.04316  -0.21223   3.36777 
 
 Stoichiometry    C26H24Cl2FeP2(5)
 Framework group  C1[X(C26H24Cl2FeP2)]
 Deg. of freedom   159
 Full point group                 C1      NOp   1
 Largest Abelian subgroup         C1      NOp   1
 Largest concise Abelian subgroup C1      NOp   1
                         Standard orientation:                         
 ---------------------------------------------------------------------
 Center     Atomic      Atomic             Coordinates (Angstroms)
 Number     Number       Type             X           Y           Z
 ---------------------------------------------------------------------
      1         15           0        1.457088   -0.385347   -0.278542
      2         15           0       -1.711681   -0.135900   -0.208000
      3          6           0        0.513748   -0.325931   -1.882818
      4          6           0       -0.933990   -0.808965   -1.740087
      5          6           0        2.035542    1.310757    0.029579
      6          6           0        2.951588   -1.339642   -0.676781
      7          6           0       -3.468594   -0.524192   -0.405433
      8          6           0       -1.498317    1.657108   -0.364525
      9          6           0        2.266247    2.253212   -0.983922
     10          6           0        4.174532   -0.742329   -1.010846
     11          6           0       -4.444866    0.433547   -0.708283
     12          6           0       -1.674052    2.332536   -1.583722
     13          6           0        2.257856    1.670966    1.367768
     14          6           0        2.843404   -2.739271   -0.649082
     15          6           0       -3.839485   -1.867789   -0.228046
     16          6           0       -1.048059    2.363252    0.760263
     17          6           0        2.707495    3.537714   -0.662523
     18          6           0        5.275120   -1.539624   -1.330444
     19          6           0       -5.779424    0.047009   -0.849907
     20          6           0       -1.401065    3.696662   -1.675132
     21          6           0        2.707311    2.954023    1.684111
     22          6           0        3.945424   -3.529054   -0.977996
     23          6           0       -5.172124   -2.247506   -0.382241
     24          6           0       -0.781698    3.731650    0.666675
     25          6           0        2.928769    3.889304    0.671377
     26          6           0        5.161044   -2.931253   -1.319119
     27          6           0       -6.142994   -1.291566   -0.693512
     28          6           0       -0.954523    4.395424   -0.548192
     29          1           0        1.055990   -0.935702   -2.620560
     30          1           0        0.523145    0.713886   -2.242511
     31          1           0       -0.970141   -1.903156   -1.604206
     32          1           0       -1.528819   -0.554412   -2.632083
     33          1           0        2.111447    1.991163   -2.034021
     34          1           0        4.270357    0.346362   -1.015188
     35          1           0       -4.165744    1.483513   -0.826090
     36          1           0       -2.021900    1.785372   -2.466029
     37          1           0        2.034706    0.955669    2.165086
     38          1           0        1.896651   -3.202385   -0.352096
     39          1           0       -3.077019   -2.606038    0.043840
     40          1           0       -0.873280    1.825953    1.699410
     41          1           0        2.880648    4.265687   -1.458222
     42          1           0        6.227142   -1.069701   -1.587041
     43          1           0       -6.538137    0.797677   -1.081843
     44          1           0       -1.535029    4.217478   -2.625823
     45          1           0        2.871723    3.224540    2.729308
     46          1           0        3.855745   -4.617178   -0.954090
     47          1           0       -5.455086   -3.293424   -0.246082
     48          1           0       -0.418813    4.272400    1.543334
     49          1           0        3.273336    4.895589    0.920474
     50          1           0        6.024833   -3.551734   -1.568085
     51          1           0       -7.187657   -1.590141   -0.805563
     52          1           0       -0.735017    5.463003   -0.622853
     53         26           0       -0.190247   -1.199288    1.387561
     54         17           0       -0.517253   -3.330743    0.739258
     55         17           0       -0.043163   -0.212227    3.367771
 ---------------------------------------------------------------------
 Rotational constants (GHZ):           0.1473033           0.1014555           0.0772508
 Standard basis: def2SVP (5D, 7F)
 There are   622 symmetry adapted cartesian basis functions of A   symmetry.
 There are   587 symmetry adapted basis functions of A   symmetry.
   587 basis functions,  1047 primitive gaussians,   622 cartesian basis functions
   137 alpha electrons      133 beta electrons
       nuclear repulsion energy      4462.4927847770 Hartrees.
 NAtoms=   55 NActive=   55 NUniq=   55 SFac= 1.00D+00 NAtFMM=   60 NAOKFM=F Big=F
 Integral buffers will be    131072 words long.
 Raffenetti 2 integral format.
 Two-electron integral symmetry is turned on.
 One-electron integrals computed using PRISM.
   1 Symmetry operations used in ECPInt.
 ECPInt:  NShTT=   36856 NPrTT=  142853 LenC2=   31731 LenP2D=   79847.
 LDataN:  DoStor=T MaxTD1= 6 Len=  172
 NBasis=   587 RedAO= T EigKep=  2.46D-04  NBF=   587
 NBsUse=   587 1.00D-06 EigRej= -1.00D+00 NBFU=   587
 ExpMin= 3.37D-02 ExpMax= 6.09D+04 ExpMxC= 9.15D+03 IAcc=3 IRadAn=         5 AccDes= 0.00D+00
 Harris functional with IExCor= 1009 and IRadAn=       5 diagonalized for initial guess.
 HarFok:  IExCor= 1009 AccDes= 0.00D+00 IRadAn=         5 IDoV= 1 UseB2=F ITyADJ=14
 ICtDFT=  3500011 ScaDFX=  1.000000  1.000000  1.000000  1.000000
 FoFCou: FMM=F IPFlag=           0 FMFlag=      100000 FMFlg1=           0
         NFxFlg=           0 DoJE=T BraDBF=F KetDBF=T FulRan=T
         wScrn=  0.000000 ICntrl=       500 IOpCl=  0 I1Cent=   200000004 NGrid=           0
         NMat0=    1 NMatS0=      1 NMatT0=    0 NMatD0=    1 NMtDS0=    0 NMtDT0=    0
 Petite list used in FoFCou.
 Mixing orbitals, IMix= 1 IMixAn=  0 NRI=1 NE=  137 Coef=  7.07106781D-01  7.07106781D-01
 Mixing orbitals, IMix= 1 IMixAn=  0 NRI=1 NE=  133 Coef= -7.07106781D-01  7.07106781D-01
 Initial guess <Sx>= 0.0000 <Sy>= 0.0000 <Sz>= 2.0000 <S**2>= 6.0000 S= 2.0000
 Requested convergence on RMS density matrix=1.00D-08 within 128 cycles.
 Requested convergence on MAX density matrix=1.00D-06.
 Requested convergence on             energy=1.00D-06.
 No special actions if energy rises.
 EnCoef did     5 forward-backward iterations
 Restarting incremental Fock formation.
 Restarting incremental Fock formation.
 SCF Done:  E(UMN15) =  -3869.01351826     A.U. after   45 cycles
            NFock= 45  Conv=0.45D-08     -V/T= 2.0053
 <Sx>= 0.0000 <Sy>= 0.0000 <Sz>= 2.0000 <S**2>= 6.0157 S= 2.0031
 <L.S>= 0.000000000000E+00
 Annihilation of the first spin contaminant:
 S**2 before annihilation     6.0157,   after     6.0001

 **********************************************************************

            Population analysis using the SCF Density.

 **********************************************************************

 Orbital symmetries:
 Alpha Orbitals:
       Occupied  (A) (A) (A) (A) (A) (A) (A) (A) (A) (A) (A) (A)
                 (A) (A) (A) (A) (A) (A) (A) (A) (A) (A) (A) (A)
                 (A) (A) (A) (A) (A) (A) (A) (A) (A) (A) (A) (A)
                 (A) (A) (A) (A) (A) (A) (A) (A) (A) (A) (A) (A)
                 (A) (A) (A) (A) (A) (A) (A) (A) (A) (A) (A) (A)
                 (A) (A) (A) (A) (A) (A) (A) (A) (A) (A) (A) (A)
                 (A) (A) (A) (A) (A) (A) (A) (A) (A) (A) (A) (A)
                 (A) (A) (A) (A) (A) (A) (A) (A) (A) (A) (A) (A)
                 (A) (A) (A) (A) (A) (A) (A) (A) (A) (A) (A) (A)
                 (A) (A) (A) (A) (A) (A) (A) (A) (A) (A) (A) (A)
                 (A) (A) (A) (A) (A) (A) (A) (A) (A) (A) (A) (A)
                 (A) (A) (A) (A) (A)
       Virtual   (A) (A) (A) (A) (A) (A) (A) (A) (A) (A) (A) (A)
                 (A) (A) (A) (A) (A) (A) (A) (A) (A) (A) (A) (A)
                 (A) (A) (A) (A) (A) (A) (A) (A) (A) (A) (A) (A)
                 (A) (A) (A) (A) (A) (A) (A) (A) (A) (A) (A) (A)
                 (A) (A) (A) (A) (A) (A) (A) (A) (A) (A) (A) (A)
                 (A) (A) (A) (A) (A) (A) (A) (A) (A) (A) (A) (A)
                 (A) (A) (A) (A) (A) (A) (A) (A) (A) (A) (A) (A)
                 (A) (A) (A) (A) (A) (A) (A) (A) (A) (A) (A) (A)
                 (A) (A) (A) (A) (A) (A) (A) (A) (A) (A) (A) (A)
                 (A) (A) (A) (A) (A) (A) (A) (A) (A) (A) (A) (A)
                 (A) (A) (A) (A) (A) (A) (A) (A) (A) (A) (A) (A)
                 (A) (A) (A) (A) (A) (A) (A) (A) (A) (A) (A) (A)
                 (A) (A) (A) (A) (A) (A) (A) (A) (A) (A) (A) (A)
                 (A) (A) (A) (A) (A) (A) (A) (A) (A) (A) (A) (A)
                 (A) (A) (A) (A) (A) (A) (A) (A) (A) (A) (A) (A)
                 (A) (A) (A) (A) (A) (A) (A) (A) (A) (A) (A) (A)
                 (A) (A) (A) (A) (A) (A) (A) (A) (A) (A) (A) (A)
                 (A) (A) (A) (A) (A) (A) (A) (A) (A) (A) (A) (A)
                 (A) (A) (A) (A) (A) (A) (A) (A) (A) (A) (A) (A)
                 (A) (A) (A) (A) (A) (A) (A) (A) (A) (A) (A) (A)
                 (A) (A) (A) (A) (A) (A) (A) (A) (A) (A) (A) (A)
                 (A) (A) (A) (A) (A) (A) (A) (A) (A) (A) (A) (A)
                 (A) (A) (A) (A) (A) (A) (A) (A) (A) (A) (A) (A)
                 (A) (A) (A) (A) (A) (A) (A) (A) (A) (A) (A) (A)
                 (A) (A) (A) (A) (A) (A) (A) (A) (A) (A) (A) (A)
                 (A) (A) (A) (A) (A) (A) (A) (A) (A) (A) (A) (A)
                 (A) (A) (A) (A) (A) (A) (A) (A) (A) (A) (A) (A)
                 (A) (A) (A) (A) (A) (A) (A) (A) (A) (A) (A) (A)
                 (A) (A) (A) (A) (A) (A) (A) (A) (A) (A) (A) (A)
                 (A) (A) (A) (A) (A) (A) (A) (A) (A) (A) (A) (A)
                 (A) (A) (A) (A) (A) (A) (A) (A) (A) (A) (A) (A)
                 (A) (A) (A) (A) (A) (A) (A) (A) (A) (A) (A) (A)
                 (A) (A) (A) (A) (A) (A) (A) (A) (A) (A) (A) (A)
                 (A) (A) (A) (A) (A) (A) (A) (A) (A) (A) (A) (A)
                 (A) (A) (A) (A) (A) (A) (A) (A) (A) (A) (A) (A)
                 (A) (A) (A) (A) (A) (A) (A) (A) (A) (A) (A) (A)
                 (A) (A) (A) (A) (A) (A) (A) (A) (A) (A) (A) (A)
                 (A) (A) (A) (A) (A) (A)
 Beta  Orbitals:
       Occupied  (A) (A) (A) (A) (A) (A) (A) (A) (A) (A) (A) (A)
                 (A) (A) (A) (A) (A) (A) (A) (A) (A) (A) (A) (A)
                 (A) (A) (A) (A) (A) (A) (A) (A) (A) (A) (A) (A)
                 (A) (A) (A) (A) (A) (A) (A) (A) (A) (A) (A) (A)
                 (A) (A) (A) (A) (A) (A) (A) (A) (A) (A) (A) (A)
                 (A) (A) (A) (A) (A) (A) (A) (A) (A) (A) (A) (A)
                 (A) (A) (A) (A) (A) (A) (A) (A) (A) (A) (A) (A)
                 (A) (A) (A) (A) (A) (A) (A) (A) (A) (A) (A) (A)
                 (A) (A) (A) (A) (A) (A) (A) (A) (A) (A) (A) (A)
                 (A) (A) (A) (A) (A) (A) (A) (A) (A) (A) (A) (A)
                 (A) (A) (A) (A) (A) (A) (A) (A) (A) (A) (A) (A)
                 (A)
       Virtual   (A) (A) (A) (A) (A) (A) (A) (A) (A) (A) (A) (A)
                 (A) (A) (A) (A) (A) (A) (A) (A) (A) (A) (A) (A)
                 (A) (A) (A) (A) (A) (A) (A) (A) (A) (A) (A) (A)
                 (A) (A) (A) (A) (A) (A) (A) (A) (A) (A) (A) (A)
                 (A) (A) (A) (A) (A) (A) (A) (A) (A) (A) (A) (A)
                 (A) (A) (A) (A) (A) (A) (A) (A) (A) (A) (A) (A)
                 (A) (A) (A) (A) (A) (A) (A) (A) (A) (A) (A) (A)
                 (A) (A) (A) (A) (A) (A) (A) (A) (A) (A) (A) (A)
                 (A) (A) (A) (A) (A) (A) (A) (A) (A) (A) (A) (A)
                 (A) (A) (A) (A) (A) (A) (A) (A) (A) (A) (A) (A)
                 (A) (A) (A) (A) (A) (A) (A) (A) (A) (A) (A) (A)
                 (A) (A) (A) (A) (A) (A) (A) (A) (A) (A) (A) (A)
                 (A) (A) (A) (A) (A) (A) (A) (A) (A) (A) (A) (A)
                 (A) (A) (A) (A) (A) (A) (A) (A) (A) (A) (A) (A)
                 (A) (A) (A) (A) (A) (A) (A) (A) (A) (A) (A) (A)
                 (A) (A) (A) (A) (A) (A) (A) (A) (A) (A) (A) (A)
                 (A) (A) (A) (A) (A) (A) (A) (A) (A) (A) (A) (A)
                 (A) (A) (A) (A) (A) (A) (A) (A) (A) (A) (A) (A)
                 (A) (A) (A) (A) (A) (A) (A) (A) (A) (A) (A) (A)
                 (A) (A) (A) (A) (A) (A) (A) (A) (A) (A) (A) (A)
                 (A) (A) (A) (A) (A) (A) (A) (A) (A) (A) (A) (A)
                 (A) (A) (A) (A) (A) (A) (A) (A) (A) (A) (A) (A)
                 (A) (A) (A) (A) (A) (A) (A) (A) (A) (A) (A) (A)
                 (A) (A) (A) (A) (A) (A) (A) (A) (A) (A) (A) (A)
                 (A) (A) (A) (A) (A) (A) (A) (A) (A) (A) (A) (A)
                 (A) (A) (A) (A) (A) (A) (A) (A) (A) (A) (A) (A)
                 (A) (A) (A) (A) (A) (A) (A) (A) (A) (A) (A) (A)
                 (A) (A) (A) (A) (A) (A) (A) (A) (A) (A) (A) (A)
                 (A) (A) (A) (A) (A) (A) (A) (A) (A) (A) (A) (A)
                 (A) (A) (A) (A) (A) (A) (A) (A) (A) (A) (A) (A)
                 (A) (A) (A) (A) (A) (A) (A) (A) (A) (A) (A) (A)
                 (A) (A) (A) (A) (A) (A) (A) (A) (A) (A) (A) (A)
                 (A) (A) (A) (A) (A) (A) (A) (A) (A) (A) (A) (A)
                 (A) (A) (A) (A) (A) (A) (A) (A) (A) (A) (A) (A)
                 (A) (A) (A) (A) (A) (A) (A) (A) (A) (A) (A) (A)
                 (A) (A) (A) (A) (A) (A) (A) (A) (A) (A) (A) (A)
                 (A) (A) (A) (A) (A) (A) (A) (A) (A) (A) (A) (A)
                 (A) (A) (A) (A) (A) (A) (A) (A) (A) (A)
 The electronic state is 5-A.
 Alpha  occ. eigenvalues -- -254.05678-100.25335-100.24698 -76.13063 -76.12684
 Alpha  occ. eigenvalues --  -29.32885 -25.74945 -25.72233 -25.71937 -10.08218
 Alpha  occ. eigenvalues --  -10.08142 -10.07907 -10.07844 -10.07757 -10.07711
 Alpha  occ. eigenvalues --  -10.07576 -10.07512 -10.07328 -10.07290 -10.07279
 Alpha  occ. eigenvalues --  -10.07247 -10.07223 -10.07032 -10.07006 -10.06971
 Alpha  occ. eigenvalues --  -10.06918 -10.06860 -10.06615 -10.06589 -10.06557
 Alpha  occ. eigenvalues --  -10.06553 -10.06498 -10.06392 -10.06349 -10.06325
 Alpha  occ. eigenvalues --   -9.09935  -9.09356  -7.12003  -7.11693  -7.11660
 Alpha  occ. eigenvalues --   -7.11440  -7.11099  -7.11072  -6.41560  -6.41207
 Alpha  occ. eigenvalues --   -4.77630  -4.77592  -4.77286  -4.77231  -4.77048
 Alpha  occ. eigenvalues --   -4.76676  -3.40153  -2.35008  -2.30555  -2.30039
 Alpha  occ. eigenvalues --   -0.91530  -0.91016  -0.90338  -0.90240  -0.85234
 Alpha  occ. eigenvalues --   -0.81823  -0.80094  -0.79626  -0.79384  -0.79142
 Alpha  occ. eigenvalues --   -0.78986  -0.78719  -0.78653  -0.76910  -0.76181
 Alpha  occ. eigenvalues --   -0.72189  -0.68977  -0.66181  -0.65784  -0.65375
 Alpha  occ. eigenvalues --   -0.65106  -0.64386  -0.64246  -0.64153  -0.61267
 Alpha  occ. eigenvalues --   -0.59949  -0.57611  -0.57273  -0.56079  -0.54467
 Alpha  occ. eigenvalues --   -0.52118  -0.51122  -0.50952  -0.50858  -0.50582
 Alpha  occ. eigenvalues --   -0.50266  -0.49627  -0.49521  -0.48866  -0.48545
 Alpha  occ. eigenvalues --   -0.47607  -0.47516  -0.46935  -0.46869  -0.46369
 Alpha  occ. eigenvalues --   -0.45431  -0.44813  -0.44106  -0.43805  -0.43630
 Alpha  occ. eigenvalues --   -0.42823  -0.42642  -0.42114  -0.41743  -0.41664
 Alpha  occ. eigenvalues --   -0.41492  -0.39996  -0.39941  -0.39485  -0.39227
 Alpha  occ. eigenvalues --   -0.38981  -0.38735  -0.38292  -0.37697  -0.37422
 Alpha  occ. eigenvalues --   -0.36863  -0.36294  -0.32771  -0.32524  -0.32218
 Alpha  occ. eigenvalues --   -0.31242  -0.30885  -0.30501  -0.30071  -0.30048
 Alpha  occ. eigenvalues --   -0.29862  -0.29843  -0.29511  -0.29063  -0.28590
 Alpha  occ. eigenvalues --   -0.26357  -0.24360
 Alpha virt. eigenvalues --   -0.02996  -0.01482  -0.00825  -0.00559  -0.00309
 Alpha virt. eigenvalues --    0.00186   0.00710   0.01026   0.04791   0.05709
 Alpha virt. eigenvalues --    0.06953   0.08523   0.09038   0.09850   0.10481
 Alpha virt. eigenvalues --    0.10590   0.10867   0.11683   0.12920   0.13207
 Alpha virt. eigenvalues --    0.13705   0.13911   0.14248   0.14405   0.14642
 Alpha virt. eigenvalues --    0.15545   0.15928   0.16490   0.16572   0.16665
 Alpha virt. eigenvalues --    0.17449   0.17584   0.17699   0.18008   0.18864
 Alpha virt. eigenvalues --    0.19089   0.19269   0.19747   0.20177   0.20878
 Alpha virt. eigenvalues --    0.21791   0.21911   0.22464   0.23144   0.23272
 Alpha virt. eigenvalues --    0.23979   0.25414   0.27280   0.28915   0.29441
 Alpha virt. eigenvalues --    0.30034   0.30459   0.30663   0.30876   0.31091
 Alpha virt. eigenvalues --    0.31341   0.31461   0.31820   0.32093   0.32339
 Alpha virt. eigenvalues --    0.33005   0.33088   0.34201   0.34666   0.35826
 Alpha virt. eigenvalues --    0.36727   0.37660   0.37904   0.38220   0.39288
 Alpha virt. eigenvalues --    0.39408   0.40518   0.41956   0.42125   0.42448
 Alpha virt. eigenvalues --    0.43205   0.43419   0.43723   0.44062   0.44246
 Alpha virt. eigenvalues --    0.44620   0.45902   0.45978   0.46718   0.47223
 Alpha virt. eigenvalues --    0.47324   0.47768   0.48523   0.48770   0.49297
 Alpha virt. eigenvalues --    0.49500   0.49957   0.50232   0.50714   0.50995
 Alpha virt. eigenvalues --    0.51263   0.51373   0.51695   0.51885   0.52308
 Alpha virt. eigenvalues --    0.52495   0.52830   0.53422   0.54139   0.54533
 Alpha virt. eigenvalues --    0.55006   0.55941   0.56347   0.56476   0.57808
 Alpha virt. eigenvalues --    0.58012   0.58791   0.59080   0.60821   0.60932
 Alpha virt. eigenvalues --    0.62670   0.63266   0.63515   0.64259   0.64563
 Alpha virt. eigenvalues --    0.65082   0.65159   0.65992   0.66106   0.66830
 Alpha virt. eigenvalues --    0.67172   0.67357   0.67577   0.67753   0.68290
 Alpha virt. eigenvalues --    0.68341   0.68658   0.68865   0.69113   0.69262
 Alpha virt. eigenvalues --    0.69349   0.69889   0.70043   0.70251   0.70554
 Alpha virt. eigenvalues --    0.70681   0.71056   0.71325   0.71873   0.72173
 Alpha virt. eigenvalues --    0.72672   0.73200   0.73432   0.73635   0.73749
 Alpha virt. eigenvalues --    0.73901   0.74314   0.74682   0.74857   0.75327
 Alpha virt. eigenvalues --    0.75435   0.75718   0.75841   0.76125   0.76828
 Alpha virt. eigenvalues --    0.77001   0.77403   0.77937   0.78178   0.78558
 Alpha virt. eigenvalues --    0.79553   0.79832   0.80423   0.80610   0.80722
 Alpha virt. eigenvalues --    0.80897   0.81543   0.82993   0.83200   0.83774
 Alpha virt. eigenvalues --    0.84875   0.85112   0.85765   0.86370   0.86944
 Alpha virt. eigenvalues --    0.87515   0.87630   0.87666   0.88677   0.89433
 Alpha virt. eigenvalues --    0.90005   0.90337   0.90345   0.91444   0.92016
 Alpha virt. eigenvalues --    0.92582   0.93486   0.93715   0.94116   0.95035
 Alpha virt. eigenvalues --    0.95826   0.96908   0.97708   0.97721   0.98927
 Alpha virt. eigenvalues --    0.99268   1.00347   1.01048   1.01915   1.02669
 Alpha virt. eigenvalues --    1.02887   1.05410   1.06201   1.08290   1.10013
 Alpha virt. eigenvalues --    1.10794   1.11010   1.11379   1.11781   1.13027
 Alpha virt. eigenvalues --    1.13764   1.15252   1.15843   1.16646   1.17122
 Alpha virt. eigenvalues --    1.17818   1.19285   1.20283   1.20716   1.21689
 Alpha virt. eigenvalues --    1.21997   1.22674   1.23381   1.23441   1.23807
 Alpha virt. eigenvalues --    1.24217   1.24487   1.25040   1.25402   1.25446
 Alpha virt. eigenvalues --    1.25796   1.26272   1.26677   1.28092   1.28761
 Alpha virt. eigenvalues --    1.29056   1.29428   1.29844   1.30448   1.30549
 Alpha virt. eigenvalues --    1.30886   1.31707   1.31854   1.32477   1.32800
 Alpha virt. eigenvalues --    1.34030   1.35183   1.35544   1.37111   1.37998
 Alpha virt. eigenvalues --    1.40057   1.45635   1.47492   1.51354   1.52039
 Alpha virt. eigenvalues --    1.53427   1.54640   1.54920   1.55390   1.56275
 Alpha virt. eigenvalues --    1.57589   1.59143   1.61267   1.65843   1.66178
 Alpha virt. eigenvalues --    1.66392   1.66746   1.67116   1.67359   1.67874
 Alpha virt. eigenvalues --    1.68138   1.68576   1.69902   1.70505   1.70751
 Alpha virt. eigenvalues --    1.70832   1.71348   1.71710   1.71919   1.72589
 Alpha virt. eigenvalues --    1.73126   1.73559   1.73913   1.74094   1.74353
 Alpha virt. eigenvalues --    1.74676   1.75275   1.75587   1.75906   1.76185
 Alpha virt. eigenvalues --    1.76643   1.76654   1.77253   1.78181   1.78745
 Alpha virt. eigenvalues --    1.79098   1.80064   1.80654   1.81109   1.81742
 Alpha virt. eigenvalues --    1.82370   1.82508   1.83059   1.83633   1.83875
 Alpha virt. eigenvalues --    1.84420   1.85370   1.86832   1.87407   1.88630
 Alpha virt. eigenvalues --    1.89700   1.90416   1.91585   1.92321   1.92413
 Alpha virt. eigenvalues --    1.93167   1.93207   1.93305   1.94083   1.94699
 Alpha virt. eigenvalues --    1.95218   1.95750   1.96382   1.96509   1.96642
 Alpha virt. eigenvalues --    1.97139   1.97453   1.97957   1.98499   1.98814
 Alpha virt. eigenvalues --    1.99207   2.00634   2.02024   2.03260   2.04581
 Alpha virt. eigenvalues --    2.05425   2.08140   2.08425   2.09187   2.10014
 Alpha virt. eigenvalues --    2.10486   2.11996   2.12200   2.12956   2.13256
 Alpha virt. eigenvalues --    2.13796   2.14577   2.15498   2.16032   2.17593
 Alpha virt. eigenvalues --    2.18510   2.19790   2.20048   2.20723   2.22713
 Alpha virt. eigenvalues --    2.22977   2.23171   2.23332   2.23437   2.23675
 Alpha virt. eigenvalues --    2.24084   2.24457   2.24733   2.25058   2.25123
 Alpha virt. eigenvalues --    2.26673   2.28403   2.28615   2.29189   2.29438
 Alpha virt. eigenvalues --    2.29647   2.30124   2.30690   2.31161   2.32410
 Alpha virt. eigenvalues --    2.32784   2.33602   2.34551   2.34787   2.40101
 Alpha virt. eigenvalues --    2.43765   2.46236   2.46499   2.46929   2.47053
 Alpha virt. eigenvalues --    2.52344   2.54555   2.54769   2.54956   2.55009
 Alpha virt. eigenvalues --    2.55609   2.55670   2.55930   2.55978   2.56207
 Alpha virt. eigenvalues --    2.56448   2.56583   2.57974   2.68010   2.68196
 Alpha virt. eigenvalues --    2.68874   2.68879   2.68899   2.69265   2.69459
 Alpha virt. eigenvalues --    2.69789   2.72432   2.73098   2.73708   2.74248
 Alpha virt. eigenvalues --    2.74298   2.78251   2.78632   2.79131   2.79412
 Alpha virt. eigenvalues --    2.80880   2.82073   2.82147   2.82323   2.83507
 Alpha virt. eigenvalues --    2.91389   2.93925   2.94284   2.94811   2.95455
 Alpha virt. eigenvalues --    2.95719   3.02698   3.02886   3.03751   3.03954
 Alpha virt. eigenvalues --    3.09515   3.09623   3.10372   3.10405   3.47267
 Alpha virt. eigenvalues --    3.47398   3.48404   3.48507   3.98513   3.99062
 Alpha virt. eigenvalues --    3.99362   4.00995   4.01665   4.03359   4.04033
  Beta  occ. eigenvalues -- -254.05931-100.25274-100.24635 -76.13046 -76.12663
  Beta  occ. eigenvalues --  -29.30743 -25.71173 -25.69463 -25.69189 -10.08221
  Beta  occ. eigenvalues --  -10.08139 -10.07903 -10.07841 -10.07754 -10.07709
  Beta  occ. eigenvalues --  -10.07576 -10.07512 -10.07328 -10.07289 -10.07277
  Beta  occ. eigenvalues --  -10.07250 -10.07225 -10.07033 -10.07000 -10.06966
  Beta  occ. eigenvalues --  -10.06916 -10.06860 -10.06613 -10.06586 -10.06558
  Beta  occ. eigenvalues --  -10.06553 -10.06493 -10.06389 -10.06351 -10.06326
  Beta  occ. eigenvalues --   -9.09862  -9.09281  -7.11954  -7.11617  -7.11581
  Beta  occ. eigenvalues --   -7.11394  -7.11017  -7.10988  -6.41552  -6.41196
  Beta  occ. eigenvalues --   -4.77623  -4.77585  -4.77279  -4.77223  -4.77041
  Beta  occ. eigenvalues --   -4.76665  -3.32950  -2.22278  -2.19594  -2.19292
  Beta  occ. eigenvalues --   -0.91514  -0.91001  -0.90327  -0.90231  -0.85203
  Beta  occ. eigenvalues --   -0.81775  -0.80078  -0.79617  -0.79376  -0.79128
  Beta  occ. eigenvalues --   -0.78976  -0.78707  -0.78642  -0.76414  -0.75716
  Beta  occ. eigenvalues --   -0.72129  -0.68887  -0.66158  -0.65772  -0.65364
  Beta  occ. eigenvalues --   -0.65093  -0.64377  -0.64233  -0.64141  -0.61212
  Beta  occ. eigenvalues --   -0.59901  -0.57590  -0.57259  -0.56013  -0.54401
  Beta  occ. eigenvalues --   -0.52062  -0.51095  -0.50906  -0.50823  -0.50562
  Beta  occ. eigenvalues --   -0.50238  -0.49615  -0.49510  -0.48837  -0.48539
  Beta  occ. eigenvalues --   -0.47573  -0.47484  -0.46903  -0.46862  -0.46301
  Beta  occ. eigenvalues --   -0.45357  -0.44750  -0.43669  -0.43456  -0.42708
  Beta  occ. eigenvalues --   -0.42167  -0.41750  -0.41449  -0.39952  -0.39696
  Beta  occ. eigenvalues --   -0.39189  -0.39162  -0.38590  -0.37730  -0.37490
  Beta  occ. eigenvalues --   -0.37258  -0.36862  -0.33805  -0.33383  -0.33110
  Beta  occ. eigenvalues --   -0.31631  -0.31227  -0.30808  -0.30673  -0.30351
  Beta  occ. eigenvalues --   -0.30123  -0.30046  -0.29873  -0.29832  -0.29540
  Beta  occ. eigenvalues --   -0.29038  -0.27613  -0.26462
  Beta virt. eigenvalues --   -0.03748  -0.02652  -0.02315  -0.02055  -0.01422
  Beta virt. eigenvalues --   -0.01346  -0.00515  -0.00012   0.00237   0.00658
  Beta virt. eigenvalues --    0.00852   0.01071   0.05480   0.07067   0.07339
  Beta virt. eigenvalues --    0.08870   0.09498   0.10099   0.10589   0.10791
  Beta virt. eigenvalues --    0.10960   0.12022   0.13002   0.13408   0.13728
  Beta virt. eigenvalues --    0.14087   0.14298   0.14440   0.14807   0.15761
  Beta virt. eigenvalues --    0.16020   0.16572   0.16752   0.16761   0.17549
  Beta virt. eigenvalues --    0.17856   0.17961   0.18138   0.19015   0.19185
  Beta virt. eigenvalues --    0.19539   0.19937   0.20899   0.21157   0.21807
  Beta virt. eigenvalues --    0.22114   0.22736   0.23310   0.23407   0.24940
  Beta virt. eigenvalues --    0.26173   0.27683   0.29072   0.29560   0.30097
  Beta virt. eigenvalues --    0.30522   0.30733   0.30921   0.31127   0.31376
  Beta virt. eigenvalues --    0.31500   0.31990   0.32174   0.32460   0.33093
  Beta virt. eigenvalues --    0.33210   0.34624   0.34772   0.36011   0.36887
  Beta virt. eigenvalues --    0.37779   0.37993   0.38251   0.39334   0.39514
  Beta virt. eigenvalues --    0.40539   0.42055   0.42114   0.42545   0.43217
  Beta virt. eigenvalues --    0.43446   0.43745   0.44098   0.44251   0.44679
  Beta virt. eigenvalues --    0.45927   0.46041   0.46769   0.47295   0.47364
  Beta virt. eigenvalues --    0.47839   0.48562   0.48811   0.49362   0.49526
  Beta virt. eigenvalues --    0.50019   0.50344   0.50723   0.51010   0.51287
  Beta virt. eigenvalues --    0.51489   0.51730   0.51949   0.52356   0.52612
  Beta virt. eigenvalues --    0.52833   0.53584   0.54146   0.54525   0.55172
  Beta virt. eigenvalues --    0.56019   0.56372   0.56484   0.57812   0.58079
  Beta virt. eigenvalues --    0.58874   0.59216   0.60884   0.60990   0.62731
  Beta virt. eigenvalues --    0.63249   0.63486   0.64343   0.64615   0.65147
  Beta virt. eigenvalues --    0.65234   0.66014   0.66136   0.67120   0.67206
  Beta virt. eigenvalues --    0.67496   0.67656   0.67863   0.68286   0.68385
  Beta virt. eigenvalues --    0.68752   0.68889   0.69261   0.69286   0.69462
  Beta virt. eigenvalues --    0.69955   0.70047   0.70366   0.70646   0.70773
  Beta virt. eigenvalues --    0.71082   0.71441   0.71938   0.72198   0.72702
  Beta virt. eigenvalues --    0.73252   0.73652   0.73711   0.73816   0.74078
  Beta virt. eigenvalues --    0.74485   0.74885   0.75189   0.75453   0.75668
  Beta virt. eigenvalues --    0.75844   0.75887   0.76367   0.77030   0.77094
  Beta virt. eigenvalues --    0.77776   0.78154   0.78206   0.78927   0.79625
  Beta virt. eigenvalues --    0.79958   0.80610   0.80679   0.80789   0.80916
  Beta virt. eigenvalues --    0.81694   0.83032   0.83269   0.83827   0.84933
  Beta virt. eigenvalues --    0.85171   0.85907   0.86327   0.87085   0.87564
  Beta virt. eigenvalues --    0.87716   0.87888   0.88765   0.89532   0.90061
  Beta virt. eigenvalues --    0.90300   0.90392   0.91401   0.92064   0.92661
  Beta virt. eigenvalues --    0.93464   0.93757   0.94085   0.95126   0.95837
  Beta virt. eigenvalues --    0.96965   0.97614   0.97752   0.98926   0.99281
  Beta virt. eigenvalues --    1.00517   1.01085   1.01804   1.02774   1.03019
  Beta virt. eigenvalues --    1.05557   1.06730   1.09091   1.10356   1.10994
  Beta virt. eigenvalues --    1.11201   1.11526   1.12116   1.13373   1.13961
  Beta virt. eigenvalues --    1.15351   1.16287   1.16771   1.17439   1.17960
  Beta virt. eigenvalues --    1.19735   1.20445   1.21113   1.22031   1.22435
  Beta virt. eigenvalues --    1.22839   1.23460   1.23580   1.23977   1.24360
  Beta virt. eigenvalues --    1.24869   1.25327   1.25581   1.25792   1.25944
  Beta virt. eigenvalues --    1.26593   1.26838   1.28236   1.28906   1.29177
  Beta virt. eigenvalues --    1.29568   1.30014   1.30604   1.30876   1.31024
  Beta virt. eigenvalues --    1.31943   1.32275   1.32884   1.32977   1.34404
  Beta virt. eigenvalues --    1.35399   1.36032   1.37842   1.38898   1.40486
  Beta virt. eigenvalues --    1.46990   1.47986   1.51471   1.52722   1.53696
  Beta virt. eigenvalues --    1.54816   1.55389   1.55728   1.56874   1.58828
  Beta virt. eigenvalues --    1.59825   1.63322   1.65994   1.66216   1.66419
  Beta virt. eigenvalues --    1.66755   1.67143   1.67432   1.67915   1.68169
  Beta virt. eigenvalues --    1.68661   1.69920   1.70507   1.70754   1.70846
  Beta virt. eigenvalues --    1.71352   1.71741   1.71918   1.72606   1.73153
  Beta virt. eigenvalues --    1.73584   1.73923   1.74084   1.74359   1.74687
  Beta virt. eigenvalues --    1.75277   1.75595   1.75902   1.76203   1.76624
  Beta virt. eigenvalues --    1.76654   1.77268   1.78212   1.78743   1.79106
  Beta virt. eigenvalues --    1.80061   1.80626   1.81114   1.81736   1.82347
  Beta virt. eigenvalues --    1.82501   1.83042   1.83632   1.83865   1.84413
  Beta virt. eigenvalues --    1.85354   1.86807   1.87383   1.88610   1.89704
  Beta virt. eigenvalues --    1.90427   1.91575   1.92335   1.92411   1.93176
  Beta virt. eigenvalues --    1.93207   1.93315   1.94104   1.94709   1.95215
  Beta virt. eigenvalues --    1.95743   1.96383   1.96511   1.96642   1.97149
  Beta virt. eigenvalues --    1.97448   1.97952   1.98490   1.98802   1.99190
  Beta virt. eigenvalues --    2.00602   2.01981   2.03220   2.04536   2.05395
  Beta virt. eigenvalues --    2.08119   2.08411   2.09180   2.10001   2.10481
  Beta virt. eigenvalues --    2.11992   2.12198   2.12949   2.13248   2.13788
  Beta virt. eigenvalues --    2.14568   2.15482   2.16010   2.17553   2.18487
  Beta virt. eigenvalues --    2.19743   2.19989   2.20693   2.22702   2.22957
  Beta virt. eigenvalues --    2.23162   2.23325   2.23420   2.23667   2.24075
  Beta virt. eigenvalues --    2.24453   2.24732   2.25063   2.25124   2.26665
  Beta virt. eigenvalues --    2.28398   2.28607   2.29172   2.29433   2.29644
  Beta virt. eigenvalues --    2.30103   2.30683   2.31154   2.32375   2.32748
  Beta virt. eigenvalues --    2.33557   2.34492   2.34744   2.40066   2.43743
  Beta virt. eigenvalues --    2.46228   2.46496   2.46929   2.47052   2.52299
  Beta virt. eigenvalues --    2.54540   2.54761   2.54946   2.54986   2.55588
  Beta virt. eigenvalues --    2.55655   2.55910   2.55961   2.56200   2.56444
  Beta virt. eigenvalues --    2.56578   2.57954   2.68002   2.68183   2.68847
  Beta virt. eigenvalues --    2.68872   2.68883   2.69255   2.69434   2.69771
  Beta virt. eigenvalues --    2.72401   2.73069   2.73673   2.74211   2.74263
  Beta virt. eigenvalues --    2.78238   2.78618   2.79113   2.79400   2.80859
  Beta virt. eigenvalues --    2.82053   2.82133   2.82306   2.83497   2.91367
  Beta virt. eigenvalues --    2.93910   2.94247   2.94768   2.95381   2.95660
  Beta virt. eigenvalues --    3.02686   3.02879   3.03727   3.03933   3.09501
  Beta virt. eigenvalues --    3.09607   3.10348   3.10377   3.47238   3.47366
  Beta virt. eigenvalues --    3.48356   3.48457   4.11126   4.11688   4.12048
  Beta virt. eigenvalues --    4.12952   4.13259   4.13504   4.14614
          Condensed to atoms (all electrons):
          Atomic-Atomic Spin Densities.
 Mulliken charges and spin densities:
               1          2
     1  P    0.130115  -0.003295
     2  P    0.128384   0.001816
     3  C   -0.037671   0.005018
     4  C   -0.047686  -0.000894
     5  C   -0.083543   0.005406
     6  C   -0.071967  -0.000423
     7  C   -0.058170  -0.001830
     8  C   -0.142182   0.008113
     9  C    0.002901   0.003584
    10  C    0.010967   0.006188
    11  C    0.002426   0.008619
    12  C    0.034634   0.001588
    13  C    0.040195   0.002956
    14  C    0.026070   0.004317
    15  C    0.018481   0.006241
    16  C    0.077906   0.001157
    17  C    0.032312  -0.001082
    18  C    0.022882  -0.002789
    19  C    0.023270  -0.004304
    20  C    0.011593   0.000102
    21  C    0.017423  -0.001785
    22  C    0.020031  -0.002974
    23  C    0.022311  -0.004279
    24  C    0.022913  -0.000729
    25  C    0.021005   0.002371
    26  C    0.028785   0.004868
    27  C    0.027407   0.007568
    28  C    0.035052   0.000426
    29  H    0.055099   0.000414
    30  H    0.032546   0.000725
    31  H    0.050084   0.001053
    32  H    0.041099   0.001498
    33  H   -0.011822  -0.000218
    34  H   -0.016782  -0.000276
    35  H   -0.015367  -0.000419
    36  H   -0.019834  -0.000086
    37  H   -0.020086  -0.003235
    38  H   -0.024493  -0.001393
    39  H   -0.016482  -0.000578
    40  H   -0.032282  -0.004181
    41  H   -0.013622   0.000196
    42  H   -0.012449   0.000277
    43  H   -0.012237   0.000350
    44  H   -0.011782   0.000143
    45  H   -0.002067   0.000101
    46  H   -0.004799   0.000172
    47  H   -0.004784   0.000257
    48  H   -0.008541   0.000040
    49  H   -0.008064  -0.000167
    50  H   -0.008187  -0.000335
    51  H   -0.008127  -0.000520
    52  H   -0.008165  -0.000035
    53  Fe   0.494725   3.803713
    54  Cl  -0.366459   0.075705
    55  Cl  -0.362963   0.080846
 Sum of Mulliken charges =  -0.00000   4.00000
 Mulliken charges and spin densities with hydrogens summed into heavy atoms:
               1          2
     1  P    0.130115  -0.003295
     2  P    0.128384   0.001816
     3  C    0.049974   0.006156
     4  C    0.043496   0.001657
     5  C   -0.083543   0.005406
     6  C   -0.071967  -0.000423
     7  C   -0.058170  -0.001830
     8  C   -0.142182   0.008113
     9  C   -0.008921   0.003366
    10  C   -0.005815   0.005912
    11  C   -0.012941   0.008200
    12  C    0.014800   0.001502
    13  C    0.020109  -0.000279
    14  C    0.001577   0.002924
    15  C    0.001998   0.005662
    16  C    0.045624  -0.003024
    17  C    0.018690  -0.000885
    18  C    0.010433  -0.002511
    19  C    0.011033  -0.003955
    20  C   -0.000190   0.000245
    21  C    0.015356  -0.001685
    22  C    0.015232  -0.002802
    23  C    0.017527  -0.004022
    24  C    0.014371  -0.000689
    25  C    0.012942   0.002204
    26  C    0.020598   0.004533
    27  C    0.019280   0.007048
    28  C    0.026888   0.000392
    53  Fe   0.494725   3.803713
    54  Cl  -0.366459   0.075705
    55  Cl  -0.362963   0.080846
 Electronic spatial extent (au):  <R**2>=          14783.4347
 Charge=             -0.0000 electrons
 Dipole moment (field-independent basis, Debye):
    X=              0.9361    Y=              5.2053    Z=             -6.5688  Tot=              8.4333
 Quadrupole moment (field-independent basis, Debye-Ang):
   XX=           -194.7056   YY=           -206.6703   ZZ=           -228.3556
   XY=              1.0727   XZ=              2.2997   YZ=              4.1822
 Traceless Quadrupole moment (field-independent basis, Debye-Ang):
   XX=             15.2049   YY=              3.2402   ZZ=            -18.4451
   XY=              1.0727   XZ=              2.2997   YZ=              4.1822
 Octapole moment (field-independent basis, Debye-Ang**2):
  XXX=            -45.2793  YYY=             53.9341  ZZZ=             -4.2782  XYY=             36.6534
  XXY=            -53.2881  XXZ=            -21.9266  XZZ=             10.4640  YZZ=             18.7951
  YYZ=             -3.1020  XYZ=             18.5417
 Hexadecapole moment (field-independent basis, Debye-Ang**3):
 XXXX=         -10067.4226 YYYY=          -6342.1243 ZZZZ=          -2675.8366 XXXY=             21.4745
 XXXZ=            -40.7881 YYYX=             42.6327 YYYZ=              6.3522 ZZZX=             34.7445
 ZZZY=            -60.4560 XXYY=          -2714.5784 XXZZ=          -2326.5213 YYZZ=          -1491.0365
 XXYZ=             33.3445 YYXZ=              4.9127 ZZXY=             17.3513
 N-N= 4.462492784777D+03 E-N=-1.805990812250D+04  KE= 3.848718808561D+03
                          Isotropic Fermi Contact Couplings
        Atom                 a.u.       MegaHertz       Gauss      10(-4) cm-1
     1  P(31)              0.07517      34.03376      12.14409      11.35244
     2  P(31)              0.09317      42.18721      15.05345      14.07214
     3  C(13)             -0.00230      -0.64591      -0.23048      -0.21545
     4  C(13)              0.00009       0.02399       0.00856       0.00800
     5  C(13)              0.00396       1.11270       0.39704       0.37116
     6  C(13)             -0.00008      -0.02206      -0.00787      -0.00736
     7  C(13)             -0.00003      -0.00979      -0.00349      -0.00327
     8  C(13)              0.00364       1.02344       0.36519       0.34138
     9  C(13)              0.00299       0.84139       0.30023       0.28066
    10  C(13)              0.00322       0.90366       0.32245       0.30143
    11  C(13)              0.00328       0.92227       0.32909       0.30764
    12  C(13)              0.00330       0.92743       0.33093       0.30936
    13  C(13)              0.00079       0.22184       0.07916       0.07400
    14  C(13)              0.00112       0.31499       0.11240       0.10507
    15  C(13)              0.00154       0.43168       0.15404       0.14399
    16  C(13)              0.00130       0.36557       0.13044       0.12194
    17  C(13)              0.00028       0.07740       0.02762       0.02582
    18  C(13)             -0.00021      -0.05899      -0.02105      -0.01968
    19  C(13)             -0.00054      -0.15223      -0.05432      -0.05078
    20  C(13)              0.00069       0.19261       0.06873       0.06425
    21  C(13)             -0.00025      -0.07086      -0.02529      -0.02364
    22  C(13)             -0.00071      -0.20012      -0.07141      -0.06675
    23  C(13)             -0.00105      -0.29547      -0.10543      -0.09856
    24  C(13)              0.00002       0.00585       0.00209       0.00195
    25  C(13)              0.00044       0.12360       0.04410       0.04123
    26  C(13)              0.00084       0.23728       0.08467       0.07915
    27  C(13)              0.00132       0.37128       0.13248       0.12384
    28  C(13)              0.00014       0.03858       0.01377       0.01287
    29  H(1)               0.00009       0.10374       0.03702       0.03461
    30  H(1)               0.00032       0.36028       0.12856       0.12018
    31  H(1)               0.00033       0.37160       0.13259       0.12395
    32  H(1)               0.00059       0.65797       0.23478       0.21947
    33  H(1)              -0.00001      -0.01172      -0.00418      -0.00391
    34  H(1)              -0.00005      -0.06102      -0.02177      -0.02035
    35  H(1)              -0.00010      -0.10657      -0.03803      -0.03555
    36  H(1)               0.00004       0.04931       0.01760       0.01645
    37  H(1)               0.00004       0.04445       0.01586       0.01483
    38  H(1)              -0.00005      -0.05807      -0.02072      -0.01937
    39  H(1)              -0.00010      -0.11458      -0.04089      -0.03822
    40  H(1)               0.00010       0.11625       0.04148       0.03878
    41  H(1)               0.00005       0.06128       0.02187       0.02044
    42  H(1)               0.00008       0.08391       0.02994       0.02799
    43  H(1)               0.00010       0.10625       0.03791       0.03544
    44  H(1)               0.00004       0.04629       0.01652       0.01544
    45  H(1)               0.00003       0.03527       0.01258       0.01176
    46  H(1)               0.00005       0.05050       0.01802       0.01684
    47  H(1)               0.00007       0.07558       0.02697       0.02521
    48  H(1)               0.00002       0.01902       0.00679       0.00635
    49  H(1)              -0.00004      -0.04859      -0.01734      -0.01621
    50  H(1)              -0.00009      -0.09897      -0.03532      -0.03301
    51  H(1)              -0.00014      -0.15351      -0.05477      -0.05120
    52  H(1)              -0.00001      -0.00915      -0.00326      -0.00305
    53  Fe(57)             0.07677       2.78385       0.99335       0.92859
    54  Cl(35)             0.02232       2.44679       0.87308       0.81616
    55  Cl(35)             0.01435       1.57328       0.56139       0.52479
 --------------------------------------------------------
       Center         ----  Spin Dipole Couplings  ----
                      3XX-RR        3YY-RR        3ZZ-RR
 --------------------------------------------------------
     1   Atom       -0.010369     -0.050407      0.060777
     2   Atom       -0.041450     -0.057354      0.098804
     3   Atom       -0.011167     -0.010675      0.021843
     4   Atom       -0.014417     -0.016166      0.030583
     5   Atom       -0.001944      0.010178     -0.008234
     6   Atom        0.015509     -0.009540     -0.005969
     7   Atom        0.018503     -0.008097     -0.010406
     8   Atom       -0.010057      0.014688     -0.004632
     9   Atom       -0.001710      0.004197     -0.002487
    10   Atom        0.007133     -0.007243      0.000110
    11   Atom        0.003803     -0.005773      0.001970
    12   Atom       -0.004799      0.002970      0.001830
    13   Atom        0.004397      0.006406     -0.010803
    14   Atom        0.005240     -0.006666      0.001426
    15   Atom        0.009090     -0.010060      0.000971
    16   Atom       -0.009732      0.019345     -0.009612
    17   Atom       -0.001708      0.003316     -0.001607
    18   Atom        0.004443     -0.001364     -0.003079
    19   Atom        0.005574     -0.000873     -0.004701
    20   Atom       -0.002781      0.003589     -0.000808
    21   Atom       -0.001021      0.004885     -0.003864
    22   Atom        0.004152     -0.000699     -0.003453
    23   Atom        0.007350     -0.001963     -0.005387
    24   Atom       -0.004610      0.008750     -0.004141
    25   Atom        0.001206      0.002383     -0.003589
    26   Atom        0.001126     -0.004010      0.002884
    27   Atom        0.000822     -0.005656      0.004834
    28   Atom       -0.002260      0.004282     -0.002023
    29   Atom       -0.005560     -0.007460      0.013021
    30   Atom       -0.006712     -0.002977      0.009689
    31   Atom       -0.014704     -0.014470      0.029174
    32   Atom       -0.005000     -0.006830      0.011830
    33   Atom       -0.001956      0.000477      0.001479
    34   Atom        0.004338     -0.002543     -0.001795
    35   Atom        0.002494     -0.000335     -0.002160
    36   Atom       -0.002867     -0.000083      0.002950
    37   Atom        0.008204      0.005565     -0.013769
    38   Atom        0.003277      0.000174     -0.003451
    39   Atom        0.014711     -0.006838     -0.007873
    40   Atom       -0.016447      0.033911     -0.017464
    41   Atom       -0.000784      0.001650     -0.000866
    42   Atom        0.002419     -0.001558     -0.000860
    43   Atom        0.002363     -0.001209     -0.001154
    44   Atom       -0.001635      0.001582      0.000053
    45   Atom       -0.000284      0.003145     -0.002861
    46   Atom        0.001619     -0.000020     -0.001599
    47   Atom        0.004173     -0.001890     -0.002283
    48   Atom       -0.003538      0.007033     -0.003495
    49   Atom       -0.000470      0.002250     -0.001780
    50   Atom        0.001921     -0.001131     -0.000789
    51   Atom        0.002967     -0.001839     -0.001128
    52   Atom       -0.001690      0.003003     -0.001313
    53   Atom       -1.338229      1.012097      0.326131
    54   Atom        0.008051     -0.033381      0.025330
    55   Atom        0.085868      0.010030     -0.095898
 --------------------------------------------------------
                        XY            XZ            YZ
 --------------------------------------------------------
     1   Atom        0.051609     -0.102517     -0.076205
     2   Atom       -0.045279      0.091885     -0.086046
     3   Atom        0.002329     -0.008146     -0.009726
     4   Atom       -0.000507      0.010615     -0.005694
     5   Atom        0.017469     -0.008106     -0.009524
     6   Atom       -0.001545     -0.015591      0.000276
     7   Atom       -0.004675      0.013029     -0.003930
     8   Atom       -0.009040      0.006264     -0.015898
     9   Atom        0.003280     -0.002853     -0.006876
    10   Atom        0.001649     -0.002022     -0.000195
    11   Atom       -0.005549      0.000711      0.001076
    12   Atom       -0.002557      0.002080     -0.008472
    13   Atom        0.015362      0.000354     -0.000262
    14   Atom       -0.007471     -0.008849      0.006767
    15   Atom        0.003241      0.007822      0.004485
    16   Atom       -0.007606      0.001887     -0.005367
    17   Atom        0.003996     -0.001230     -0.002148
    18   Atom       -0.000760     -0.004027      0.000440
    19   Atom       -0.000872      0.003176     -0.001185
    20   Atom       -0.001002      0.000857     -0.003779
    21   Atom        0.006734      0.000455      0.000507
    22   Atom       -0.003902     -0.004936      0.002237
    23   Atom        0.001983      0.004190     -0.000080
    24   Atom       -0.001399      0.000326     -0.002042
    25   Atom        0.002588     -0.000879     -0.000651
    26   Atom       -0.001882     -0.001059      0.000608
    27   Atom        0.000020      0.000687      0.001400
    28   Atom       -0.000988      0.000223     -0.002473
    29   Atom        0.000579     -0.006052     -0.001360
    30   Atom        0.001751     -0.003183     -0.009202
    31   Atom        0.002384      0.012270      0.009868
    32   Atom       -0.001268      0.006184     -0.002908
    33   Atom        0.003215     -0.003317     -0.004989
    34   Atom        0.003010     -0.004371     -0.001409
    35   Atom       -0.004437      0.003638     -0.002383
    36   Atom       -0.002352      0.003154     -0.005277
    37   Atom        0.024706      0.007687      0.007953
    38   Atom       -0.015231     -0.014663      0.012970
    39   Atom        0.012047      0.013110      0.005796
    40   Atom       -0.012033     -0.000503      0.004455
    41   Atom        0.001926     -0.000983     -0.001745
    42   Atom       -0.000011     -0.001900     -0.000013
    43   Atom       -0.001082      0.001514     -0.000486
    44   Atom       -0.000793      0.000622     -0.002527
    45   Atom        0.004623      0.001270      0.001864
    46   Atom       -0.003687     -0.002620      0.002119
    47   Atom        0.002563      0.002154      0.000813
    48   Atom       -0.000428      0.000014      0.000202
    49   Atom        0.002203     -0.000166     -0.000226
    50   Atom       -0.001536     -0.001598      0.000661
    51   Atom        0.000476      0.001250      0.000159
    52   Atom       -0.000354      0.000115     -0.001412
    53   Atom        0.216019      0.156376      1.607492
    54   Atom       -0.022114     -0.030323     -0.063734
    55   Atom       -0.015695     -0.001241     -0.086957
 --------------------------------------------------------


 ---------------------------------------------------------------------------------
              Anisotropic Spin Dipole Couplings in Principal Axis System
 ---------------------------------------------------------------------------------

       Atom             a.u.   MegaHertz   Gauss  10(-4) cm-1        Axes

              Baa    -0.0892   -19.276    -6.878    -6.430  0.0496  0.8763  0.4793
     1 P(31)  Bbb    -0.0827   -17.868    -6.376    -5.960  0.8446 -0.2929  0.4481
              Bcc     0.1718    37.144    13.254    12.390 -0.5330 -0.3826  0.7547
 
              Baa    -0.0971   -20.987    -7.489    -7.001  0.3554  0.9057  0.2311
     2 P(31)  Bbb    -0.0864   -18.682    -6.666    -6.232  0.8379 -0.1991 -0.5082
              Bcc     0.1835    39.669    14.155    13.232  0.4142 -0.3743  0.8297
 
              Baa    -0.0134    -1.795    -0.641    -0.599 -0.2298  0.9505  0.2093
     3 C(13)  Bbb    -0.0131    -1.752    -0.625    -0.584  0.9481  0.1701  0.2687
              Bcc     0.0264     3.548     1.266     1.183 -0.2198 -0.2602  0.9402
 
              Baa    -0.0175    -2.355    -0.840    -0.786 -0.6691  0.7063  0.2311
     4 C(13)  Bbb    -0.0161    -2.155    -0.769    -0.719  0.7112  0.6988 -0.0766
              Bcc     0.0336     4.510     1.609     1.504  0.2156 -0.1132  0.9699
 
              Baa    -0.0148    -1.993    -0.711    -0.665  0.8164 -0.4184  0.3981
     5 C(13)  Bbb    -0.0122    -1.633    -0.583    -0.545 -0.1642  0.4927  0.8546
              Bcc     0.0270     3.625     1.294     1.209  0.5536  0.7631 -0.3335
 
              Baa    -0.0142    -1.907    -0.680    -0.636  0.4663  0.1024  0.8787
     6 C(13)  Bbb    -0.0096    -1.283    -0.458    -0.428 -0.0081  0.9937 -0.1115
              Bcc     0.0238     3.190     1.138     1.064  0.8846 -0.0449 -0.4642
 
              Baa    -0.0160    -2.144    -0.765    -0.715 -0.3076  0.2722  0.9117
     7 C(13)  Bbb    -0.0086    -1.148    -0.410    -0.383  0.2576  0.9462 -0.1956
              Bcc     0.0245     3.292     1.175     1.098  0.9160 -0.1747  0.3612
 
              Baa    -0.0144    -1.937    -0.691    -0.646 -0.6311  0.2115  0.7463
     8 C(13)  Bbb    -0.0124    -1.670    -0.596    -0.557  0.7217  0.5128  0.4649
              Bcc     0.0269     3.607     1.287     1.203 -0.2844  0.8320 -0.4763
 
              Baa    -0.0069    -0.927    -0.331    -0.309  0.1671  0.4830  0.8595
     9 C(13)  Bbb    -0.0032    -0.425    -0.151    -0.142  0.9243 -0.3801  0.0339
              Bcc     0.0101     1.351     0.482     0.451  0.3431  0.7888 -0.5099
 
              Baa    -0.0074    -0.997    -0.356    -0.333 -0.1132  0.9936 -0.0046
    10 C(13)  Bbb    -0.0004    -0.057    -0.020    -0.019  0.2516  0.0331  0.9673
              Bcc     0.0079     1.054     0.376     0.351  0.9612  0.1083 -0.2537
 
              Baa    -0.0085    -1.137    -0.406    -0.379  0.4147  0.9018 -0.1212
    11 C(13)  Bbb     0.0021     0.284     0.101     0.095  0.0082  0.1295  0.9916
              Bcc     0.0064     0.853     0.304     0.284  0.9099 -0.4122  0.0463
 
              Baa    -0.0062    -0.827    -0.295    -0.276  0.2971  0.6928  0.6571
    12 C(13)  Bbb    -0.0054    -0.723    -0.258    -0.241  0.9343 -0.0688 -0.3499
              Bcc     0.0116     1.550     0.553     0.517 -0.1972  0.7179 -0.6677
 
              Baa    -0.0110    -1.475    -0.526    -0.492 -0.2934  0.2729  0.9162
    13 C(13)  Bbb    -0.0098    -1.315    -0.469    -0.439  0.6682 -0.6269  0.4007
              Bcc     0.0208     2.791     0.996     0.931  0.6837  0.7298  0.0016
 
              Baa    -0.0110    -1.483    -0.529    -0.495  0.2440  0.9144 -0.3230
    14 C(13)  Bbb    -0.0057    -0.761    -0.271    -0.254  0.6625  0.0860  0.7441
              Bcc     0.0167     2.243     0.801     0.748  0.7082 -0.3955 -0.5848
 
              Baa    -0.0117    -1.565    -0.559    -0.522 -0.0277  0.9473 -0.3191
    15 C(13)  Bbb    -0.0032    -0.433    -0.155    -0.145 -0.5650  0.2485  0.7868
              Bcc     0.0149     1.999     0.713     0.667  0.8247  0.2020  0.5283
 
              Baa    -0.0118    -1.589    -0.567    -0.530  0.9040  0.1517 -0.3997
    16 C(13)  Bbb    -0.0104    -1.393    -0.497    -0.465  0.3553  0.2534  0.8998
              Bcc     0.0222     2.982     1.064     0.995 -0.2378  0.9554 -0.1752
 
              Baa    -0.0039    -0.526    -0.188    -0.175  0.8779 -0.4782  0.0228
    17 C(13)  Bbb    -0.0024    -0.320    -0.114    -0.107  0.1238  0.2728  0.9541
              Bcc     0.0063     0.845     0.302     0.282  0.4625  0.8348 -0.2987
 
              Baa    -0.0048    -0.648    -0.231    -0.216  0.3961 -0.0297  0.9177
    18 C(13)  Bbb    -0.0015    -0.196    -0.070    -0.065  0.1157  0.9931 -0.0178
              Bcc     0.0063     0.844     0.301     0.282  0.9109 -0.1132 -0.3968
 
              Baa    -0.0058    -0.775    -0.276    -0.258 -0.2517  0.1850  0.9500
    19 C(13)  Bbb    -0.0009    -0.119    -0.042    -0.040  0.1982  0.9706 -0.1365
              Bcc     0.0067     0.893     0.319     0.298  0.9473 -0.1539  0.2809
 
              Baa    -0.0032    -0.432    -0.154    -0.144  0.6931 -0.2693 -0.6687
    20 C(13)  Bbb    -0.0027    -0.367    -0.131    -0.122  0.7058  0.4424  0.5534
              Bcc     0.0060     0.799     0.285     0.267 -0.1468  0.8555 -0.4966
 
              Baa    -0.0054    -0.728    -0.260    -0.243  0.8369 -0.5432 -0.0673
    21 C(13)  Bbb    -0.0039    -0.522    -0.186    -0.174  0.0286 -0.0795  0.9964
              Bcc     0.0093     1.251     0.446     0.417  0.5466  0.8358  0.0510
 
              Baa    -0.0059    -0.792    -0.283    -0.264  0.4144 -0.0790  0.9067
    22 C(13)  Bbb    -0.0028    -0.378    -0.135    -0.126  0.4223  0.8992 -0.1147
              Bcc     0.0087     1.170     0.418     0.390  0.8062 -0.4304 -0.4060
 
              Baa    -0.0067    -0.904    -0.322    -0.301 -0.3005  0.1408  0.9433
    23 C(13)  Bbb    -0.0022    -0.295    -0.105    -0.098 -0.1217  0.9753 -0.1843
              Bcc     0.0089     1.198     0.428     0.400  0.9460  0.1702  0.2759
 
              Baa    -0.0048    -0.643    -0.229    -0.215  0.9472  0.0501 -0.3166
    24 C(13)  Bbb    -0.0044    -0.593    -0.212    -0.198  0.3035  0.1773  0.9362
              Bcc     0.0092     1.236     0.441     0.412 -0.1030  0.9829 -0.1528
 
              Baa    -0.0038    -0.504    -0.180    -0.168  0.1543  0.0396  0.9872
    25 C(13)  Bbb    -0.0008    -0.112    -0.040    -0.037  0.7662 -0.6356 -0.0942
              Bcc     0.0046     0.615     0.220     0.205  0.6238  0.7710 -0.1284
 
              Baa    -0.0046    -0.622    -0.222    -0.207  0.3048  0.9518 -0.0341
    26 C(13)  Bbb     0.0010     0.133     0.047     0.044  0.8119 -0.2409  0.5318
              Bcc     0.0036     0.489     0.174     0.163 -0.4980  0.1898  0.8462
 
              Baa    -0.0058    -0.784    -0.280    -0.261  0.0105  0.9914 -0.1307
    27 C(13)  Bbb     0.0007     0.096     0.034     0.032  0.9876 -0.0308 -0.1541
              Bcc     0.0051     0.688     0.245     0.229  0.1568  0.1274  0.9794
 
              Baa    -0.0029    -0.389    -0.139    -0.130  0.2120  0.3441  0.9147
    28 C(13)  Bbb    -0.0024    -0.318    -0.113    -0.106  0.9682  0.0530 -0.2444
              Bcc     0.0053     0.707     0.252     0.236 -0.1326  0.9375 -0.3219
 
              Baa    -0.0077    -4.083    -1.457    -1.362 -0.4896  0.8677 -0.0863
    29 H(1)   Bbb    -0.0073    -3.875    -1.383    -1.292  0.8242  0.4928  0.2790
              Bcc     0.0149     7.957     2.839     2.654 -0.2845 -0.0655  0.9564
 
              Baa    -0.0078    -4.174    -1.489    -1.392 -0.1315  0.8872  0.4423
    30 H(1)   Bbb    -0.0073    -3.899    -1.391    -1.300  0.9777  0.0422  0.2059
              Bcc     0.0151     8.073     2.881     2.693 -0.1640 -0.4595  0.8729
 
              Baa    -0.0179    -9.564    -3.413    -3.190  0.9528  0.1284 -0.2751
    31 H(1)   Bbb    -0.0166    -8.831    -3.151    -2.946 -0.1775  0.9707 -0.1618
              Bcc     0.0345    18.395     6.564     6.136  0.2463  0.2030  0.9477
 
              Baa    -0.0075    -3.996    -1.426    -1.333  0.5503  0.8334 -0.0507
    32 H(1)   Bbb    -0.0068    -3.649    -1.302    -1.217  0.7753 -0.5325 -0.3397
              Bcc     0.0143     7.645     2.728     2.550  0.3101 -0.1477  0.9392
 
              Baa    -0.0042    -2.241    -0.800    -0.748 -0.6840  0.6976  0.2133
    33 H(1)   Bbb    -0.0039    -2.086    -0.744    -0.696  0.5986  0.3696  0.7107
              Bcc     0.0081     4.327     1.544     1.443 -0.4170 -0.6138  0.6704
 
              Baa    -0.0041    -2.190    -0.781    -0.731  0.5144 -0.2524  0.8196
    34 H(1)   Bbb    -0.0036    -1.913    -0.683    -0.638 -0.1431  0.9171  0.3722
              Bcc     0.0077     4.103     1.464     1.369  0.8456  0.3087 -0.4356
 
              Baa    -0.0042    -2.216    -0.791    -0.739 -0.5027 -0.0453  0.8633
    35 H(1)   Bbb    -0.0035    -1.871    -0.668    -0.624  0.4419  0.8448  0.3016
              Bcc     0.0077     4.087     1.458     1.363  0.7430 -0.5331  0.4047
 
              Baa    -0.0043    -2.270    -0.810    -0.757  0.9395  0.1272 -0.3182
    36 H(1)   Bbb    -0.0041    -2.164    -0.772    -0.722  0.0846  0.8138  0.5749
              Bcc     0.0083     4.433     1.582     1.479  0.3321 -0.5670  0.7538
 
              Baa    -0.0180    -9.598    -3.425    -3.202 -0.6195  0.7391 -0.2646
    37 H(1)   Bbb    -0.0162    -8.635    -3.081    -2.880 -0.3438  0.0476  0.9378
              Bcc     0.0342    18.233     6.506     6.082  0.7057  0.6719  0.2246
 
              Baa    -0.0153    -8.173    -2.916    -2.726  0.4495 -0.2708  0.8513
    38 H(1)   Bbb    -0.0136    -7.239    -2.583    -2.415  0.6268  0.7746 -0.0846
              Bcc     0.0289    15.412     5.499     5.141  0.6365 -0.5716 -0.5179
 
              Baa    -0.0139    -7.425    -2.649    -2.477 -0.3678 -0.1282  0.9210
    39 H(1)   Bbb    -0.0122    -6.522    -2.327    -2.175 -0.3958  0.9179 -0.0303
              Bcc     0.0261    13.947     4.977     4.652  0.8415  0.3756  0.3884
 
              Baa    -0.0193   -10.317    -3.681    -3.441  0.9214  0.2342 -0.3100
    40 H(1)   Bbb    -0.0177    -9.427    -3.364    -3.144  0.3205 -0.0071  0.9472
              Bcc     0.0370    19.743     7.045     6.586 -0.2196  0.9722  0.0815
 
              Baa    -0.0018    -0.986    -0.352    -0.329  0.8969 -0.4048  0.1783
    41 H(1)   Bbb    -0.0018    -0.939    -0.335    -0.313  0.0230  0.4453  0.8951
              Bcc     0.0036     1.925     0.687     0.642  0.4417  0.7987 -0.4087
 
              Baa    -0.0017    -0.924    -0.330    -0.308  0.4146  0.0929  0.9052
    42 H(1)   Bbb    -0.0016    -0.831    -0.296    -0.277 -0.0378  0.9957 -0.0849
              Bcc     0.0033     1.755     0.626     0.585  0.9092 -0.0010 -0.4163
 
              Baa    -0.0017    -0.930    -0.332    -0.310 -0.2533  0.3178  0.9137
    43 H(1)   Bbb    -0.0015    -0.799    -0.285    -0.267  0.3431  0.9126 -0.2223
              Bcc     0.0032     1.729     0.617     0.577  0.9045 -0.2572  0.3401
 
              Baa    -0.0019    -0.988    -0.353    -0.330  0.7211 -0.2950 -0.6269
    44 H(1)   Bbb    -0.0018    -0.960    -0.342    -0.320  0.6671  0.5400  0.5132
              Bcc     0.0037     1.948     0.695     0.650 -0.1872  0.7882 -0.5862
 
              Baa    -0.0035    -1.870    -0.667    -0.624  0.7862 -0.5942  0.1696
    45 H(1)   Bbb    -0.0034    -1.803    -0.643    -0.601 -0.2697 -0.0830  0.9594
              Bcc     0.0069     3.673     1.311     1.225  0.5560  0.8000  0.2255
 
              Baa    -0.0031    -1.645    -0.587    -0.549  0.2397 -0.3404  0.9092
    46 H(1)   Bbb    -0.0030    -1.588    -0.567    -0.530  0.6582  0.7454  0.1056
              Bcc     0.0061     3.233     1.153     1.078  0.7136 -0.5732 -0.4027
 
              Baa    -0.0029    -1.571    -0.561    -0.524 -0.1903 -0.2658  0.9451
    47 H(1)   Bbb    -0.0028    -1.507    -0.538    -0.503 -0.3861  0.9053  0.1769
              Bcc     0.0058     3.078     1.098     1.027  0.9026  0.3312  0.2749
 
              Baa    -0.0036    -1.901    -0.678    -0.634  0.9434  0.0444 -0.3287
    48 H(1)   Bbb    -0.0035    -1.863    -0.665    -0.621  0.3292 -0.0048  0.9442
              Bcc     0.0071     3.764     1.343     1.255 -0.0403  0.9990  0.0191
 
              Baa    -0.0018    -0.964    -0.344    -0.321  0.2940 -0.1068  0.9498
    49 H(1)   Bbb    -0.0017    -0.900    -0.321    -0.300  0.8226 -0.4779 -0.3083
              Bcc     0.0035     1.864     0.665     0.622  0.4868  0.8719 -0.0527
 
              Baa    -0.0018    -0.945    -0.337    -0.315  0.3885  0.9214  0.0119
    50 H(1)   Bbb    -0.0015    -0.812    -0.290    -0.271  0.3552 -0.1616  0.9207
              Bcc     0.0033     1.756     0.627     0.586  0.8503 -0.3534 -0.3900
 
              Baa    -0.0019    -1.008    -0.360    -0.336 -0.0762  0.9937 -0.0827
    51 H(1)   Bbb    -0.0015    -0.789    -0.281    -0.263 -0.2762  0.0587  0.9593
              Bcc     0.0034     1.796     0.641     0.599  0.9581  0.0959  0.2700
 
              Baa    -0.0017    -0.927    -0.331    -0.309 -0.3977  0.2346  0.8870
    52 H(1)   Bbb    -0.0017    -0.914    -0.326    -0.305  0.9147  0.1773  0.3632
              Bcc     0.0035     1.841     0.657     0.614 -0.0721  0.9558 -0.2851
 
              Baa    -1.3581   -23.512    -8.390    -7.843  0.9967 -0.0796 -0.0166
    53 Fe(57) Bbb    -0.9740   -16.863    -6.017    -5.625 -0.0371 -0.6262  0.7787
              Bcc     2.3321    40.375    14.407    13.468  0.0724  0.7755  0.6271
 
              Baa    -0.0872    -4.564    -1.629    -1.522  0.3484  0.7723  0.5313
    54 Cl(35) Bbb     0.0176     0.919     0.328     0.307  0.9040 -0.4267  0.0275
              Bcc     0.0696     3.644     1.300     1.216 -0.2479 -0.4707  0.8468
 
              Baa    -0.1451    -7.593    -2.710    -2.533  0.0381  0.4916  0.8700
    55 Cl(35) Bbb     0.0536     2.807     1.002     0.936  0.3721  0.8011 -0.4689
              Bcc     0.0914     4.786     1.708     1.596  0.9274 -0.3416  0.1524
 

 ---------------------------------------------------------------------------------

 DoSCS=F DFT=T ScalE2(SS,OS)=  1.000000  1.000000
 Range of M.O.s used for correlation:     1   587
 NBasis=   587 NAE=   137 NBE=   133 NFC=     0 NFV=     0
 NROrb=    587 NOA=   137 NOB=   133 NVA=   450 NVB=   454

 **** Warning!!: The largest alpha MO coefficient is  0.10040243D+02


 **** Warning!!: The largest beta MO coefficient is  0.10441303D+02

 Orbital symmetries:
 Alpha Orbitals:
       Occupied  (A) (A) (A) (A) (A) (A) (A) (A) (A) (A) (A) (A)
                 (A) (A) (A) (A) (A) (A) (A) (A) (A) (A) (A) (A)
                 (A) (A) (A) (A) (A) (A) (A) (A) (A) (A) (A) (A)
                 (A) (A) (A) (A) (A) (A) (A) (A) (A) (A) (A) (A)
                 (A) (A) (A) (A) (A) (A) (A) (A) (A) (A) (A) (A)
                 (A) (A) (A) (A) (A) (A) (A) (A) (A) (A) (A) (A)
                 (A) (A) (A) (A) (A) (A) (A) (A) (A) (A) (A) (A)
                 (A) (A) (A) (A) (A) (A) (A) (A) (A) (A) (A) (A)
                 (A) (A) (A) (A) (A) (A) (A) (A) (A) (A) (A) (A)
                 (A) (A) (A) (A) (A) (A) (A) (A) (A) (A) (A) (A)
                 (A) (A) (A) (A) (A) (A) (A) (A) (A) (A) (A) (A)
                 (A) (A) (A) (A) (A)
       Virtual   (A) (A) (A) (A) (A) (A) (A) (A) (A) (A) (A) (A)
                 (A) (A) (A) (A) (A) (A) (A) (A) (A) (A) (A) (A)
                 (A) (A) (A) (A) (A) (A) (A) (A) (A) (A) (A) (A)
                 (A) (A) (A) (A) (A) (A) (A) (A) (A) (A) (A) (A)
                 (A) (A) (A) (A) (A) (A) (A) (A) (A) (A) (A) (A)
                 (A) (A) (A) (A) (A) (A) (A) (A) (A) (A) (A) (A)
                 (A) (A) (A) (A) (A) (A) (A) (A) (A) (A) (A) (A)
                 (A) (A) (A) (A) (A) (A) (A) (A) (A) (A) (A) (A)
                 (A) (A) (A) (A) (A) (A) (A) (A) (A) (A) (A) (A)
                 (A) (A) (A) (A) (A) (A) (A) (A) (A) (A) (A) (A)
                 (A) (A) (A) (A) (A) (A) (A) (A) (A) (A) (A) (A)
                 (A) (A) (A) (A) (A) (A) (A) (A) (A) (A) (A) (A)
                 (A) (A) (A) (A) (A) (A) (A) (A) (A) (A) (A) (A)
                 (A) (A) (A) (A) (A) (A) (A) (A) (A) (A) (A) (A)
                 (A) (A) (A) (A) (A) (A) (A) (A) (A) (A) (A) (A)
                 (A) (A) (A) (A) (A) (A) (A) (A) (A) (A) (A) (A)
                 (A) (A) (A) (A) (A) (A) (A) (A) (A) (A) (A) (A)
                 (A) (A) (A) (A) (A) (A) (A) (A) (A) (A) (A) (A)
                 (A) (A) (A) (A) (A) (A) (A) (A) (A) (A) (A) (A)
                 (A) (A) (A) (A) (A) (A) (A) (A) (A) (A) (A) (A)
                 (A) (A) (A) (A) (A) (A) (A) (A) (A) (A) (A) (A)
                 (A) (A) (A) (A) (A) (A) (A) (A) (A) (A) (A) (A)
                 (A) (A) (A) (A) (A) (A) (A) (A) (A) (A) (A) (A)
                 (A) (A) (A) (A) (A) (A) (A) (A) (A) (A) (A) (A)
                 (A) (A) (A) (A) (A) (A) (A) (A) (A) (A) (A) (A)
                 (A) (A) (A) (A) (A) (A) (A) (A) (A) (A) (A) (A)
                 (A) (A) (A) (A) (A) (A) (A) (A) (A) (A) (A) (A)
                 (A) (A) (A) (A) (A) (A) (A) (A) (A) (A) (A) (A)
                 (A) (A) (A) (A) (A) (A) (A) (A) (A) (A) (A) (A)
                 (A) (A) (A) (A) (A) (A) (A) (A) (A) (A) (A) (A)
                 (A) (A) (A) (A) (A) (A) (A) (A) (A) (A) (A) (A)
                 (A) (A) (A) (A) (A) (A) (A) (A) (A) (A) (A) (A)
                 (A) (A) (A) (A) (A) (A) (A) (A) (A) (A) (A) (A)
                 (A) (A) (A) (A) (A) (A) (A) (A) (A) (A) (A) (A)
                 (A) (A) (A) (A) (A) (A) (A) (A) (A) (A) (A) (A)
                 (A) (A) (A) (A) (A) (A) (A) (A) (A) (A) (A) (A)
                 (A) (A) (A) (A) (A) (A) (A) (A) (A) (A) (A) (A)
                 (A) (A) (A) (A) (A) (A)
 Beta  Orbitals:
       Occupied  (A) (A) (A) (A) (A) (A) (A) (A) (A) (A) (A) (A)
                 (A) (A) (A) (A) (A) (A) (A) (A) (A) (A) (A) (A)
                 (A) (A) (A) (A) (A) (A) (A) (A) (A) (A) (A) (A)
                 (A) (A) (A) (A) (A) (A) (A) (A) (A) (A) (A) (A)
                 (A) (A) (A) (A) (A) (A) (A) (A) (A) (A) (A) (A)
                 (A) (A) (A) (A) (A) (A) (A) (A) (A) (A) (A) (A)
                 (A) (A) (A) (A) (A) (A) (A) (A) (A) (A) (A) (A)
                 (A) (A) (A) (A) (A) (A) (A) (A) (A) (A) (A) (A)
                 (A) (A) (A) (A) (A) (A) (A) (A) (A) (A) (A) (A)
                 (A) (A) (A) (A) (A) (A) (A) (A) (A) (A) (A) (A)
                 (A) (A) (A) (A) (A) (A) (A) (A) (A) (A) (A) (A)
                 (A)
       Virtual   (A) (A) (A) (A) (A) (A) (A) (A) (A) (A) (A) (A)
                 (A) (A) (A) (A) (A) (A) (A) (A) (A) (A) (A) (A)
                 (A) (A) (A) (A) (A) (A) (A) (A) (A) (A) (A) (A)
                 (A) (A) (A) (A) (A) (A) (A) (A) (A) (A) (A) (A)
                 (A) (A) (A) (A) (A) (A) (A) (A) (A) (A) (A) (A)
                 (A) (A) (A) (A) (A) (A) (A) (A) (A) (A) (A) (A)
                 (A) (A) (A) (A) (A) (A) (A) (A) (A) (A) (A) (A)
                 (A) (A) (A) (A) (A) (A) (A) (A) (A) (A) (A) (A)
                 (A) (A) (A) (A) (A) (A) (A) (A) (A) (A) (A) (A)
                 (A) (A) (A) (A) (A) (A) (A) (A) (A) (A) (A) (A)
                 (A) (A) (A) (A) (A) (A) (A) (A) (A) (A) (A) (A)
                 (A) (A) (A) (A) (A) (A) (A) (A) (A) (A) (A) (A)
                 (A) (A) (A) (A) (A) (A) (A) (A) (A) (A) (A) (A)
                 (A) (A) (A) (A) (A) (A) (A) (A) (A) (A) (A) (A)
                 (A) (A) (A) (A) (A) (A) (A) (A) (A) (A) (A) (A)
                 (A) (A) (A) (A) (A) (A) (A) (A) (A) (A) (A) (A)
                 (A) (A) (A) (A) (A) (A) (A) (A) (A) (A) (A) (A)
                 (A) (A) (A) (A) (A) (A) (A) (A) (A) (A) (A) (A)
                 (A) (A) (A) (A) (A) (A) (A) (A) (A) (A) (A) (A)
                 (A) (A) (A) (A) (A) (A) (A) (A) (A) (A) (A) (A)
                 (A) (A) (A) (A) (A) (A) (A) (A) (A) (A) (A) (A)
                 (A) (A) (A) (A) (A) (A) (A) (A) (A) (A) (A) (A)
                 (A) (A) (A) (A) (A) (A) (A) (A) (A) (A) (A) (A)
                 (A) (A) (A) (A) (A) (A) (A) (A) (A) (A) (A) (A)
                 (A) (A) (A) (A) (A) (A) (A) (A) (A) (A) (A) (A)
                 (A) (A) (A) (A) (A) (A) (A) (A) (A) (A) (A) (A)
                 (A) (A) (A) (A) (A) (A) (A) (A) (A) (A) (A) (A)
                 (A) (A) (A) (A) (A) (A) (A) (A) (A) (A) (A) (A)
                 (A) (A) (A) (A) (A) (A) (A) (A) (A) (A) (A) (A)
                 (A) (A) (A) (A) (A) (A) (A) (A) (A) (A) (A) (A)
                 (A) (A) (A) (A) (A) (A) (A) (A) (A) (A) (A) (A)
                 (A) (A) (A) (A) (A) (A) (A) (A) (A) (A) (A) (A)
                 (A) (A) (A) (A) (A) (A) (A) (A) (A) (A) (A) (A)
                 (A) (A) (A) (A) (A) (A) (A) (A) (A) (A) (A) (A)
                 (A) (A) (A) (A) (A) (A) (A) (A) (A) (A) (A) (A)
                 (A) (A) (A) (A) (A) (A) (A) (A) (A) (A) (A) (A)
                 (A) (A) (A) (A) (A) (A) (A) (A) (A) (A) (A) (A)
                 (A) (A) (A) (A) (A) (A) (A) (A) (A) (A)
    12 initial guesses have been made.
 Convergence on wavefunction:    0.001000000000000
 Iteration     1 Dimension    12 NMult     0 NNew     12
 CISAX will form    12 AO SS matrices at one time.
 New state      1 was old state     11
 Iteration     2 Dimension    24 NMult    12 NNew     12
 Iteration     3 Dimension    27 NMult    24 NNew      3
 Iteration     4 Dimension    30 NMult    27 NNew      3
 Iteration     5 Dimension    33 NMult    30 NNew      3
 Iteration     6 Dimension    36 NMult    33 NNew      3
 Iteration     7 Dimension    39 NMult    36 NNew      3
 Iteration     8 Dimension    42 NMult    39 NNew      3
 Iteration     9 Dimension    45 NMult    42 NNew      3
 Iteration    10 Dimension    48 NMult    45 NNew      3
 ***********************************************************************
 Stability analysis using <AA,BB:AA,BB> singles matrix:
 ***********************************************************************
 Ground to excited state transition densities written to RWF  633

 Eigenvectors of the stability matrix:
 
 Eigenvector   1:  5.005-A    Eigenvalue= 0.0118917  <S**2>=6.011
    122B ->137B       -0.15186
    133B ->134B        0.12412
    133B ->135B        0.36880
    133B ->136B        0.21420
    133B ->137B        0.83040
 The wavefunction is stable under the perturbations considered.
 The wavefunction is already stable.

 **********************************************************************

            Population analysis using the SCF Density.

 **********************************************************************

 Orbital symmetries:
 Alpha Orbitals:
       Occupied  (A) (A) (A) (A) (A) (A) (A) (A) (A) (A) (A) (A)
                 (A) (A) (A) (A) (A) (A) (A) (A) (A) (A) (A) (A)
                 (A) (A) (A) (A) (A) (A) (A) (A) (A) (A) (A) (A)
                 (A) (A) (A) (A) (A) (A) (A) (A) (A) (A) (A) (A)
                 (A) (A) (A) (A) (A) (A) (A) (A) (A) (A) (A) (A)
                 (A) (A) (A) (A) (A) (A) (A) (A) (A) (A) (A) (A)
                 (A) (A) (A) (A) (A) (A) (A) (A) (A) (A) (A) (A)
                 (A) (A) (A) (A) (A) (A) (A) (A) (A) (A) (A) (A)
                 (A) (A) (A) (A) (A) (A) (A) (A) (A) (A) (A) (A)
                 (A) (A) (A) (A) (A) (A) (A) (A) (A) (A) (A) (A)
                 (A) (A) (A) (A) (A) (A) (A) (A) (A) (A) (A) (A)
                 (A) (A) (A) (A) (A)
       Virtual   (A) (A) (A) (A) (A) (A) (A) (A) (A) (A) (A) (A)
                 (A) (A) (A) (A) (A) (A) (A) (A) (A) (A) (A) (A)
                 (A) (A) (A) (A) (A) (A) (A) (A) (A) (A) (A) (A)
                 (A) (A) (A) (A) (A) (A) (A) (A) (A) (A) (A) (A)
                 (A) (A) (A) (A) (A) (A) (A) (A) (A) (A) (A) (A)
                 (A) (A) (A) (A) (A) (A) (A) (A) (A) (A) (A) (A)
                 (A) (A) (A) (A) (A) (A) (A) (A) (A) (A) (A) (A)
                 (A) (A) (A) (A) (A) (A) (A) (A) (A) (A) (A) (A)
                 (A) (A) (A) (A) (A) (A) (A) (A) (A) (A) (A) (A)
                 (A) (A) (A) (A) (A) (A) (A) (A) (A) (A) (A) (A)
[...]
 0,0.00008322,0.00001111,-0.00000386,-0.00000153,0.00000082,-0.00000026
 ,-0.00000104,-0.00000231,-0.00000109,0.00000059,0.00031407,0.00103755,
 0.00016461,0.00002686,0.00001859,-0.00000306,0.00000029,-0.00000011,0.
 00000061,0.00000224,0.00000053,0.00000182,0.00131992,0.00030907,0.0006
 8135,-0.00000475,0.00001081,-0.00001040,0.00000019,0.00000007,0.000000
 09,0.00000242,0.00000030,-0.00000088,0.00118993,-0.00082523,0.00071492
 ,-0.00004370,-0.00001738,-0.00000166,-0.00000006,0.,0.00000038,-0.0000
 0018,-0.00000120,0.00000066,0.00222416,-0.02233601,0.05489340,-0.01961
 662,-0.00721494,0.01800952,-0.01965745,0.01065532,-0.01931151,0.002602
 87,0.00160417,-0.00089991,0.00228092,-0.00113915,0.00046713,0.00083379
 ,-0.00058799,-0.00227307,-0.00169564,-0.00004631,0.00070226,-0.0018472
 4,0.00088663,-0.00104282,0.00164330,0.00010268,0.00302164,0.00018906,0
 .00081232,0.00062953,0.00031956,-0.00012451,0.00028197,0.00012894,-0.0
 0021784,-0.00024596,-0.00034908,-0.00127064,-0.00052462,-0.00046816,-0
 .00047214,0.00057521,-0.00009845,-0.00035945,-0.00004836,-0.00003081,0
 .00072686,0.00000557,0.00001529,-0.00013076,-0.00001110,-0.00015179,0.
 00030931,-0.00015312,-0.00006515,-0.00000277,0.00003405,-0.00012081,0.
 00000076,-0.00002121,-0.00024324,-0.00032684,0.00032734,0.00000544,0.0
 0005471,-0.00022221,-0.00005118,0.00008212,-0.00014089,0.00001427,-0.0
 0024942,0.00013249,-0.00003970,0.00007695,0.00001243,0.00001716,0.0002
 5725,-0.00002310,0.00009682,-0.00008845,-0.00000484,0.00012499,0.00008
 860,-0.00001510,0.00002398,-0.00019231,0.00019538,-0.00066115,0.000033
 75,-0.00064054,-0.00033808,-0.00015625,-0.00095033,-0.00020307,-0.0001
 1986,-0.00027507,-0.00101925,0.00029679,0.00090847,0.00007740,-0.00010
 577,-0.00010214,-0.00007447,0.00000789,0.00002429,-0.00000862,-0.00002
 240,-0.00001112,0.00013787,0.00009216,-0.00004615,-0.00041431,-0.00052
 281,-0.00048197,0.00045691,0.00047582,0.00000190,-0.00008003,-0.000326
 87,-0.00008692,0.00023459,0.00020839,0.00032310,0.00008724,0.00013753,
 -0.00003143,0.00003378,0.00001066,-0.00004897,0.00001420,-0.00003344,0
 .00004732,-0.00002115,-0.00016821,0.00004569,0.00005830,0.00006067,0.0
 0005178,0.00007605,-0.00005898,0.00000880,0.00002487,0.00001996,-0.000
 02627,0.00002830,-0.00014888,-0.00005596,0.00006179,0.00006505,-0.0000
 1297,0.00003556,-0.00001893,-0.00000022,0.00005204,-0.00001180,0.00001
 099,0.00003498,-0.00007617,0.00000580,0.04772101,-0.00529621,-0.008094
 94,0.00915457,0.00787029,-0.01031696,0.01459344,0.00051628,0.00049665,
 -0.00008014,-0.00125524,0.00143614,-0.00080325,-0.00102856,-0.00118957
 ,0.00216437,0.00097073,0.00249325,-0.00311518,0.00007984,0.00173028,-0
 .00299145,0.00120338,-0.00119219,0.00179292,-0.00039605,-0.00026485,-0
 .00043323,0.00055202,-0.00124754,-0.00014547,-0.00070586,-0.00074490,0
 .00004577,0.00023309,-0.00030509,-0.00048185,-0.00004870,-0.00104407,0
 .00094055,0.00119033,0.00093881,-0.00002283,-0.00082053,0.00116302,-0.
 00025293,0.00012356,-0.00081693,0.00202744,0.00012925,-0.00009358,-0.0
 0007859,0.00016696,-0.00015489,0.00024712,-0.00016471,-0.00017341,0.00
 029102,-0.00016773,-0.00005964,-0.00010141,0.00020101,0.00012436,-0.00
 050233,-0.00059891,-0.00053602,0.00008316,0.00047696,-0.00062181,0.000
 11342,-0.00029406,0.00020101,-0.00076058,-0.00005628,-0.00004449,0.000
 10658,0.00022416,0.00007740,-0.00010237,-0.00026046,0.00018627,-0.0001
 1252,0.00011147,0.00003241,0.00018911,0.00005549,0.00004486,-0.0002382
 8,-0.00032676,-0.00011567,-0.00023959,-0.00040769,0.00032678,-0.001828
 85,0.00066090,-0.00082149,-0.00081645,-0.00007692,0.00008746,-0.000095
 03,-0.00025346,-0.00004284,-0.00006538,0.00019748,-0.00011757,-0.00007
 633,0.00000547,0.00000270,-0.00014578,-0.00138958,-0.00041568,-0.00011
 024,0.00168566,0.00013878,-0.00093029,-0.00141110,0.00045684,-0.000494
 14,0.00058928,-0.00166116,-0.00046538,0.00000202,-0.00002955,-0.000045
 46,0.00008752,-0.00009171,-0.00001319,-0.00010044,-0.00003809,0.000012
 87,-0.00005262,-0.00000487,-0.00003935,-0.00005801,-0.00004902,0.00000
 514,0.00017262,-0.00011466,-0.00006494,-0.00019659,-0.00005282,-0.0000
 1954,0.00001004,-0.00005559,0.00002494,-0.00000879,0.00007739,-0.00004
 214,-0.00007550,-0.00005050,0.00003379,0.00004425,-0.00006168,0.000031
 33,0.00001012,0.00006897,-0.00008644,0.01211939,0.12885970,0.01329226,
 0.00978022,-0.02271570,-0.01401284,0.01403131,-0.02326435,0.00130158,0
 .00098431,-0.00400841,-0.00045365,0.00097497,-0.00446798,-0.00156899,0
 .00074596,0.00362935,-0.00015018,-0.00177020,0.00182581,0.00010551,-0.
 00180594,0.00282449,0.00147265,0.00028874,0.00177240,-0.00048650,-0.00
 122271,-0.00131037,-0.00048034,0.00072396,-0.00005392,0.00069388,0.000
 63631,-0.00008498,-0.00056115,-0.00110101,-0.00059792,0.00049436,-0.00
 166926,0.00113428,0.00016142,0.00043182,0.00001932,0.00025512,0.000329
 30,-0.00007137,-0.00003678,-0.00062635,0.00147181,0.00015135,-0.000355
 89,-0.00014409,-0.00021642,-0.00000175,-0.00021831,0.00023226,-0.00002
 884,-0.00031070,-0.00014530,-0.00032273,-0.00003119,0.00007029,0.00046
 738,-0.00062900,-0.00024944,-0.00029513,-0.00005425,0.00002424,-0.0003
 4774,-0.00011931,-0.00006268,0.00022256,-0.00075934,-0.00014722,-0.000
 29790,0.00031229,-0.00024899,0.00010605,0.00005794,0.00035816,-0.00003
 640,0.00006899,0.00011073,-0.00007336,0.00031679,-0.00026926,0.0000438
 6,-0.00030732,-0.00013325,-0.00012703,-0.00022496,-0.00041079,-0.00052
 733,-0.00100959,0.00020774,-0.00048070,-0.00043979,-0.00005149,0.00020
 313,-0.00015017,0.00003975,-0.00004667,0.00017465,-0.00004521,-0.00000
 799,0.00021969,0.00001393,0.00010462,-0.00021103,-0.00215325,-0.000555
 13,0.00115556,0.00049108,-0.00020716,-0.00022280,-0.00047354,-0.000028
 85,-0.00000088,0.00073720,-0.00141303,0.00144680,-0.00004913,-0.000173
 49,-0.00005854,-0.00011689,0.00001393,0.00006568,0.00013848,-0.0000180
 4,0.00004917,-0.00003195,-0.00014455,0.00000601,-0.00014009,-0.0002930
 5,-0.00006045,0.00000494,0.00007198,0.00004152,0.00003356,0.00008224,0
 .00004063,-0.00009901,-0.00023453,0.00006180,-0.00000046,0.00003005,-0
 .00006523,-0.00006251,0.00001536,0.00007077,0.00006465,0.00000562,0.00
 007051,-0.00003014,0.00001061,-0.00006798,0.01109255,0.04542250,0.1451
 5149,-0.00033435,-0.00222701,-0.00078799,-0.00057232,0.00135114,-0.000
 56344,-0.00042162,0.00014666,-0.00014367,0.00042281,0.00038242,-0.0001
 1267,-0.00054501,-0.00013954,0.00140159,0.00011535,0.00049154,-0.00017
 902,-0.00015114,-0.00047031,0.00054127,-0.00027337,0.00006159,-0.00085
 621,-0.00011846,-0.00036475,-0.00038854,-0.00010106,-0.00042127,-0.000
 10239,0.00013849,0.00051227,-0.00001216,0.00010963,0.00031712,0.000131
 72,0.00007433,0.00000262,0.00002920,-0.00046906,0.00078056,0.00087618,
 -0.00051297,-0.00099470,-0.00017587,-0.00005162,0.00009006,-0.00014830
 ,0.00008874,-0.00013263,0.00006137,0.00003300,-0.00014650,0.00001578,0
 .00009312,0.00016855,-0.00007328,0.00008408,0.00007896,-0.00005921,0.0
 0002560,0.00000686,0.00004678,-0.00087629,-0.00089620,0.00014148,-0.00
 062728,0.00113183,-0.00018602,0.00003271,-0.00003304,0.00003341,-0.000
 01339,-0.00009705,0.00002496,-0.00004869,0.00032697,-0.00004891,-0.000
 08654,-0.00029436,0.00005998,-0.00000318,0.00006145,-0.00006278,0.0001
 9610,0.00002498,0.00006909,0.00019161,0.00005489,0.00012361,-0.0005720
 7,0.00019783,0.00038333,0.00015058,0.00008138,-0.00002665,-0.00006761,
 0.00005047,0.00003282,-0.00009271,-0.00005510,-0.00000400,-0.00010717,
 0.00011065,0.00001599,-0.00005710,-0.00001727,0.00005241,0.00000001,0.
 00009241,0.00006962,-0.00248768,-0.00050355,0.00078263,-0.00137467,0.0
 0070311,-0.00035176,-0.00007918,0.00001013,-0.00005202,-0.00003831,-0.
 00006400,0.00000848,-0.00001785,-0.00004397,0.00001673,0.00000786,0.00
 005078,-0.00001580,-0.00000496,0.00004599,-0.00000839,-0.00002385,-0.0
 0001423,-0.00002213,0.00003868,0.00003774,-0.00001270,0.00008606,-0.00
 002101,0.00002174,-0.00002102,0.00005077,0.00002479,-0.00002640,-0.000
 02092,-0.00000194,-0.00013873,-0.00003223,0.00006713,-0.00012440,0.000
 08111,-0.00005823,-0.00001652,0.00002548,0.00000437,-0.00592079,-0.011
 80402,-0.00328963,0.01350883,0.00235362,-0.00309836,-0.00362552,-0.003
 26124,-0.00386228,-0.00297015,-0.00057671,0.00057470,0.00019434,0.0011
 3882,-0.00067016,0.00112794,-0.00124628,0.00015279,0.00185260,0.000834
 53,-0.00081694,0.00072631,-0.00094614,-0.00032545,0.00093080,0.0016653
 3,-0.00021649,0.00221343,-0.00022342,-0.00050781,-0.00048123,-0.000197
 72,0.00074250,-0.00003124,0.00042939,0.00042028,-0.00010682,-0.0001943
 1,-0.00080211,-0.00037271,-0.00002064,0.00010930,-0.00007256,-0.000914
 44,0.00024196,0.00012023,0.00104116,-0.00002461,0.00032026,0.00001141,
 0.00012698,-0.00005647,0.00008617,-0.00015697,0.00010938,-0.00002776,0
 .00023160,-0.00013043,0.00003022,0.00015709,-0.00017299,-0.00010643,-0
 .00016870,0.00019567,0.00000134,-0.00002409,0.00017304,0.00034220,0.00
 017624,-0.00015592,-0.00015409,0.00005552,-0.00015268,0.00006631,0.000
 04570,0.00014866,-0.00003085,-0.00006127,0.00001298,-0.00027022,-0.000
 00721,0.00006997,0.00028698,-0.00001386,0.00004132,0.00002949,-0.00005
 672,0.00008763,0.00008430,-0.00014751,0.00044586,0.00005984,0.00003156
 ,0.00002505,0.00067423,-0.00198573,0.00173442,-0.00033054,-0.00019926,
 0.00039733,-0.00000182,0.00003921,0.00004629,0.00022440,0.00003522,0.0
 0000028,-0.00016627,0.00009521,0.00003282,0.00005130,0.00002952,0.0000
 0951,0.00030802,0.00016109,0.00000389,-0.00173502,-0.00093210,0.000866
 19,0.00173761,-0.00125957,0.00064885,-0.00002904,0.00027956,-0.0000687
 4,0.00000084,-0.00009500,0.00000950,-0.00005015,0.00005344,0.00002405,
 0.00006581,0.00001805,0.00001273,-0.00003721,-0.00010296,0.00004942,0.
 00001761,-0.00002041,-0.00003316,-0.00023192,0.00013612,0.00008202,0.0
 0022854,0.00005946,0.00002068,-0.00003262,-0.00001647,-0.00001469,-0.0
 0001044,-0.00004876,0.00000453,0.00003926,0.00003249,0.00001456,0.0000
 0156,0.00002985,0.00002910,-0.00001433,-0.00004510,0.00001632,-0.01226
 193,-0.08517113,-0.02171086,0.01171113,0.09815226,0.00080775,0.0004579
 0,-0.00059398,-0.00018815,-0.00059128,-0.00195231,-0.00076481,-0.00027
 149,0.00076843,-0.00075246,0.00009203,-0.00163135,0.00013795,-0.000026
 08,-0.00015729,0.00025264,-0.00040046,0.00035340,-0.00022742,-0.000124
 79,0.00045909,-0.00009386,0.00005852,0.00048187,0.00005375,0.00006142,
 0.00008426,-0.00012048,0.00029438,-0.00000893,0.00013348,0.00008186,-0
 .00001160,-0.00003808,-0.00000540,-0.00004890,-0.00000455,0.00023774,-
 0.00021972,0.00052521,-0.00051071,0.00038087,-0.00039085,-0.00026260,0
 .00056344,0.00000046,0.00017770,-0.00024596,-0.00000719,0.00001309,0.0
 0006445,0.00000891,0.00001180,-0.00003084,-0.00000788,-0.00000334,-0.0
 0003892,0.00001904,0.00000250,0.00010724,-0.00002902,-0.00006759,0.000
 11554,0.00047231,0.00047925,0.00003035,-0.00017514,0.00037355,0.000019
 51,0.00005271,-0.00001700,0.00011794,0.00001563,0.00002853,-0.00004114
 ,0.00004914,-0.00010992,-0.00005523,-0.00005647,-0.00005484,-0.0000392
 0,-0.00000476,0.00001475,-0.00002525,0.00001448,-0.00014369,0.00022355
 ,0.00033880,0.00016182,0.00026208,-0.00012312,0.00170193,-0.00044491,-
 0.00006724,0.00119953,0.00017272,-0.00000385,-0.00003432,0.00005194,0.
 00007030,0.00002917,-0.00000796,-0.00002504,0.00002766,-0.00000431,0.0
 0004650,-0.00002959,0.00008735,0.00023651,0.00008306,-0.00010641,0.000
 47399,0.00014136,-0.00108579,-0.00006239,0.00012173,-0.00094736,-0.000
 08201,0.00018667,-0.00015859,0.00000283,0.00000902,0.00000816,0.000002
 08,0.00002509,-0.00000053,0.00000052,0.00001273,-0.00000690,0.00000106
 ,-0.00000337,0.00000199,0.00002005,0.00004202,0.00000801,-0.00005793,-
 0.00000491,-0.00000537,0.00002443,-0.00001659,-0.00001634,0.00001443,0
 .00003505,-0.00000604,-0.00000034,-0.00000646,0.00001137,0.00006698,0.
 00002367,-0.00005233,-0.00003632,0.00002357,-0.00003045,0.00000239,0.0
 0000064,0.00001444,-0.00319490,-0.02059899,-0.01013505,0.00311916,0.01
 977817,0.01404721,-0.00019153,-0.00027372,0.00099439,0.00030189,-0.000
 60295,-0.00067151,-0.00040526,-0.00031721,0.00016212,-0.00061184,0.000
 38072,-0.00049258,-0.00008764,-0.00050586,0.00001407,0.00027158,0.0001
 4642,-0.00003654,0.00030510,0.00007012,-0.00006970,-0.00016131,0.00008
 581,-0.00035773,0.00022799,-0.00005729,0.00034378,-0.00001403,-0.00001
 905,-0.00003456,-0.00004724,-0.00005145,0.00002365,0.00003187,0.000083
 79,0.00002802,-0.00132806,0.00019413,0.00006733,-0.00007335,-0.0000059
 0,0.00000668,0.00001448,-0.00002719,0.00000510,0.00039860,0.00021942,0
 .00014836,0.00001135,0.00002037,0.00023573,0.00005167,0.00001133,0.000
 01647,0.00002483,0.00001089,-0.00000391,0.00005785,0.00004481,-0.00009
 353,-0.00006265,-0.00048462,0.00089465,0.00002210,0.00002424,0.0000305
 5,0.00001954,0.00003895,-0.00004421,-0.00005847,0.00004129,-0.00047252
 ,0.00011634,-0.00013419,-0.00029092,0.00001789,0.00000934,-0.00000534,
 0.00000112,-0.00000956,0.00000032,0.00004110,0.00015776,0.00003902,0.0
 0016839,0.00000732,0.00010131,0.00003126,0.00003489,0.00014420,0.00002
 293,0.00003015,0.00002409,0.00030245,-0.00007984,-0.00027725,-0.000031
 47,-0.00005736,0.00014371,0.00004434,0.00000609,-0.00004844,0.00000200
 ,-0.00000051,0.00002342,-0.00004347,-0.00001056,-0.00002176,-0.0014162
 6,-0.00072915,0.00085020,-0.00011828,-0.00003566,0.00002424,-0.0000206
 4,0.00004697,0.00001991,-0.00092029,0.00009412,-0.00017264,-0.00004221
 ,-0.00000415,0.00005103,-0.00000196,-0.00000425,-0.00000374,-0.0000129
 3,0.00000838,0.00000212,-0.00001031,0.00003187,-0.00001983,-0.00002848
 ,0.00011115,-0.00007083,-0.00001877,0.00001291,-0.00000871,-0.00000563
 ,-0.00000238,0.00001594,-0.00004365,0.00004693,0.00005149,-0.00005630,
 -0.00010741,0.00007551,-0.00000750,0.00000946,-0.00000761,-0.00001593,
 0.00000026,0.00000633,-0.00003324,0.00006329,-0.00004334,-0.00425503,-
 0.00243474,-0.00537062,0.00097976,-0.00044986,-0.00044921,0.00665730,-
 0.00167748,-0.00144987,0.00067044,0.00107833,-0.00137183,0.00131199,0.
 00035843,0.00031944,-0.00017026,-0.00009399,0.00036249,-0.00013973,0.0
 0027089,-0.00043567,-0.00083004,0.00022083,0.00054376,-0.00021761,-0.0
 0003961,0.00050465,-0.00038251,-0.00060910,-0.00033852,-0.00053995,0.0
 0027290,0.00007363,0.00052967,0.00006532,-0.00019668,-0.00002078,-0.00
 012921,-0.00016578,-0.00000833,0.00008810,0.00037420,0.00063422,-0.001
 49306,0.00095953,0.00014511,-0.00021839,-0.00004574,0.00007006,0.00016
 326,-0.00014243,0.00007354,0.00040071,0.00022094,-0.00050822,-0.000057
 52,0.00017158,0.00027618,0.00007956,0.00006839,0.00002081,-0.00006643,
 0.00007308,0.00003982,0.00015756,0.00026154,0.00017834,-0.00013302,-0.
 00027042,0.00052672,0.00006489,0.00014963,-0.00004434,-0.00000497,0.00
 016053,-0.00002588,0.00017455,-0.00037876,0.00099783,0.00017907,0.0001
 6689,-0.00027114,0.00001347,-0.00001223,0.00000055,-0.00004376,0.00000
 621,-0.00000365,-0.00016600,-0.00004238,-0.00038631,-0.00002676,0.0000
 4715,-0.00006814,-0.00003570,-0.00000107,-0.00026019,0.00002681,-0.000
 03395,0.00034732,0.00003470,-0.00000317,-0.00013767,0.00002205,-0.0001
 1742,0.00011878,0.00007071,0.00001423,-0.00005356,-0.00006088,0.000035
 67,-0.00005578,0.00001854,-0.00007396,0.00018820,-0.00025841,-0.001225
 67,0.00038246,-0.00020094,0.00001950,0.00012029,0.00018933,-0.00002151
 ,0.00006592,-0.00003645,-0.00079139,-0.00001817,0.00000855,0.00004957,
 0.00003989,0.00003334,-0.00000283,-0.00001157,-0.00003428,0.00000740,-
 0.00001141,0.00004007,0.00004599,0.00002789,0.00011884,0.00015959,-0.0
 0001111,-0.00002469,0.00001022,0.00001350,0.00002746,-0.00000011,0.000
 00476,0.00002940,0.00015956,-0.00007771,0.00000806,-0.00006068,0.00004
 046,0.00002181,0.00000388,-0.00000792,-0.00001725,0.00000953,-0.000012
 28,0.00000438,-0.00006611,0.00009979,-0.00272993,-0.02314818,-0.039803
 14,-0.00044576,-0.00135070,-0.00270445,0.00436168,0.02676831,-0.002591
 98,-0.00212609,0.00036705,0.00176628,-0.00250702,0.00067561,0.00058761
 ,0.00040993,-0.00059084,-0.00062860,0.00064429,-0.00083383,0.00031285,
 -0.00058209,-0.00057649,0.00032399,0.00114049,-0.00065208,0.00013637,0
 .00100186,-0.00089301,-0.00080751,0.00004917,-0.00054184,0.00002807,0.
 00034713,0.00050756,0.00029927,-0.00052827,-0.00002174,-0.00042116,-0.
 00037714,0.00004615,0.00021481,0.00031987,0.00029617,0.00077969,0.0011
 4361,-0.00009764,0.00001252,-0.00005618,0.00005270,-0.00014497,-0.0000
 7047,0.00003997,-0.00014475,0.00084067,-0.00021331,0.00001019,0.000146
 24,0.00016163,0.00013249,0.00003648,0.00009471,-0.00011260,0.00003857,
 0.00012762,0.00008302,0.00016537,0.00003939,-0.00008184,-0.00018059,-0
 .00025352,0.00006474,0.00014734,-0.00002158,0.00003543,0.00015057,0.00
 000566,-0.00020169,-0.00007744,-0.00029309,-0.00001951,0.00030273,-0.0
 0009115,0.00012409,-0.00006109,-0.00001985,-0.00019197,0.00001135,-0.0
 0002109,0.00007071,0.00019038,-0.00009908,-0.00007754,0.00006153,-0.00
 021133,-0.00010835,0.00001193,-0.00032862,0.00006676,0.00004499,0.0003
 0069,0.00025087,-0.00008758,-0.00048361,-0.00002216,-0.00011184,0.0000
 9061,-0.00003068,0.00002085,-0.00008129,0.00005072,0.00000206,-0.00009
 567,0.00001468,-0.00007714,0.00006981,0.00250958,0.00093810,-0.0023773
 6,-0.00023567,0.00013112,0.00007340,0.00025034,0.00006823,-0.00000151,
 -0.00071358,0.00138023,-0.00244491,0.00003086,0.00006033,0.00002118,0.
 00008250,-0.00001417,-0.00004499,-0.00008942,0.00001299,-0.00003596,0.
 00001399,0.00006925,-0.00001953,0.00021800,0.00025698,0.00005196,0.000
 00242,-0.00005054,-0.00002973,-0.00003140,-0.00005548,-0.00002751,0.00
 005762,0.00020350,-0.00003097,0.00001712,0.00003492,-0.00000678,0.0000
 4375,-0.00001799,-0.00003366,-0.00005024,-0.00000620,-0.00003230,0.000
 01536,0.00004701,-0.00002927,-0.00601242,-0.04088010,-0.09019277,-0.00
 041192,-0.00241996,-0.00032624,0.00452331,0.03985731,0.09903227\\0.000
 00344,0.00000516,0.00000209,-0.00000103,0.00000699,0.00000805,0.000001
 77,0.00000102,-0.00000117,0.00000118,-0.00000292,-0.00000090,-0.000000
 99,-0.00000049,0.00000654,-0.00000263,-0.00000428,0.00000188,-0.000000
 62,0.00000059,-0.00000062,-0.00000096,-0.00000084,-0.00000269,0.000001
 93,0.00000180,-0.00000111,0.00000052,-0.00000024,-0.00000284,0.0000011
 7,-0.00000240,0.00000078,-0.00000210,0.00000112,0.00000020,0.00000137,
 0.00000137,-0.00000303,0.00000054,0.00000241,0.00000243,-0.00000074,-0
 .00000170,-0.00000068,-0.00000072,-0.00000090,-0.00000146,-0.00000326,
 -0.00000032,-0.00000329,0.00000007,0.00000213,0.00000016,-0.00000152,-
 0.00000238,0.00000034,-0.00000086,-0.00000069,0.00000024,0.00000197,0.
 00000289,-0.00000223,0.00000292,0.00000058,0.00000020,0.00000291,-0.00
 000102,0.00000086,0.00000190,0.00000034,-0.00000247,-0.00000142,-0.000
 00062,0.00000319,-0.00000039,-0.00000096,0.00000077,-0.00000045,0.0000
 0189,-0.00000038,0.00000090,-0.00000057,-0.00000140,-0.00000013,0.0000
 0041,-0.00000120,0.00000087,0.00000262,0.00000140,0.00000081,-0.000001
 02,0.00000028,-0.00000017,-0.00000086,0.00000022,-0.00000212,-0.000002
 93,-0.00000201,0.00000066,0.00000020,0.00000059,0.00000026,0.00000047,
 -0.00000079,0.00000013,0.,0.00000071,0.00000211,0.00000184,-0.00000098
 ,0.00000148,0.00000009,-0.00000014,0.00000062,-0.00000017,0.00000139,-
 0.00000176,0.00000127,-0.00000053,-0.00000024,0.00000016,-0.00000015,0
 .00000013,0.00000050,0.00000037,0.00000007,-0.00000057,-0.00000044,-0.
 00000017,-0.00000052,-0.00000075,-0.00000058,0.00000097,-0.00000015,0.
 00000019,0.00000052,0.00000121,0.00000006,-0.00000061,0.00000082,-0.00
 000110,0.00000018,-0.00000102,-0.00000043,0.00000089,-0.00000116,0.000
 00082,0.00000064,0.00000079,0.00000054,-0.00000116,0.00000037,-0.00000
 112,-0.00000024,-0.00000128,-0.00000080,-0.00001200,-0.00001335,-0.000
 00156,0.00000099,0.00000584,-0.00000346,0.00000036,0.00000651\\\@


 ROSE IS A RED
 TY COBB IS BLUE
 'CAUSE PETE JUST HIT
 NO. 4592.
 Job cpu time:       1 days 13 hours 24 minutes 44.9 seconds.
 Elapsed time:       0 days  0 hours 35 minutes 17.3 seconds.
 File lengths (MBytes):  RWF=   4400 Int=      0 D2E=      0 Chk=     69 Scr=      1
 Normal termination of Gaussian 16 at Thu Mar 13 15:13:36 2025.
