483
failed_oniom_b3lypd3_in_uff.xyz    Empirical formula: C155H180CuN53O82P12    Energy(Hartree): -5300.535128    
O       -5.7048070000    8.3341130000   -7.2861220000
C       -6.6440950000    9.3429460000   -7.0321730000
C       -7.4738190000    9.0049940000   -5.7884490000
O       -8.0834470000    7.7452510000   -5.9357430000
C       -6.6374310000    8.9776560000   -4.5158890000
O       -6.5590240000   10.2738080000   -3.9577310000
C       -7.4266760000    8.0357820000   -3.6428290000
C       -8.2649330000    7.2257940000   -4.6349720000
N       -7.8925690000    5.7976900000   -4.6106450000
C       -8.8204360000    4.7927520000   -4.1301230000
O       -9.9148850000    5.1083420000   -3.6972080000
N       -8.4731500000    3.4837480000   -4.1574770000
C       -7.2617400000    3.0946660000   -4.6206420000
N       -6.9350180000    1.7842650000   -4.6440110000
C       -6.3064990000    4.1175560000   -5.0908250000
C       -6.6626980000    5.4087830000   -5.0670640000
P       -5.1580910000   10.3686000000   -2.9080670000
O       -4.9403090000   11.8178990000   -2.3904360000
O       -3.8598140000    9.9979310000   -3.6750130000
O       -5.2524430000    9.3904530000   -1.6589660000
C       -6.2208630000    9.8829800000   -0.7522070000
C       -6.5350230000    8.8130600000    0.3005220000
O       -7.0338470000    7.6585160000   -0.3337760000
C       -5.3081870000    8.4244630000    1.1418200000
C       -5.3951630000    6.9143580000    1.2006790000
C       -6.7023040000    6.5844570000    0.5065110000
N       -6.5846810000    5.3514850000   -0.2705190000
C       -5.8178620000    5.1253970000   -1.3689950000
N       -5.8705610000    3.8377390000   -1.7872060000
C       -6.7505480000    3.2077050000   -0.8654690000
C       -7.1407040000    1.8008870000   -0.7478710000
O       -6.7500930000    0.9128430000   -1.6310860000
N       -7.9303310000    1.4431120000    0.3032340000
C       -8.3347990000    2.3751320000    1.2236190000
N       -9.1264680000    2.0163820000    2.2576020000
N       -7.9229350000    3.7531690000    1.0809300000
C       -7.1525530000    4.0836630000    0.0177500000
O       -5.4019690000    9.0107890000    2.4251080000
P       -3.8680070000    8.8537880000    3.2684180000
O       -3.8130160000    9.9208270000    4.3950480000
O       -2.6876210000    9.2263690000    2.3302870000
O       -3.5709450000    7.2745580000    3.9627220000
C       -4.5179520000    7.0625480000    4.9819070000
C       -4.4178200000    5.6300640000    5.5297620000
O       -4.7439040000    4.6944630000    4.5252210000
C       -3.0395020000    5.2898230000    6.0955550000
O       -3.2547460000    4.4639150000    7.2225910000
C       -2.4174650000    4.4991350000    4.9588260000
C       -3.6396450000    3.8294550000    4.3526400000
N       -3.5399450000    3.4947940000    2.9039890000
C       -3.2367720000    4.4002360000    1.9411240000
N       -3.2574390000    3.8256620000    0.7418450000
C       -3.6129450000    2.4017790000    1.0036580000
C       -3.7982630000    1.3083580000    0.1506610000
O       -3.7773120000    1.3804370000   -1.1065160000
N       -4.0216070000    0.0854020000    0.7044500000
C       -4.1805970000   -0.0240490000    2.0303990000
N       -4.4680010000   -1.2493070000    2.5155440000
N       -4.0630770000    1.0749120000    2.8583060000
C       -3.7514170000    2.2738680000    2.3140290000
P       -1.9057920000    4.5699180000    8.3352090000
O       -2.3493820000    5.4559480000    9.5291560000
O       -0.4375960000    5.2691760000    7.6636200000
O       -1.5838210000    3.1520160000    8.9906190000
C       -2.1650870000    2.1219130000    8.2105890000
C       -1.4411610000    0.7799640000    8.4457050000
C        0.1028910000    0.7670000000    8.1645480000
O        0.4816060000   -0.4997380000    7.6443350000
C        0.6345150000    1.8870990000    7.2340840000
P        1.9147300000   -1.1113180000    8.4579120000
O        1.5991580000   -1.6220890000    9.8917750000
O        2.9899830000   -0.0027230000    8.6178420000
O        2.6116450000   -2.2852550000    7.6423860000
C        1.8582070000   -3.4795170000    7.7528260000
C        2.1376810000   -4.3843470000    6.5398120000
O        1.7613110000   -3.7047560000    5.3636520000
C        3.6025460000   -4.8284940000    6.4241930000
O        3.7712190000   -6.1030390000    7.0296050000
C        3.7969790000   -4.8916390000    4.9263830000
C        2.6888670000   -4.0291620000    4.3526790000
N        3.2128560000   -2.7779750000    3.7338710000
C        3.1374430000   -2.4574460000    2.2637890000
O        2.7619560000   -3.2600950000    1.2637870000
N        3.5216500000   -1.2314640000    1.9098220000
C        3.9710990000   -0.2915740000    2.7277320000
O        4.1186970000    0.8787800000    2.1876770000
C        4.2585330000   -0.6565590000    4.0922190000
C        5.0673240000    0.2596130000    5.0762530000
C        3.8315900000   -1.8828200000    4.5529590000
P        5.3218090000   -6.4068780000    7.2348120000
O        5.4336610000   -7.8569430000    7.7798620000
O        5.8292100000   -5.4862220000    8.3778470000
O        6.2773090000   -6.1857870000    5.7800210000
O        7.5067500000   -6.1039450000    3.3800120000
C        6.6239770000   -8.2137340000    2.6147850000
O        5.7567940000   -8.2365420000    1.4968240000
C        8.0330950000   -8.0037220000    2.1172100000
C        8.1934720000   -6.5015080000    2.2232320000
N        9.6009510000   -6.1041050000    2.2979270000
C       10.5207420000   -6.3463170000    1.3297970000
N       11.6155650000   -5.4302260000    1.3831400000
C       11.2701660000   -4.5833250000    2.4695010000
C       11.8573260000   -3.2863140000    2.8546250000
N       12.9526330000   -2.8537880000    2.3121640000
N       11.2037070000   -2.5315590000    3.7862460000
C       10.0656180000   -2.9029160000    4.3252590000
N        9.4330130000   -4.1402040000    3.9324110000
C       10.1229570000   -4.9625710000    2.9845220000
P        4.1249450000   -8.6734160000    1.9777460000
O        4.1616270000   -9.6558450000    3.1805310000
O        3.4632700000   -9.4970510000    0.7928660000
O        3.1707660000   -7.2640770000    2.4163170000
C        1.8113610000   -7.4643240000    2.1100890000
C        1.5491730000   -7.1945120000    0.6482700000
O        2.0100370000   -6.0275080000    0.2297810000
C        2.0289030000   -8.2950230000   -0.2469160000
O        0.9551160000   -9.0866340000   -0.6933310000
C        2.6495580000   -7.5387590000   -1.3675440000
C        2.6295860000   -6.1846750000   -1.0194250000
N        3.9148600000   -5.5448470000   -1.1234920000
C        4.8008660000   -5.3134560000   -0.1185950000
N        5.9695820000   -4.8042090000   -0.5730850000
C        5.7611050000   -4.7346450000   -1.9725250000
C        6.6258040000   -4.3414060000   -2.9856430000
O        7.7533420000   -3.9530830000   -2.7369640000
N        6.1761590000   -4.4067400000   -4.2742550000
C        4.9105620000   -4.8682760000   -4.5474290000
N        4.4766260000   -4.9520820000   -5.8237350000
N        4.0927630000   -5.2623150000   -3.5221660000
C        4.5594870000   -5.1742650000   -2.2495700000
O       12.8730220000    4.3140210000    2.0147110000
C       11.7538650000    4.3684350000    1.1717850000
C       12.0317510000    3.6143520000   -0.1346870000
O       12.2077670000    2.2441930000    0.1276840000
C       10.8872430000    3.7664880000   -1.1268850000
C       10.9656890000    2.4834800000   -1.9131650000
C       11.7640310000    1.5383270000   -1.0132820000
N       10.9597830000    0.3570890000   -0.6326650000
C       10.7297230000   -0.6939950000   -1.6045260000
O       11.1363640000   -0.5824900000   -2.7481430000
N       10.0606570000   -1.8164370000   -1.2454710000
C        9.5832560000   -1.9669910000    0.0126360000
N        8.9178910000   -3.0910600000    0.3558510000
C        9.7830530000   -0.8837060000    0.9942370000
C       10.4535070000    0.2175270000    0.6323500000
O       11.1203280000    4.8924590000   -1.9504650000
P        9.5929040000    5.6115730000   -2.4144670000
O        9.8703980000    6.8968650000   -3.2400460000
O        8.8552490000    6.1158850000   -1.1447930000
O        8.5248240000    4.5605560000   -3.3116140000
C        9.1060480000    4.2997760000   -4.5662530000
C        8.3563030000    3.1525580000   -5.2578460000
O        8.4499060000    1.9959200000   -4.4486020000
C        6.8740430000    3.4815460000   -5.5107040000
C        6.1196290000    2.5240000000   -4.6280430000
C        7.1549580000    1.4575100000   -4.2896270000
N        6.9842370000    0.9362170000   -2.9177680000
C        6.6784950000   -0.4576210000   -2.6930760000
O        6.4767990000   -1.2740740000   -3.7026110000
N        6.5596950000   -0.9542500000   -1.3560710000
C        6.7254260000   -0.1252240000   -0.3014520000
O        6.6023840000   -0.5909870000    0.9213150000
C        7.0415210000    1.2961610000   -0.5299110000
C        7.2311880000    2.2269510000    0.6326590000
C        7.1590230000    1.7612340000   -1.8428540000
O        6.4894600000    3.4733190000   -6.8841280000
P        6.5101440000    1.8892050000   -7.6675350000
O        7.9037970000    1.2169540000   -7.5320750000
O        6.3745900000    2.1483160000   -9.1922700000
O        5.2366560000    0.7663330000   -7.2067950000
C        5.4233750000   -0.4307700000   -7.9303280000
C        4.4814570000   -1.5474830000   -7.4381490000
O        4.4331890000   -1.5715450000   -6.0265710000
C        3.0496280000   -1.4557810000   -7.9626310000
C        2.3874520000   -0.6971160000   -6.8385060000
C        3.1043590000   -1.2842540000   -5.6336310000
N        3.1631660000   -0.4882340000   -4.3730290000
C        3.1180190000    0.8845080000   -4.3773410000
N        3.2229780000    1.3790160000   -3.1916770000
C        3.3104950000    0.2177780000   -2.3321960000
C        3.4181640000    0.2107220000   -1.0082390000
N        3.5719160000    1.2408630000   -0.2596460000
N        3.3538080000   -0.9149330000   -0.4347920000
C        3.1692090000   -2.0380040000   -1.0078140000
N        3.2154120000   -2.1532700000   -2.3995650000
C        3.2378740000   -0.9091370000   -3.0507170000
O        2.5762890000   -2.7863100000   -8.0281000000
P        1.0223920000   -2.9160400000   -8.8240120000
O        1.2405390000   -3.4475260000  -10.2655200000
O        0.3272190000   -1.5372020000   -8.9939730000
O       -0.0523750000   -4.0180110000   -7.9850820000
C        0.6679830000   -5.1682980000   -7.5751930000
C        0.5271650000   -5.3893170000   -6.0568920000
O        0.9364570000   -4.2381560000   -5.3590030000
C       -0.8996170000   -5.7659710000   -5.6494190000
O       -0.9172880000   -7.1514310000   -5.3270330000
C       -1.1736520000   -4.8786080000   -4.4510120000
C        0.1026720000   -4.0865750000   -4.2292040000
N       -0.1410340000   -2.6577210000   -3.9939720000
C       -0.1481710000   -2.1299300000   -2.6238600000
O        0.0918650000   -2.9256950000   -1.6719700000
N       -0.3980370000   -0.8325990000   -2.4271130000
C       -0.6402360000   -0.0273110000   -3.4757120000
O       -0.8821040000    1.1912590000   -3.2816900000
C       -0.6264620000   -0.5304960000   -4.7884310000
C       -0.9126320000    0.4084950000   -5.9744270000
C       -0.3652300000   -1.8377990000   -5.0193360000
P       -2.4016550000   -7.7329350000   -5.2737570000
O       -2.2821980000   -9.2523170000   -5.5711820000
O       -3.2537930000   -7.1536500000   -6.4376970000
O       -3.1741730000   -7.4866320000   -3.7251980000
C       -2.4949040000   -8.2607840000   -2.7644510000
C       -3.0282350000   -7.9447590000   -1.3602180000
O       -2.7357950000   -6.5987930000   -1.0453510000
C       -4.5427090000   -8.1974210000   -1.2297700000
C       -5.1038270000   -6.7986680000   -1.1369260000
C       -3.9325790000   -5.9949260000   -0.6156170000
N       -3.9950930000   -4.5360620000   -1.0684070000
C       -4.2449690000   -3.2944920000   -0.1684870000
O       -4.5649630000   -3.3258390000    1.0717210000
N       -4.0905780000   -2.0536490000   -0.7085670000
C       -3.9518870000   -1.9215480000   -2.0163870000
N       -3.9546750000   -0.6738320000   -2.5179510000
C       -3.7955040000   -3.0494570000   -2.8695460000
C       -3.7778690000   -4.3134330000   -2.3747010000
O       -4.7852980000   -8.9371400000   -0.0474330000
P       -6.4523260000   -9.4915860000   -0.0037950000
O       -6.5333950000  -10.7522500000    0.8992600000
O       -6.9119600000   -9.9822310000   -1.4039360000
O       -7.5808820000   -8.2911170000    0.5869470000
C       -7.3844210000   -8.1303010000    1.9742930000
C       -7.8661900000   -6.7465220000    2.4283990000
O       -7.1134090000   -5.7400110000    1.7957510000
C       -9.3373240000   -6.4891620000    2.1281490000
O      -10.1464330000   -6.9842460000    3.1752140000
C       -9.3764560000   -4.9838390000    2.0488520000
C       -7.9311810000   -4.5897730000    1.7491340000
N       -7.8194660000   -3.9457900000    0.4271540000
C       -7.5292540000   -2.5302390000    0.3262170000
O       -7.4465640000   -1.7824900000    1.4032080000
N       -7.3295360000   -1.9644830000   -0.8852750000
C       -7.4185260000   -2.7634060000   -2.0644050000
N       -7.1498290000   -2.2269980000   -3.2734310000
C       -7.7898920000   -4.1799470000   -1.9280660000
C       -7.9757510000   -4.6974030000   -0.7067860000
P      -11.7990520000   -7.1222040000    2.6055540000
O      -12.7090530000   -7.7937300000    3.6716470000
O      -11.8796950000   -8.0338640000    1.3513180000
O      -12.4340660000   -5.7226130000    2.1983550000
C      -12.7168470000   -4.9769710000    3.3671600000
C      -13.0479780000   -3.5263570000    2.9944120000
O      -11.9500850000   -2.9261840000    2.3500170000
C      -14.2548990000   -3.4137820000    2.0730910000
O      -15.4441120000   -3.3377830000    2.8145960000
C      -13.9795190000   -2.1321560000    1.3337810000
C      -12.4678050000   -1.9491460000    1.4726350000
N      -11.8078640000   -2.0598360000    0.1708920000
C      -11.6676680000   -3.1752910000   -0.5868650000
N      -11.0549820000   -2.8867880000   -1.8452200000
C      -10.8505780000   -1.4836910000   -1.7823280000
C      -10.3403230000   -0.6437670000   -2.7596340000
O       -9.9191280000   -1.1468360000   -3.9848820000
N      -10.2863680000    0.6369390000   -2.5097780000
C      -10.7372800000    1.1333050000   -1.3118610000
N      -10.6866120000    2.4606110000   -1.0649640000
N      -11.2757820000    0.2495330000   -0.3093300000
C      -11.2826150000   -1.0061180000   -0.6301290000
H       -5.9544690000    6.1458000000   -5.4246040000
H       -5.3255500000    3.8297230000   -5.4567800000
H       -7.6155410000    1.0622010000   -4.3185490000
H       -5.9995950000    1.4695790000   -4.9858010000
H       -9.3375860000    7.3542790000   -4.3705310000
H       -8.0984970000    8.6008880000   -2.9596190000
H       -6.7498250000    7.3986370000   -3.0361410000
H       -5.6401170000    8.5321810000   -4.7406150000
H       -8.2771260000    9.7718520000   -5.6900110000
H       -7.3264300000    9.4397260000   -7.9057500000
H       -6.1273390000   10.3172690000   -6.8788420000
H       -5.1657290000    8.6480020000   -8.0579260000
H       -5.2077310000    5.8813560000   -1.8454820000
H       -8.2426750000    0.4515380000    0.3926120000
H       -9.4388480000    1.0269590000    2.3782760000
H       -9.4434770000    2.7304760000    2.9502470000
H       -7.5055260000    6.4671360000    1.2696700000
H       -5.4042560000    6.5149920000    2.2355050000
H       -4.5336140000    6.4872840000    0.6456590000
H       -4.3754820000    8.7310300000    0.6158640000
H       -7.3354310000    9.2131930000    0.9651650000
H       -7.1830880000   10.1396710000   -1.2567590000
H       -5.8368670000   10.7853110000   -0.2234770000
H       -3.0033520000    5.4426000000    2.1355240000
H       -4.0471050000   -0.7676450000    0.1248180000
H       -4.5030240000   -2.0840670000    1.8916510000
H       -4.6511670000   -1.3515650000    3.4916560000
H       -3.8448480000    2.8959980000    4.9245940000
H       -1.6706930000    3.7638130000    5.3131530000
H       -1.9303740000    5.1909420000    4.2399070000
H       -2.4622460000    6.2134950000    6.3351080000
H       -5.1827630000    5.5473540000    6.3350500000
H       -5.5545270000    7.2096280000    4.6007270000
H       -4.3431510000    7.7720600000    5.8217400000
H        1.7449970000    1.8460200000    7.2498270000
H        0.3917820000    2.8846950000    7.6284740000
H        0.5704810000    0.9686780000    9.1578770000
H       -1.5725160000    0.5426840000    9.5249760000
H       -2.1469820000    2.3148400000    7.1179740000
H       -3.2302990000    2.0014380000    8.5101540000
H        3.9906390000   -2.1383360000    5.5897980000
H        3.4825590000   -1.0454400000    0.9894590000
H        5.6012640000   -0.3562810000    5.7798480000
H        4.4019870000    0.9051930000    5.6106500000
H        5.7686950000    0.8507140000    4.5239360000
H        2.1543140000   -4.6107650000    3.5707520000
H        3.6608170000   -5.9357000000    4.5749020000
H        4.8006800000   -4.5218510000    4.6254830000
H        4.2646700000   -4.0453200000    6.8659830000
H        1.4902080000   -5.2863900000    6.6290240000
H        0.7538560000   -3.3066320000    7.7724550000
H        2.1495720000   -4.0200400000    8.6807650000
H       10.3739460000   -7.0515860000    0.5222490000
H        9.5850480000   -2.2650000000    5.0585120000
H       13.4570640000   -3.4158550000    1.5903960000
H       13.3494210000   -1.9256500000    2.5819910000
H        7.7288370000   -6.0080680000    1.3387830000
H        8.1780680000   -8.3629560000    1.0745460000
H        8.7543640000   -8.5141010000    2.7945530000
H        6.5866440000   -9.1770040000    3.1728140000
H        4.6090500000   -5.5262940000    0.9237470000
H        6.8060720000   -4.1114070000   -5.0551150000
H        5.0926430000   -4.6742470000   -6.6196390000
H        3.5234090000   -5.3173260000   -6.0366130000
H        1.9835880000   -5.6900070000   -1.7391050000
H        2.1403390000   -7.7351730000   -2.3087040000
H        3.6493990000   -7.9162750000   -1.5603350000
H        2.7965960000   -8.9253280000    0.3091220000
H        1.3559330000   -9.8964380000   -1.1040700000
H        0.4636780000   -7.1704990000    0.5962060000
H        1.2221390000   -6.7419400000    2.7147520000
H        1.4591340000   -8.4783220000    2.4107220000
H       10.5828750000    0.9964710000    1.3730150000
H        9.3882150000   -0.9739250000    2.0015720000
H        8.8006520000   -3.8709430000   -0.3274990000
H        8.5137870000   -3.2039300000    1.3118090000
H       12.6710420000    1.1914460000   -1.5579290000
H       11.5118500000    2.6371370000   -2.8701830000
H        9.9492630000    2.0979570000   -2.1378110000
H        9.9190580000    3.7969900000   -0.5707200000
H       12.9738580000    4.0093570000   -0.5810440000
H       11.5417090000    5.4345820000    0.9416470000
H       10.8589210000    3.9449410000    1.6843810000
H       12.8485260000    3.4297790000    2.4653480000
H        7.3922990000    2.8035270000   -1.9992900000
H        6.3291330000   -1.9594170000   -1.1949230000
H        7.4766740000    3.2573350000    0.2977570000
H        6.2990460000    2.2672700000    1.2328260000
H        8.0595960000    1.8606430000    1.2733200000
H        7.0484480000    0.6350810000   -5.0278950000
H        5.2424570000    2.1062250000   -5.1408140000
H        5.7618390000    3.0522840000   -3.7173000000
H        6.6481870000    4.5085900000   -5.1452150000
H        8.8842100000    2.9700090000   -6.2151660000
H       10.1718990000    3.9924590000   -4.4643480000
H        9.0547170000    5.2078270000   -5.2072520000
H        2.9996790000    1.5002800000   -5.2336610000
H        2.9536870000   -2.7325950000   -0.1471190000
H        3.4814750000    2.1567080000   -0.6435130000
H        3.8188950000    1.0882170000    0.7418080000
H        2.6160290000   -2.2521110000   -5.3874200000
H        1.3129710000   -0.8923560000   -6.8059210000
H        2.5688330000    0.3832990000   -6.9923840000
H        2.9810560000   -0.9392240000   -8.9468750000
H        4.9275350000   -2.5058020000   -7.7876290000
H        6.4602680000   -0.8106490000   -7.7885340000
H        5.2588600000   -0.2591610000   -9.0172010000
H       -0.3421330000   -2.2122230000   -6.0215120000
H       -0.4053520000   -0.4605570000   -1.5001950000
H       -1.3689670000   -0.1474180000   -6.7671560000
H       -1.5733660000    1.1892610000   -5.6603240000
H        0.0051440000    0.8354160000   -6.3207170000
H        0.6486560000   -4.5320430000   -3.3699590000
H       -1.3980300000   -5.4742560000   -3.5420460000
H       -2.0175670000   -4.2058800000   -4.6935940000
H       -1.5919290000   -5.4957160000   -6.4800230000
H        1.2218620000   -6.2128210000   -5.7730000000
H        1.7534320000   -5.1552650000   -7.8237780000
H        0.2504510000   -6.0498930000   -8.1071040000
H       -3.5828280000   -5.1475140000   -3.0361330000
H       -3.6801400000   -2.9052130000   -3.9303500000
H       -3.8854080000    0.1546450000   -1.9096650000
H       -4.0160850000   -0.5521360000   -3.4992110000
H       -3.9534630000   -6.0211090000    0.4969670000
H       -5.9645960000   -6.7115320000   -0.4505340000
H       -5.4158200000   -6.4564620000   -2.1470700000
H       -4.9307530000   -8.7282530000   -2.1286690000
H       -2.4747770000   -8.5933170000   -0.6444470000
H       -1.4023410000   -8.0400650000   -2.7725270000
H       -2.6464990000   -9.3448620000   -2.9652990000
H       -8.2339690000   -5.7463920000   -0.6314960000
H       -7.8995880000   -4.8074380000   -2.8073510000
H       -6.8757630000   -1.2234940000   -3.3564310000
H       -7.2001790000   -2.8058920000   -4.1410980000
H       -7.5812250000   -3.9013850000    2.5493940000
H       -9.6856490000   -4.5457460000    3.0232410000
H      -10.0802190000   -4.6473760000    1.2597140000
H       -9.5962780000   -6.9242280000    1.1351480000
H       -7.6934850000   -6.6681150000    3.5271860000
H       -6.3102600000   -8.2083540000    2.2646810000
H       -7.9566010000   -8.9129540000    2.5187710000
H      -12.0041120000   -4.1593950000   -0.2881000000
H       -9.9104750000    1.2851730000   -3.2374090000
H      -10.2869060000    3.1241090000   -1.7645790000
H      -11.0316570000    2.8410050000   -0.1558300000
H      -12.2612680000   -0.9446960000    1.9039950000
H      -14.5057000000   -1.2786150000    1.8174280000
H      -14.3105100000   -2.2027530000    0.2739520000
H      -14.2929000000   -4.2620060000    1.3501360000
H      -16.1873330000   -3.4008660000    2.1593570000
H      -13.2459860000   -2.9629870000    3.9358410000
H      -11.8518050000   -4.9462870000    4.0722450000
H      -13.5985080000   -5.4054120000    3.8962350000
N        3.6735920000    9.3658310000    0.5022240000
N        4.0265870000   11.5430200000    0.8143460000
C        3.7568470000   10.2380940000    1.3950240000
C        3.5591870000    9.7191980000    2.8004820000
O        3.4526550000    8.2907260000    2.8467650000
C        3.3426730000    9.7009070000    5.2635880000
Cu       3.2061160000    7.6599350000    1.1158450000
C        2.0080040000    3.3665210000    2.2955110000
C        2.8502460000    5.6852410000   -0.6804710000
C        2.3101690000    3.7466570000    0.9760370000
C        2.6074930000    5.0823280000    0.7146130000
C        3.2417400000    7.7222930000   -1.7598480000
C        3.1997830000    7.0729760000   -3.0122300000
C        2.4074630000    5.6480770000    2.9409400000
C        2.9984690000    5.6817560000   -3.0754930000
C        2.0463430000    4.3387650000    3.2984440000
C        2.8151670000    4.9710400000   -1.8834290000
N        1.0891780000    2.0039540000    4.8375750000
C        0.1801930000    1.7931130000    5.8078450000
H        2.3125690000    3.0236020000    0.1865450000
H        1.8137340000    4.0941250000    4.3127500000
H        2.4686330000    6.4124930000    3.6870720000
H        2.6511590000    3.9125400000   -1.8935140000
H        3.3242780000    7.6347350000   -3.9135360000
H        3.4014010000    8.7772670000   -1.7032250000
N        2.6870290000    5.9435310000    1.6608140000
N        3.0927430000    6.9952070000   -0.6397870000
O        0.6656320000    1.7060430000    3.5672890000
C        1.6535980000    1.8879150000    2.5385730000
H        1.2644920000    1.4941980000    1.6224880000
H        2.5668110000    1.4019880000    2.7811810000
C        3.9350090000    9.9103660000   -0.7047660000
H        3.9680160000    9.3986310000   -1.6442330000
C        4.1572470000   11.3031490000   -0.4994360000
H        4.3874040000   12.0283010000   -1.2525050000
C        4.2203430000   12.8189690000    1.5231000000
H        3.3254300000   13.0723940000    2.0542830000
H        5.0302520000   12.7226160000    2.2152620000
H        4.4445080000   13.5898670000    0.8155850000
C        3.3177200000    8.2960330000    5.2591180000
H        3.3940580000    7.7623060000    4.3340090000
C        3.1939820000    7.5895010000    6.4623550000
H        3.1785220000    6.5187910000    6.4562920000
C        3.0910860000    8.2850820000    7.6728610000
H        2.9949350000    7.7460380000    8.5928120000
C        3.1153170000    9.6873980000    7.6793840000
H        3.0372660000   10.2174590000    8.6052170000
C        3.2422650000   10.3958690000    6.4744470000
H        3.2621970000   11.4647590000    6.4805350000
C        3.4831040000   10.4567860000    3.9256230000
H        3.5192140000   11.5248720000    3.8914910000
C        2.9755750000    4.9574980000   -4.4381440000
H        3.3253840000    3.9538530000   -4.3158400000
H        1.9747850000    4.9414750000   -4.8192660000
H        3.6099310000    5.4754880000   -5.1271130000
H       -0.8118380000    1.4528030000    5.5492300000
O       -2.1010620000   -0.2457810000    7.7433580000
H       -2.0123150000   -0.0559130000    6.7744390000
C        6.3990580000   -6.9682950000    3.5032010000
H        5.5057530000   -6.4099060000    3.1582440000
C        6.2009460000   -7.3463840000    4.9807600000
H        5.2172070000   -7.8638110000    5.0628610000
H        7.0032790000   -8.0470700000    5.2994770000
