 Entering Gaussian System, Link 0=/home/users/astar/bmsi/zhangx5/programs/g16/g16
 Input=dna_system_qmmm_3bp_hbond_cleaned_b3lypd3_uff.com
 Output=dna_system_qmmm_3bp_hbond_cleaned_b3lypd3_uff.log
 Initial command:
 /home/users/astar/bmsi/zhangx5/programs/g16/l1.exe "/scratch/users/astar/bmsi/zhangx5/dna_system_qmmm_3bp_hbond_cleaned_b3lypd3_uff/Gau-1685342.inp" -scrdir="/scratch/users/astar/bmsi/zhangx5/dna_system_qmmm_3bp_hbond_cleaned_b3lypd3_uff/"
 Entering Link 1 = /home/users/astar/bmsi/zhangx5/programs/g16/l1.exe PID=   1685345.

 Copyright (c) 1988-2017, Gaussian, Inc.  All Rights Reserved.

 This is part of the Gaussian(R) 16 program.  It is based on
 the Gaussian(R) 09 system (copyright 2009, Gaussian, Inc.),
 the Gaussian(R) 03 system (copyright 2003, Gaussian, Inc.),
 the Gaussian(R) 98 system (copyright 1998, Gaussian, Inc.),
 the Gaussian(R) 94 system (copyright 1995, Gaussian, Inc.),
 the Gaussian 92(TM) system (copyright 1992, Gaussian, Inc.),
 the Gaussian 90(TM) system (copyright 1990, Gaussian, Inc.),
 the Gaussian 88(TM) system (copyright 1988, Gaussian, Inc.),
 the Gaussian 86(TM) system (copyright 1986, Carnegie Mellon
 University), and the Gaussian 82(TM) system (copyright 1983,
 Carnegie Mellon University). Gaussian is a federally registered
 trademark of Gaussian, Inc.

 This software contains proprietary and confidential information,
 including trade secrets, belonging to Gaussian, Inc.

 This software is provided under written license and may be
 used, copied, transmitted, or stored only in accord with that
 written license.

 The following legend is applicable only to US Government
 contracts under FAR:

                    RESTRICTED RIGHTS LEGEND

 Use, reproduction and disclosure by the US Government is
 subject to restrictions as set forth in subparagraphs (a)
 and (c) of the Commercial Computer Software - Restricted
 Rights clause in FAR 52.227-19.

 Gaussian, Inc.
 340 Quinnipiac St., Bldg. 40, Wallingford CT 06492


 ---------------------------------------------------------------
 Warning -- This program may not be used in any manner that
 competes with the business of Gaussian, Inc. or will provide
 assistance to any competitor of Gaussian, Inc.  The licensee
 of this program is prohibited from giving any competitor of
 Gaussian, Inc. access to this program.  By using this program,
 the user acknowledges that Gaussian, Inc. is engaged in the
 business of creating and licensing software in the field of
 computational chemistry and represents and warrants to the
 licensee that it is not a competitor of Gaussian, Inc. and that
 it will not use this program in any manner prohibited above.
 ---------------------------------------------------------------


 Cite this work as:
 Gaussian 16, Revision B.01,
 M. J. Frisch, G. W. Trucks, H. B. Schlegel, G. E. Scuseria,
 M. A. Robb, J. R. Cheeseman, G. Scalmani, V. Barone,
 G. A. Petersson, H. Nakatsuji, X. Li, M. Caricato, A. V. Marenich,
 J. Bloino, B. G. Janesko, R. Gomperts, B. Mennucci, H. P. Hratchian,
 J. V. Ortiz, A. F. Izmaylov, J. L. Sonnenberg, D. Williams-Young,
 F. Ding, F. Lipparini, F. Egidi, J. Goings, B. Peng, A. Petrone,
 T. Henderson, D. Ranasinghe, V. G. Zakrzewski, J. Gao, N. Rega,
 G. Zheng, W. Liang, M. Hada, M. Ehara, K. Toyota, R. Fukuda,
 J. Hasegawa, M. Ishida, T. Nakajima, Y. Honda, O. Kitao, H. Nakai,
 T. Vreven, K. Throssell, J. A. Montgomery, Jr., J. E. Peralta,
 F. Ogliaro, M. J. Bearpark, J. J. Heyd, E. N. Brothers, K. N. Kudin,
 V. N. Staroverov, T. A. Keith, R. Kobayashi, J. Normand,
 K. Raghavachari, A. P. Rendell, J. C. Burant, S. S. Iyengar,
 J. Tomasi, M. Cossi, J. M. Millam, M. Klene, C. Adamo, R. Cammi,
 J. W. Ochterski, R. L. Martin, K. Morokuma, O. Farkas,
 J. B. Foresman, and D. J. Fox, Gaussian, Inc., Wallingford CT, 2016.

 ******************************************
 Gaussian 16:  ES64L-G16RevB.01 20-Dec-2017
                 8-Jul-2024
 ******************************************
 %chk=dna_system_qmmm_3bp_hbond_cleaned_b3lypd3_uff.chk
 %mem=60GB
 %nprocshared=64
 Will use up to   64 processors via shared memory.
 ---------------------------------------------------------------------
 # opt freq oniom(b3lyp/def2svp empiricaldispersion=gd3bj:uff) scf=xqc
 ---------------------------------------------------------------------
 1/18=1000020,19=15,38=1,52=2,56=1,61=3,64=2,115=4/1,3;
 2/9=110,12=2,17=6,18=5,40=1/2;
 1/18=1000020,19=15,38=1,52=2,53=3172,61=3,64=2,115=4/20;
 3/5=30,11=9,25=1,30=1,41=10200000,43=2,71=1/1;
 4/20=10,22=1,24=3,112=4/2;
 7/7=1,33=-1,44=-1,88=4/16;
 1/18=1000020,19=15,26=1,52=2,53=2032,61=3,115=4/20;
 3/5=43,7=101,11=2,25=1,30=1,71=1,74=-5,124=41/1,2,3;
 4/112=4/1;
 5/5=2,8=3,13=1,38=5/2,8;
 6/7=2,8=2,9=2,10=2,28=1/1;
 7/7=1,33=-1,88=4/1,2,3,16;
 1/18=1000020,19=15,52=2,53=1022,61=3,64=2,115=4/20;
 3/5=30,11=9,25=1,30=1,41=10200000,43=2,71=1/1;
 4/20=10,22=1,24=3,112=4/2;
 7/7=1,33=-1,44=-1,88=4/16;
 1/18=1000020,19=15,52=2,53=3015,61=3,64=2,115=4/20;
 7/9=1,44=-1,88=4,126=2/16;
 1/18=1000020,19=15,52=2,61=3,64=2,115=4/3(2);
 2/9=110/2;
 99//99;
 2/9=110/2;
 1/18=1000020,19=15,52=2,53=3173,61=3,64=2,115=4/20;
 3/5=30,11=9,25=1,30=1,41=10200000,43=2,71=1/1;
 4/16=2,20=10,22=1,24=3,112=4/2;
 7/7=1,33=-1,44=-1,88=4/16;
 1/18=1000020,19=15,26=1,52=2,53=2033,61=3,115=4/20;
 3/5=43,7=101,11=2,25=1,30=1,71=1,74=-5,124=41/1,2,3;
 4/5=5,16=3,69=1,112=4/1;
 5/5=2,8=3,13=1,38=5/2,8;
 7/7=1,33=-1,88=4/1,2,3,16;
 1/18=1000020,19=15,52=2,53=1023,61=3,64=2,115=4/20;
 3/5=30,11=9,25=1,30=1,41=10200000,43=2,71=1/1;
 4/16=2,20=10,22=1,24=3,112=4/2;
 7/7=1,33=-1,44=-1,88=4/16;
 1/18=1000020,19=15,52=2,53=3015,61=3,64=2,115=4/20;
 7/9=1,44=-1,88=4,126=2/16;
 1/18=1000020,19=15,52=2,61=3,64=2,115=4/3(-16);
 2/9=110/2;
 99//99;
 ------------------------------
 final_dna_with_sys_cleaned.xyz
 ------------------------------
 Symbolic Z-matrix:
 Charge =  1 Multiplicity = 2 for low   level calculation on real  system.
 Charge =  1 Multiplicity = 1 for high  level calculation on model system.
 Charge =  1 Multiplicity = 1 for low   level calculation on model system.
 O                    0    -12.48248   5.30094  -8.00429  L
 C                    0    -13.21397   6.08531  -7.06089  L
 C                    0    -12.6012   5.91137  -5.65849  L
 O                    0    -12.62756   4.46045  -5.33124  L
 C                    0    -11.11577   6.30385  -5.59057  L
 O                    0    -10.78245   6.60973  -4.24537  L
 C                    0    -10.45874   5.00977  -5.9347   L
 C                    0    -11.2627   4.14362  -4.9201   L
 N                    0    -10.95365   2.66799  -4.98284  L
 C                    0    -11.04014   1.71014  -3.79542  L
 O                    0    -11.30482   2.08754  -2.61176  L
 N                    0    -10.8093   0.38708  -3.98446  L
 C                    0    -10.48083  -0.06022  -5.19566  L
 N                    0    -10.31081  -1.38962  -5.33835  L
 C                    0    -10.3094   0.83913  -6.29776  L
 C                    0    -10.56213   2.17238  -6.16381  L
 P                    0    -9.10235   6.82241  -4.04903  L
 O                    0    -8.59968   7.92296  -4.94311  L
 O                    0    -8.38768   5.54261  -4.38989  L
 O                    0    -8.8632    7.17689  -2.61816  L
 C                    0    -10.01443   7.43094  -1.81087  L
 C                    0    -9.80672   6.81449  -0.42546  L
 O                    0    -9.56296   5.36979  -0.66332  L
 C                    0    -8.55866   7.34525   0.28438  L
 C                    0    -7.51592   6.38517  -0.24582  L
 C                    0    -8.28648   5.04171  -0.04224  L
 N                    0    -7.63732   3.8439   -0.7838   L
 C                    0    -6.92405   4.08226  -1.91573  L
 N                    0    -6.52746   2.95495  -2.50324  L
 C                    0    -7.08906   1.83441  -1.69751  L
 C                    0    -7.12703   0.36312  -1.97447  L
 O                    0    -6.77886  -0.19819  -3.13147  L
 N                    0    -7.57405  -0.45981  -1.00752  L
 C                    0    -7.98393   0.08096   0.17612  L
 N                    0    -8.32436  -0.76066   1.12128  L
 N                    0    -8.06569   1.61184   0.40787  L
 C                    0    -7.63425   2.42437  -0.59213  L
 O                    0    -8.74676   7.24351   1.70243  L
 P                    0    -7.35944   7.76654   2.54569  L
 O                    0    -7.75556   8.35217   3.87377  L
 O                    0    -6.64329   8.8106    1.73198  L
 O                    0    -6.36681   6.43315   2.84394  L
 C                    0    -7.10472   5.68362   3.81617  L
 C                    0    -6.31538   4.44788   4.21782  L
 O                    0    -6.11061   3.66188   2.99036  L
 C                    0    -4.90983   4.79252   4.7194   L
 O                    0    -4.40845   3.73006   5.49917  L
 C                    0    -4.15088   4.79712   3.4398   L
 C                    0    -4.68772   3.43897   2.92665  L    H        50    0.        0.
 N                    0    -4.24227   3.09291   1.54697  H
 C                    0    -3.87988   4.01218   0.61899  H
 N                    0    -3.56814   3.41424  -0.52835  H
 C                    0    -3.76108   1.95824  -0.26953  H
 C                    0    -3.60638   0.82799  -1.08326  H
 O                    0    -3.33585   0.86903  -2.31602  H
 N                    0    -3.76323  -0.40025  -0.51737  H
 C                    0    -4.1766   -0.49885   0.75453  H
 N                    0    -4.38165  -1.73931   1.24157  H
 N                    0    -4.3913    0.62441   1.52684  H
 C                    0    -4.14865   1.84196   0.99169  H
 P                    0    -3.15126   3.97419   6.35785  L
 O                    0    -3.38269   5.08141   7.35076  L
 O                    0    -1.97442   4.3629    5.41775  L
 O                    0    -2.82288   2.71469   7.07241  L
 C                    0    -3.80556   1.69541   7.26394  L
 C                    0    -3.19695   0.36153   6.85365  L
 C                    0    -1.8325    0.23952   7.51581  L
 O                    0    -1.24849  -0.99595   7.15264  L
 C                    0    -0.9943    1.42119   6.97097  L
 P                    0     0.07477  -1.35463   8.16188  L
 O                    0    -0.41606  -1.58792   9.56632  L
 O                    0     1.06632  -0.2228    8.16974  L
 O                    0     0.71533  -2.5864    7.61848  L
 C                    0    -0.11593  -3.69786   7.28221  L
 C                    0     0.46133  -4.33052   6.00644  L
 O                    0     0.57956  -3.23293   4.99716  L
 C                    0     1.89098  -4.82858   6.20305  L
 O                    0     2.2218   -5.75992   5.172    L
 C                    0     2.65293  -3.59083   5.96013  L
 C                    0     1.99925  -3.25763   4.62003  L    H        81    0.        0.
 N                    0     2.51857  -1.97517   4.0641   H
 C                    0     2.84315  -1.744     2.6122   H
 O                    0     2.88666  -2.64307   1.63211  H
 N                    0     3.15611  -0.49406   2.26512  H
 C                    0     3.21398   0.53683   3.08291  H
 O                    0     3.35      1.69099   2.51294  H
 C                    0     3.13142   0.29159   4.50192  H
 C                    0     3.48605   1.37167   5.58383  H
 C                    0     2.74921  -0.95783   4.9373   H
 P                    0     3.50252  -6.50713   5.32333  L
 O                    0     3.60222  -7.03403   6.72852  L
 O                    0     4.64327  -5.56699   5.0461   L
 O                    0     3.5937   -7.83647   4.26508  L
 O                    0     5.57049  -5.981     3.54223  L
 C                    0     7.33441  -7.5718    3.81319  L
 O                    0     8.12187  -7.40074   2.64159  L
 C                    0     7.54404  -6.33455   4.65504  L
 C                    0     6.87838  -5.36787   3.60124  L
 N                    0     6.81354  -3.87516   3.87723  L
 C                    0     6.69722  -3.32581   5.12621  L
 N                    0     6.69492  -1.93978   5.01601  L
 C                    0     6.81244  -1.56344   3.53556  L
 C                    0     6.87623  -0.25899   2.82929  L
 N                    0     6.86671   0.91364   3.37971  L
 N                    0     6.95781  -0.22723   1.46669  L
 C                    0     6.96083  -1.26188   0.72305  L
 N                    0     6.92997  -2.58234   1.3577   L
 C                    0     6.85783  -2.69459   2.81489  L
 P                    0     8.30667  -8.59367   1.65818  L
 O                    0     7.55765  -9.7962    2.16274  L
 O                    0     9.76246  -8.94498   1.51403  L
 O                    0     7.72578  -8.1229    0.30482  L
 C                    0     8.40864  -8.16884  -0.94616  L
 C                    0     9.64062  -7.25333  -0.8658   L
 O                    0     9.41703  -6.00227  -0.31536  L
 C                    0     10.75672  -7.86448  -0.03474  L
 O                    0     11.47697  -8.65919  -0.98462  L
 C                    0     11.49596  -6.62734   0.49348  L
 C                    0     10.80953  -5.51833  -0.07334  L
 N                    0     10.73675  -4.444     0.96589  L
 C                    0     10.31904  -4.68082   2.23356  L
 N                    0     10.40985  -3.58262   2.97705  L
 C                    0     10.90355  -2.53486   2.04793  L
 C                    0     11.1931  -1.1749    2.23476  L
 O                    0     11.21209  -0.55741   3.3499   L
 N                    0     11.46983  -0.45718   1.12618  L
 C                    0     11.59642  -1.07359  -0.06671  L
 N                    0     11.86676  -0.31794  -1.1368   L
 N                    0     11.4492  -2.42568  -0.20546  L
 C                    0     11.05233  -3.12249   0.85719  L
 O                    0     14.9525   6.78675   0.25583  L
 C                    0     13.6513   7.30014  -0.04188  L
 C                    0     13.26532   6.92262  -1.48678  L
 O                    0     13.15775   5.48501  -1.64933  L
 C                    0     11.83452   7.3862   -1.7896   L
 C                    0     11.18833   6.52527  -0.76098  L
 C                    0     11.8386   5.14007  -1.08878  L
 N                    0     11.86934   4.29075   0.14302  L
 C                    0     11.85287   2.7858    0.08393  L
 O                    0     11.93478   2.1578   -1.01254  L
 N                    0     11.75229   2.07144   1.21817  L
 C                    0     11.79381   2.69052   2.39878  L
 N                    0     11.73207   1.91061   3.49041  L
 C                    0     11.89566   4.1196    2.47537  L
 C                    0     11.90071   4.88139   1.33851  L
 O                    0     11.40521   7.06195  -3.11974  L
 P                    0     9.88044   6.86434  -3.39987  L
 O                    0     9.4612    7.79443  -4.50778  L
 O                    0     9.10504   7.18448  -2.15113  L
 O                    0     9.57633   5.3893   -3.81506  L
 C                    0     10.1879   4.78666  -4.9563   L
 C                    0     9.21628   3.75045  -5.59115  L
 O                    0     8.83408   2.74506  -4.56404  L
 C                    0     7.93645   4.48837  -5.96794  L
 C                    0     7.4095    4.66993  -4.54318  L
 C                    0     7.51826   3.14779  -4.02111  L
 N                    0     7.40767   2.91179  -2.4246   L
 C                    0     7.18088   1.58062  -1.44008  L
 O                    0     7.03195   0.21953  -1.65881  L
 N                    0     7.14531   1.80767  -0.06269  L
 C                    0     7.22864   3.00604   0.48621  L
 O                    0     7.08192   3.02162   1.82002  L
 C                    0     7.47985   4.1993   -0.3719   L
 C                    0     7.69051   5.6491    0.21747  L
 C                    0     7.56425   4.09651  -1.76027  L
 O                    0     7.03362   3.76482  -6.82823  L
 P                    0     5.74601   2.9406   -6.48372  L
 O                    0     5.04218   2.65648  -7.78379  L
 O                    0     4.86188   3.7593   -5.58449  L
 O                    0     6.06212   1.43143  -5.74376  L
 C                    0     7.15958   0.83261  -6.41254  L
 C                    0     7.04893  -0.70485  -6.42715  L
 O                    0     6.78401  -1.28907  -5.10547  L
 C                    0     5.81145  -1.14358  -7.23366  L
 C                    0     4.79212  -0.64259  -6.27169  L
 C                    0     5.30786  -1.18984  -4.92138  L    H        177   0.        0.
 N                    0     4.83217  -0.26015  -3.85589  H
 C                    0     4.68566   1.07964  -4.08461  H
 N                    0     4.29785   1.71001  -3.00819  H
 C                    0     4.17038   0.6635   -1.99411  H
 C                    0     3.80734   0.77244  -0.69394  H
 N                    0     3.5608    1.86102  -0.03231  H
 N                    0     3.69249  -0.32076  -0.04104  H
 C                    0     3.82904  -1.49704  -0.50973  H
 N                    0     4.33678  -1.69655  -1.79121  H
 C                    0     4.46429  -0.52535  -2.54368  H
 O                    0     5.82349  -2.55209  -7.48869  L
 P                    0     4.35341  -3.15154  -8.13655  L
 O                    0     4.66607  -4.24058  -9.12667  L
 O                    0     3.60377  -2.0446   -8.82764  L
 O                    0     3.513    -3.79325  -7.00594  L
 C                    0     4.28169  -4.79814  -6.34894  L
 C                    0     3.63958  -5.3112   -5.05871  L
 O                    0     3.30053  -4.19687  -4.14972  L
 C                    0     2.3113   -5.94355  -5.41478  L
 O                    0     1.81714  -6.70094  -4.33123  L
 C                    0     1.51922  -4.69286  -5.62647  L
 C                    0     1.84016  -4.0489   -4.2961   L    H        199   0.        0.
 N                    0     1.35733  -2.66549  -4.20048  H
 C                    0     0.99412  -2.10025  -2.89786  H
 O                    0     1.11812  -2.78834  -1.85139  H
 N                    0     0.52789  -0.85018  -2.83     H
 C                    0     0.39224  -0.12115  -3.94685  H
 O                    0    -0.05538   1.05257  -3.8738   H
 C                    0     0.74445  -0.65532  -5.19885  H
 C                    0     0.57251   0.19679  -6.46935  H
 C                    0     1.23184  -1.91703  -5.29692  H
 P                    0     0.69709  -7.64862  -4.57333  L
 O                    0     1.20196  -9.06636  -4.54997  L
 O                    0     0.07277  -7.36563  -5.91258  L
 O                    0    -0.43414  -7.44304  -3.33414  L
 C                    0     0.22243  -7.89376  -2.15223  L
 C                    0    -0.78554  -7.9335   -1.01239  L
 O                    0    -1.28612  -6.57673  -0.7007   L
 C                    0    -1.97166  -8.682    -1.57069  L
 C                    0    -2.46466  -7.57124  -2.49598  L
 C                    0    -2.55278  -6.43074  -1.44032  L    H        218   0.        0.
 N                    0    -2.72215  -5.01093  -1.98177  H
 C                    0    -3.32229  -3.79566  -1.22407  H
 O                    0    -3.88375  -3.84173  -0.07292  H
 N                    0    -3.23488  -2.56084  -1.7936   H
 C                    0    -2.84952  -2.44661  -3.05474  H
 N                    0    -2.92479  -1.22756  -3.6201   H
 C                    0    -2.36469  -3.56344  -3.79185  H
 C                    0    -2.2736   -4.79632  -3.22903  H
 O                    0    -2.90635  -9.00745  -0.57169  L
 P                    0    -4.01811  -10.03836  -0.87167  L
 O                    0    -3.8189   -11.28098  -0.04639  L
 O                    0    -4.01145  -10.41287  -2.32948  L
 O                    0    -5.46726  -9.28494  -0.44922  L
 C                    0    -5.28309  -8.99889   0.93103  L
 C                    0    -6.36189  -8.03885   1.42048  L
 O                    0    -6.2564   -6.80385   0.62641  L
 C                    0    -7.77977  -8.55322   1.18195  L
 O                    0    -8.65682  -7.88837   2.06876  L
 C                    0    -8.05928  -8.00086  -0.18882  L
 C                    0    -7.60557  -6.52665   0.18272  L
 N                    0    -7.61896  -5.472    -0.8912   L
 C                    0    -7.75597  -3.91761  -0.57227  L
 O                    0    -8.0137   -3.33693   0.62882  L
 N                    0    -7.58905  -3.06152  -1.57805  L
 C                    0    -7.42119  -3.5711   -2.87642  L
 N                    0    -7.24684  -2.65578  -3.84198  L
 C                    0    -7.42381  -5.01627  -3.18502  L
 C                    0    -7.49142  -5.91708  -2.17054  L
 P                    0    -10.21357  -8.574     2.05294  L
 O                    0    -10.19518  -9.90028   2.76331  L
 O                    0    -10.68699  -8.77775   0.63965  L
 O                    0    -11.1126  -7.60997   2.74556  L
 C                    0    -10.81869  -7.13148   4.05841  L
 C                    0    -10.99175  -5.61324   3.98999  L
 O                    0    -10.11535  -5.05157   2.97855  L
 C                    0    -12.37552  -5.21748   3.46697  L
 O                    0    -13.45886  -5.53822   4.34267  L
 C                    0    -12.09521  -3.76602   3.33393  L
 C                    0    -10.75698  -3.79568   2.55805  L
 N                    0    -10.90341  -3.89236   1.0682   L
 C                    0    -10.98591  -5.07599   0.41111  L
 N                    0    -11.08141  -4.8718   -0.94038  L
 C                    0    -11.00338  -3.39349  -1.09732  L
 C                    0    -10.95583  -2.56721  -2.23846  L
 O                    0    -10.89443  -2.9844   -3.45341  L
 N                    0    -10.94133  -1.27717  -2.04428  L
 C                    0    -10.97664  -0.77664  -0.78562  L
 N                    0    -11.0236   0.5555   -0.65004  L
 N                    0    -10.9554  -1.59738   0.31739  L
 C                    0    -10.95457  -2.87869   0.14122  L
 H                    0    -10.45031   2.83401  -7.0108   L
 H                    0    -9.98143   0.47172  -7.25439  L
 H                    0    -10.55014  -2.0568   -4.56562  L
 H                    0    -9.95539  -1.74328  -6.20497  L
 H                    0    -11.07595   4.47562  -3.92568  L
 H                    0    -9.40038   5.00705  -5.78512  L
 H                    0    -10.63746   4.71989  -6.95266  L
 H                    0    -10.8584   7.14943  -6.19907  L
 H                    0    -13.14197   6.5292   -4.9727   L
 H                    0    -14.23411   5.76637  -7.04437  L
 H                    0    -13.16699   7.11768  -7.34451  L
 H                    0    -12.86708   5.4135   -8.87654  L
 H                    0    -6.71714   5.07563  -2.29752  L
 H                    0    -7.58455  -1.52009  -1.22287  L
 H                    0    -8.19932  -1.82113   0.92873  L
 H                    0    -8.68953  -0.3959    2.01163  L
 H                    0    -8.39164   4.83505   1.00025  L
 H                    0    -6.57601   6.44012   0.25637  L
 H                    0    -7.34564   6.56673  -1.28771  L
 H                    0    -8.35458   8.38278   0.09827  L
 H                    0    -10.65576   7.03683   0.18925  L
 H                    0    -10.87597   6.98751  -2.26298  L
 H                    0    -10.16225   8.48911  -1.72578  L
 H                    0    -3.84478   5.08192   0.80159  H
 H                    0    -3.54638  -1.26157  -1.04183  H
 H                    0    -4.16829  -2.58508   0.67218  H
 H                    0    -4.74661  -1.84176   2.16545  H
 H                    0    -4.38519   2.6544    3.58756  L
 H                    0    -3.09035   4.84626   3.56253  L
 H                    0    -4.43797   5.60755   2.80199  L
 H                    0    -4.86007   5.68744   5.30727  L
 H                    0    -6.84016   3.92982   4.99416  L
 H                    0    -8.04836   5.38893   3.40867  L
 H                    0    -7.2642    6.29686   4.6796   L
 H                    0     0.01585   1.37006   7.31917  L
 H                    0    -1.43057   2.34299   7.29543  L
 H                    0    -1.91751   0.2836    8.58138  L
 H                    0    -3.84525  -0.43937   7.14247  L
 H                    0    -4.67615   1.87835   6.66923  L
 H                    0    -4.0797    1.68164   8.29815  L
 H                    0     2.62609  -1.13137   5.99589  H
 H                    0     3.37227  -0.35793   1.35945  H
 H                    0     3.86331   0.88291   6.46593  H
 H                    0     2.61411   1.93558   5.84217  H
 H                    0     4.23597   2.03276   5.20078  H
 H                    0     2.18422  -4.0306    3.91108  L
 H                    0     3.70825  -3.73388   5.90743  L
 H                    0     2.46631  -2.84258   6.70643  L
 H                    0     2.06421  -5.30271   7.14771  L
 H                    0    -0.14904  -5.15629   5.70727  L
 H                    0    -1.11311  -3.35948   7.09657  L
 H                    0    -0.13127  -4.4109    8.08342  L
 H                    0     6.61365  -3.90062   6.06597  L
 H                    0     6.98307  -0.78538  -0.39593  L
 H                    0     6.78253   0.99514   4.37883  L
 H                    0     6.95555   1.78844   2.73593  L
 H                    0     7.40709  -5.45572   2.68625  L
 H                    0     8.56962  -6.1314    4.88013  L
 H                    0     7.01944  -6.36302   5.59299  L
 H                    0     7.58395  -8.5217    4.24383  L
 H                    0     9.97569  -5.64395   2.58132  L
 H                    0     11.58198   0.55834   1.17982  L
 H                    0     11.89118   0.69684  -1.06572  L
 H                    0     12.03422  -0.7562   -2.01762  L
 H                    0     11.30229  -5.14911  -0.94814  L
 H                    0     12.53602  -6.75562   0.27472  L
 H                    0     11.37023  -6.47014   1.54191  L
 H                    0     10.51086  -8.47479   0.80984  L
 H                    0     12.26057  -9.02741  -0.56918  L
 H                    0     10.02452  -7.09175  -1.8517   L
 H                    0     7.72966  -7.83133  -1.70087  L
 H                    0     8.7355   -9.16097  -1.18089  L
 H                    0     11.93103   5.95723   1.40668  L
 H                    0     11.96434   4.61175   3.43008  L
 H                    0     11.51773   0.89239   3.40886  L
 H                    0     11.88173   2.30943   4.39798  L
 H                    0     11.30748   4.60583  -1.85024  L
 H                    0     10.11716   6.51446  -0.75391  L
 H                    0     11.52402   6.872     0.1946   L
 H                    0     11.67759   8.43924  -1.65732  L
 H                    0     13.9924   7.35158  -2.14854  L
 H                    0     13.65842   8.36628   0.05928  L
 H                    0     12.93871   6.88219   0.63704  L
 H                    0     15.19134   7.02405   1.15505  L
 H                    0     7.75623   5.00153  -2.34928  L
 H                    0     7.06985   1.01245   0.59226  L
 H                    0     7.37792   6.39367  -0.50051  L
 H                    0     7.11569   5.76119   1.10865  L
 H                    0     8.73006   5.79992   0.43898  L
 H                    0     6.75232   2.59037  -4.52081  L
 H                    0     6.42837   5.10321  -4.49336  L
 H                    0     8.07631   5.31519  -4.00304  L
 H                    0     8.13608   5.40488  -6.50622  L
 H                    0     9.7084    3.30982  -6.43612  L
 H                    0     11.08827   4.29277  -4.65499  L
 H                    0     10.42422   5.5452   -5.67868  L
 H                    0     4.8614    1.56289  -5.03044  H
 H                    0     3.44141  -2.15835   0.31084  H
 H                    0     3.46785   2.72856  -0.51502  H
 H                    0     3.47285   1.80068   1.0179   H
 H                    0     4.96007  -2.17152  -4.69869  L
 H                    0     3.77702  -0.90426  -6.47927  L
 H                    0     4.87524   0.42671  -6.27712  L
 H                    0     5.72359  -0.68849  -8.19963  L
 H                    0     7.95784  -1.07146  -6.85772  L
 H                    0     8.05653   1.13622  -5.91491  L
 H                    0     7.18138   1.15826  -7.43115  L
 H                    0     1.51009  -2.31259  -6.25132  H
 H                    0     0.27847  -0.45808  -1.94448  H
 H                    0     0.36974  -0.44317  -7.30288  H
 H                    0    -0.24324   0.87634  -6.33508  H
 H                    0     1.47      0.74853  -6.65319  H
 H                    0     1.36949  -4.62234  -3.52447  L
 H                    0     0.47341  -4.84798  -5.79542  L
 H                    0     1.89769  -4.12536  -6.45022  L
 H                    0     2.34531  -6.59222  -6.26513  L
 H                    0     4.32729  -6.00375  -4.62075  L
 H                    0     5.24081  -4.38206  -6.12556  L
 H                    0     4.38896  -5.63564  -7.00668  L
 H                    0    -1.83252  -5.61168  -3.78731  H
 H                    0    -2.05377  -3.4354   -4.81595  H
 H                    0    -3.09892  -0.38051  -3.05785  H
 H                    0    -2.80213  -1.14447  -4.59934  H
 H                    0    -3.37188  -6.65666  -0.79372  L
 H                    0    -3.38683  -7.78189  -2.99722  L
 H                    0    -1.72809  -7.36294  -3.24795  L
 H                    0    -1.71922  -9.60085  -2.06586  L
 H                    0    -0.32457  -8.38613  -0.16071  L
 H                    0     1.03923  -7.2488   -1.90268  L
 H                    0     0.59266  -8.88391  -2.32545  L
 H                    0    -7.43103  -6.99302  -2.39062  L
 H                    0    -7.35917  -5.40572  -4.21623  L
 H                    0    -7.05359  -1.64091  -3.54853  L
 H                    0    -7.28887  -2.93428  -4.81236  L
 H                    0    -8.2149   -6.16425   0.96554  L
 H                    0    -9.07882  -8.10234  -0.50654  L
 H                    0    -7.45345  -8.4567   -0.95534  L
 H                    0    -7.8815   -9.61228   1.32513  L
 H                    0    -6.22851  -7.88628   2.46835  L
 H                    0    -4.32742  -8.54142   1.07605  L
 H                    0    -5.33064  -9.91385   1.48634  L
 H                    0    -10.97589  -6.04172   0.90014  L
 H                    0    -10.88604  -0.61677  -2.83048  L
 H                    0    -11.13653   1.16536  -1.47253  L
 H                    0    -10.94884   0.95409   0.26133  L
 H                    0    -10.21423  -2.90807   2.80557  L
 H                    0    -11.93569  -3.38407   4.32329  L
 H                    0    -12.84878  -3.17507   2.86454  L
 H                    0    -12.58231  -5.67044   2.52172  L
 H                    0    -14.27662  -5.19457   3.97691  L
 H                    0    -10.81034  -5.18227   4.95505  L
 H                    0    -9.81     -7.36548   4.33077  L
 H                    0    -11.48147  -7.57301   4.77409  L
 N                    0    -0.00438   10.11642   1.70924  H
 N                    0    -0.50052   12.17118   2.41332  H
 C                    0    -0.30478   10.7672   2.73442  H
 C                    0    -0.38473   9.94663   4.0005   H
 O                    0     0.04003   8.59139   3.80057  H
 C                    0    -0.74066   9.39066   6.39147  H
 Cu                   0     0.15336   8.26991   1.97123  H
 C                    0     0.50781   3.68616   2.2964   H
 C                    0     0.65628   6.68445  -0.15167  H
 C                    0     0.75308   4.37929   1.09477  H
 C                    0     0.56445   5.76895   1.08429  H
 C                    0     0.33866   8.90509  -0.82449  H
 C                    0     0.61032   8.54333  -2.16063  H
 C                    0     0.02503   5.80762   3.32416  H
 C                    0     0.9345    7.21072  -2.47572  H
 C                    0     0.12887   4.418     3.42521  H
 C                    0     0.95495   6.25781  -1.44998  H
 N                    0    -0.15281   1.88802   4.58437  H
 C                    0    -1.05667   1.34287   5.42063  L    H        438   0.        0.
 H                    0     1.06383   3.85971   0.21208  H
 H                    0    -0.07649   3.92625   4.35198  H
 H                    0    -0.24449   6.39219   4.17892  H
 H                    0     1.1886    5.23292  -1.65517  H
 H                    0     0.57293   9.27986  -2.93479  H
 H                    0     0.09711   9.91698  -0.57711  H
 N                    0     0.26367   6.41069   2.15584  H
 N                    0     0.39969   7.96433   0.13287  H
 O                    0    -0.34854   1.60973   3.25529  H
 C                    0     0.63946   2.1512    2.3604   H
 H                    0     0.47059   1.75327   1.38142  H
 H                    0     1.61894   1.88298   2.6927   H
 C                    0     0.11256   10.94491   0.65112  H
 H                    0     0.39031   10.67312  -0.34624  H
 C                    0    -0.20868   12.25763   1.10639  H
 H                    0    -0.21634   13.15121   0.51714  H
 C                    0    -0.83695   13.2658   3.33971  H
 H                    0    -1.79348   13.07741   3.78356  H
 H                    0    -0.09396   13.32457   4.10694  H
 H                    0    -0.87019   14.19077   2.80285  H
 C                    0    -0.24924   8.09157   6.18011  H
 H                    0     0.07882   7.79541   5.20495  H
 C                    0    -0.18589   7.18066   7.24303  H
 H                    0     0.19212   6.19223   7.08015  H
 C                    0    -0.61681   7.56436   8.51874  H
 H                    0    -0.57002   6.86848   9.33095  H
 C                    0    -1.10814   8.8604    8.73167  H
 H                    0    -1.43639   9.15253   9.70701  H
 C                    0    -1.1692    9.77425   7.6682   H
 H                    0    -1.54241   10.76259   7.83213  H
 C                    0    -0.79901   10.38114   5.20865  H
 H                    0    -1.15525   11.38044   5.34211  H
 C                    0     1.25486   6.8106   -3.93092  H
 H                    0     1.93862   5.98811  -3.93356  H
 H                    0     0.35175   6.52437  -4.43072  H
 H                    0     1.6944    7.64278  -4.44004  H
 H                    0    -1.88539   0.82524   4.98396  L
 O                    0    -3.00988   0.32918   5.43591  L
 H                    0    -3.85916   0.42265   4.99823  L
 C                    0     5.84348  -7.43291   3.46196  L
 H                    0     5.66313  -7.82761   2.48571  L
 C                    0     4.94397  -8.22132   4.44419  L
 H                    0     5.07303  -9.26673   4.24627  L
 H                    0     5.21183  -8.01465   5.45773  L

 Add virtual bond connecting atoms O83        and H365       Dist= 2.86D+00.
 Add virtual bond connecting atoms O86        and H367       Dist= 2.84D+00.
 Add virtual bond connecting atoms H309       and N183       Dist= 2.72D+00.
 Add virtual bond connecting atoms O220       and H293       Dist= 2.81D+00.
 Add virtual bond connecting atoms N221       and H292       Dist= 2.90D+00.
 Add virtual bond connecting atoms H389       and O55        Dist= 2.78D+00.
 Add virtual bond connecting atoms H451       and O86        Dist= 3.31D+00.
 Add virtual bond connecting atoms C184       and O201       Dist= 6.22D+00.
 Add virtual bond connecting atoms H365       and O201       Dist= 6.11D+00.
 Add virtual bond connecting atoms N223       and N202       Dist= 6.73D+00.
 Add virtual bond connecting atoms N223       and C203       Dist= 6.64D+00.
 Add virtual bond connecting atoms H388       and N199       Dist= 6.71D+00.
 Add virtual bond connecting atoms H389       and O204       Dist= 6.54D+00.
 Add virtual bond connecting atoms H389       and H376       Dist= 6.72D+00.
 I=    9 IAn=  7 Valence= 4.
          JB=  1 J=    8 IAn=  6 IBT= 1 Dist= 1.51D+00
          JB=  2 J=   10 IAn=  6 IBT= 1 Dist= 1.53D+00
          JB=  3 J=   16 IAn=  6 IBT=12 Dist= 1.34D+00
 I=   10 IAn=  6 Valence= 5.
          JB=  1 J=    9 IAn=  7 IBT= 1 Dist= 1.53D+00
          JB=  2 J=   11 IAn=  8 IBT= 2 Dist= 1.27D+00
          JB=  3 J=   12 IAn=  7 IBT=12 Dist= 1.36D+00
 I=   14 IAn=  7 Valence= 4.
          JB=  1 J=   13 IAn=  6 IBT=12 Dist= 1.35D+00
          JB=  2 J=  270 IAn=  1 IBT= 1 Dist= 1.05D+00
          JB=  3 J=  271 IAn=  1 IBT= 1 Dist= 1.00D+00
 I=   16 IAn=  6 Valence= 5.
          JB=  1 J=    9 IAn=  7 IBT=12 Dist= 1.34D+00
          JB=  2 J=   15 IAn=  6 IBT= 2 Dist= 1.36D+00
          JB=  3 J=  268 IAn=  1 IBT= 1 Dist= 1.08D+00
 I=   17 IAn= 15 Valence= 7.
          JB=  1 J=    6 IAn=  8 IBT= 1 Dist= 1.70D+00
          JB=  2 J=   18 IAn=  8 IBT= 2 Dist= 1.50D+00
          JB=  3 J=   19 IAn=  8 IBT= 2 Dist= 1.50D+00
          JB=  4 J=   20 IAn=  8 IBT= 2 Dist= 1.49D+00
 I=   20 IAn=  8 Valence= 3.
          JB=  1 J=   17 IAn= 15 IBT= 2 Dist= 1.49D+00
          JB=  2 J=   21 IAn=  6 IBT= 1 Dist= 1.43D+00
 I=   27 IAn=  7 Valence= 4.
          JB=  1 J=   26 IAn=  6 IBT= 1 Dist= 1.55D+00
          JB=  2 J=   28 IAn=  6 IBT=12 Dist= 1.36D+00
          JB=  3 J=   37 IAn=  6 IBT= 1 Dist= 1.43D+00
 I=   33 IAn=  7 Valence= 4.
          JB=  1 J=   31 IAn=  6 IBT=12 Dist= 1.35D+00
          JB=  2 J=   34 IAn=  6 IBT=12 Dist= 1.36D+00
          JB=  3 J=  281 IAn=  1 IBT= 1 Dist= 1.08D+00
 I=   35 IAn=  7 Valence= 4.
          JB=  1 J=   34 IAn=  6 IBT=12 Dist= 1.31D+00
          JB=  2 J=  282 IAn=  1 IBT= 1 Dist= 1.09D+00
          JB=  3 J=  283 IAn=  1 IBT= 1 Dist= 1.03D+00
 I=   37 IAn=  6 Valence= 5.
          JB=  1 J=   27 IAn=  7 IBT= 1 Dist= 1.43D+00
          JB=  2 J=   30 IAn=  6 IBT= 2 Dist= 1.37D+00
          JB=  3 J=   36 IAn=  7 IBT=12 Dist= 1.36D+00
 I=   39 IAn= 15 Valence= 6.
          JB=  1 J=   38 IAn=  8 IBT= 1 Dist= 1.71D+00
          JB=  2 J=   40 IAn=  8 IBT= 2 Dist= 1.50D+00
          JB=  3 J=   41 IAn=  8 IBT= 2 Dist= 1.51D+00
          JB=  4 J=   42 IAn=  8 IBT= 1 Dist= 1.69D+00
 I=   50 IAn=  7 Valence= 4.
          JB=  1 J=   49 IAn=  6 IBT= 1 Dist= 1.49D+00
          JB=  2 J=   51 IAn=  6 IBT=12 Dist= 1.36D+00
          JB=  3 J=   60 IAn=  6 IBT= 1 Dist= 1.37D+00
 I=   53 IAn=  6 Valence= 5.
          JB=  1 J=   52 IAn=  7 IBT= 1 Dist= 1.49D+00
          JB=  2 J=   54 IAn=  6 IBT=12 Dist= 1.40D+00
          JB=  3 J=   60 IAn=  6 IBT= 2 Dist= 1.32D+00
 I=   54 IAn=  6 Valence= 5.
          JB=  1 J=   53 IAn=  6 IBT=12 Dist= 1.40D+00
          JB=  2 J=   55 IAn=  8 IBT= 2 Dist= 1.26D+00
          JB=  3 J=   56 IAn=  7 IBT=21 Dist= 1.36D+00
 I=   56 IAn=  7 Valence= 4.
          JB=  1 J=   54 IAn=  6 IBT=11 Dist= 1.36D+00
          JB=  2 J=   57 IAn=  6 IBT=12 Dist= 1.34D+00
          JB=  3 J=  292 IAn=  1 IBT= 1 Dist= 1.03D+00
 I=   58 IAn=  7 Valence= 4.
          JB=  1 J=   57 IAn=  6 IBT=12 Dist= 1.35D+00
          JB=  2 J=  293 IAn=  1 IBT= 1 Dist= 1.04D+00
          JB=  3 J=  294 IAn=  1 IBT= 1 Dist= 9.99D-01
 I=   60 IAn=  6 Valence= 5.
          JB=  1 J=   50 IAn=  7 IBT= 1 Dist= 1.37D+00
          JB=  2 J=   53 IAn=  6 IBT= 2 Dist= 1.32D+00
          JB=  3 J=   59 IAn=  7 IBT=12 Dist= 1.35D+00
 I=   61 IAn= 15 Valence= 6.
          JB=  1 J=   47 IAn=  8 IBT= 1 Dist= 1.54D+00
          JB=  2 J=   62 IAn=  8 IBT= 2 Dist= 1.51D+00
          JB=  3 J=   63 IAn=  8 IBT= 1 Dist= 1.56D+00
          JB=  4 J=   64 IAn=  8 IBT= 2 Dist= 1.48D+00
 I=   64 IAn=  8 Valence= 3.
          JB=  1 J=   61 IAn= 15 IBT= 2 Dist= 1.48D+00
          JB=  2 J=   65 IAn=  6 IBT= 1 Dist= 1.43D+00
 I=   70 IAn= 15 Valence= 7.
          JB=  1 J=   68 IAn=  8 IBT= 1 Dist= 1.70D+00
          JB=  2 J=   71 IAn=  8 IBT= 2 Dist= 1.51D+00
          JB=  3 J=   72 IAn=  8 IBT= 2 Dist= 1.50D+00
          JB=  4 J=   73 IAn=  8 IBT= 2 Dist= 1.49D+00
 I=   73 IAn=  8 Valence= 3.
          JB=  1 J=   70 IAn= 15 IBT= 2 Dist= 1.49D+00
          JB=  2 J=   74 IAn=  6 IBT= 1 Dist= 1.43D+00
 I=   78 IAn=  8 Valence= 3.
          JB=  1 J=   77 IAn=  6 IBT= 1 Dist= 1.43D+00
          JB=  2 J=   90 IAn= 15 IBT= 2 Dist= 1.49D+00
 I=   81 IAn=  7 Valence= 4.
          JB=  1 J=   80 IAn=  6 IBT= 1 Dist= 1.49D+00
          JB=  2 J=   82 IAn=  6 IBT= 1 Dist= 1.51D+00
          JB=  3 J=   89 IAn=  6 IBT=12 Dist= 1.36D+00
 I=   84 IAn=  7 Valence= 4.
          JB=  1 J=   82 IAn=  6 IBT=12 Dist= 1.33D+00
          JB=  2 J=   85 IAn=  6 IBT=12 Dist= 1.32D+00
          JB=  3 J=  309 IAn=  1 IBT= 1 Dist= 9.41D-01
 I=   90 IAn= 15 Valence= 7.
          JB=  1 J=   78 IAn=  8 IBT= 2 Dist= 1.49D+00
          JB=  2 J=   91 IAn=  8 IBT= 2 Dist= 1.50D+00
          JB=  3 J=   92 IAn=  8 IBT= 2 Dist= 1.50D+00
          JB=  4 J=   93 IAn=  8 IBT= 1 Dist= 1.70D+00
 I=   99 IAn=  7 Valence= 4.
          JB=  1 J=   98 IAn=  6 IBT= 1 Dist= 1.52D+00
          JB=  2 J=  100 IAn=  6 IBT=12 Dist= 1.37D+00
          JB=  3 J=  108 IAn=  6 IBT= 1 Dist= 1.59D+00
 I=  103 IAn=  6 Valence= 5.
          JB=  1 J=  102 IAn=  6 IBT= 1 Dist= 1.48D+00
          JB=  2 J=  104 IAn=  7 IBT= 2 Dist= 1.30D+00
          JB=  3 J=  105 IAn=  7 IBT=12 Dist= 1.37D+00
 I=  104 IAn=  7 Valence= 4.
          JB=  1 J=  103 IAn=  6 IBT= 2 Dist= 1.30D+00
          JB=  2 J=  322 IAn=  1 IBT= 1 Dist= 1.01D+00
          JB=  3 J=  323 IAn=  1 IBT= 1 Dist= 1.09D+00
 I=  105 IAn=  7 Valence= 4.
          JB=  1 J=  103 IAn=  6 IBT=12 Dist= 1.37D+00
          JB=  2 J=  106 IAn=  6 IBT= 2 Dist= 1.27D+00
 I=  109 IAn= 15 Valence= 6.
          JB=  1 J=   96 IAn=  8 IBT= 1 Dist= 1.56D+00
          JB=  2 J=  110 IAn=  8 IBT= 2 Dist= 1.50D+00
          JB=  3 J=  111 IAn=  8 IBT= 2 Dist= 1.50D+00
          JB=  4 J=  112 IAn=  8 IBT= 1 Dist= 1.55D+00
 I=  111 IAn=  8 Valence= 3.
          JB=  1 J=  109 IAn= 15 IBT= 2 Dist= 1.50D+00
          JB=  2 J=  335 IAn=  1 IBT= 1 Dist= 1.13D+00
 I=  114 IAn=  6 Valence= 5.
          JB=  1 J=  113 IAn=  6 IBT= 1 Dist= 1.54D+00
          JB=  2 J=  115 IAn=  8 IBT=12 Dist= 1.38D+00
          JB=  3 J=  116 IAn=  6 IBT= 1 Dist= 1.52D+00
          JB=  4 J=  337 IAn=  1 IBT= 1 Dist= 1.07D+00
 I=  115 IAn=  8 Valence= 3.
          JB=  1 J=  114 IAn=  6 IBT=12 Dist= 1.38D+00
          JB=  2 J=  119 IAn=  6 IBT= 1 Dist= 1.49D+00
 I=  118 IAn=  6 Valence= 5.
          JB=  1 J=  116 IAn=  6 IBT= 1 Dist= 1.53D+00
          JB=  2 J=  119 IAn=  6 IBT=12 Dist= 1.42D+00
          JB=  3 J=  333 IAn=  1 IBT= 1 Dist= 1.07D+00
          JB=  4 J=  334 IAn=  1 IBT= 1 Dist= 1.07D+00
 I=  119 IAn=  6 Valence= 5.
          JB=  1 J=  115 IAn=  8 IBT= 1 Dist= 1.49D+00
          JB=  2 J=  118 IAn=  6 IBT=12 Dist= 1.42D+00
          JB=  3 J=  120 IAn=  7 IBT= 1 Dist= 1.50D+00
          JB=  4 J=  332 IAn=  1 IBT= 1 Dist= 1.07D+00
 I=  120 IAn=  7 Valence= 4.
          JB=  1 J=  119 IAn=  6 IBT= 1 Dist= 1.50D+00
          JB=  2 J=  121 IAn=  6 IBT=12 Dist= 1.36D+00
          JB=  3 J=  130 IAn=  6 IBT=12 Dist= 1.36D+00
 I=  123 IAn=  6 Valence= 5.
          JB=  1 J=  122 IAn=  7 IBT= 1 Dist= 1.48D+00
          JB=  2 J=  124 IAn=  6 IBT=12 Dist= 1.40D+00
          JB=  3 J=  130 IAn=  6 IBT= 2 Dist= 1.34D+00
 I=  124 IAn=  6 Valence= 5.
          JB=  1 J=  123 IAn=  6 IBT=12 Dist= 1.40D+00
          JB=  2 J=  125 IAn=  8 IBT= 2 Dist= 1.27D+00
          JB=  3 J=  126 IAn=  7 IBT=21 Dist= 1.35D+00
 I=  126 IAn=  7 Valence= 4.
          JB=  1 J=  124 IAn=  6 IBT=11 Dist= 1.35D+00
          JB=  2 J=  127 IAn=  6 IBT=12 Dist= 1.35D+00
          JB=  3 J=  329 IAn=  1 IBT= 1 Dist= 1.02D+00
 I=  127 IAn=  6 Valence= 5.
          JB=  1 J=  126 IAn=  7 IBT=12 Dist= 1.35D+00
          JB=  2 J=  128 IAn=  7 IBT=12 Dist= 1.34D+00
          JB=  3 J=  129 IAn=  7 IBT=12 Dist= 1.37D+00
 I=  128 IAn=  7 Valence= 4.
          JB=  1 J=  127 IAn=  6 IBT=12 Dist= 1.34D+00
          JB=  2 J=  330 IAn=  1 IBT= 1 Dist= 1.02D+00
          JB=  3 J=  331 IAn=  1 IBT= 1 Dist= 9.98D-01
 I=  130 IAn=  6 Valence= 5.
          JB=  1 J=  120 IAn=  7 IBT=12 Dist= 1.36D+00
          JB=  2 J=  123 IAn=  6 IBT= 2 Dist= 1.34D+00
          JB=  3 J=  129 IAn=  7 IBT=12 Dist= 1.33D+00
 I=  138 IAn=  7 Valence= 4.
          JB=  1 J=  137 IAn=  6 IBT= 1 Dist= 1.50D+00
          JB=  2 J=  139 IAn=  6 IBT= 1 Dist= 1.51D+00
          JB=  3 J=  145 IAn=  6 IBT=12 Dist= 1.33D+00
 I=  139 IAn=  6 Valence= 5.
          JB=  1 J=  138 IAn=  7 IBT= 1 Dist= 1.51D+00
          JB=  2 J=  140 IAn=  8 IBT= 2 Dist= 1.27D+00
          JB=  3 J=  141 IAn=  7 IBT=12 Dist= 1.34D+00
 I=  143 IAn=  7 Valence= 4.
          JB=  1 J=  142 IAn=  6 IBT=12 Dist= 1.34D+00
          JB=  2 J=  342 IAn=  1 IBT= 1 Dist= 1.04D+00
          JB=  3 J=  343 IAn=  1 IBT= 1 Dist= 1.00D+00
 I=  145 IAn=  6 Valence= 5.
          JB=  1 J=  138 IAn=  7 IBT=12 Dist= 1.33D+00
          JB=  2 J=  144 IAn=  6 IBT= 2 Dist= 1.37D+00
          JB=  3 J=  340 IAn=  1 IBT= 1 Dist= 1.08D+00
 I=  147 IAn= 15 Valence= 6.
          JB=  1 J=  146 IAn=  8 IBT= 1 Dist= 1.56D+00
          JB=  2 J=  148 IAn=  8 IBT= 2 Dist= 1.51D+00
          JB=  3 J=  149 IAn=  8 IBT= 2 Dist= 1.50D+00
          JB=  4 J=  150 IAn=  8 IBT= 1 Dist= 1.56D+00
 I=  157 IAn=  7 Valence= 4.
          JB=  1 J=  156 IAn=  6 IBT= 1 Dist= 1.62D+00
          JB=  2 J=  158 IAn=  6 IBT= 1 Dist= 1.67D+00
          JB=  3 J=  165 IAn=  6 IBT=12 Dist= 1.37D+00
 I=  160 IAn=  7 Valence= 4.
          JB=  1 J=  158 IAn=  6 IBT= 1 Dist= 1.40D+00
          JB=  2 J=  161 IAn=  6 IBT=12 Dist= 1.32D+00
          JB=  3 J=  353 IAn=  1 IBT= 1 Dist= 1.03D+00
 I=  167 IAn= 15 Valence= 6.
          JB=  1 J=  166 IAn=  8 IBT= 1 Dist= 1.57D+00
          JB=  2 J=  168 IAn=  8 IBT= 2 Dist= 1.51D+00
          JB=  3 J=  169 IAn=  8 IBT= 2 Dist= 1.50D+00
          JB=  4 J=  170 IAn=  8 IBT= 1 Dist= 1.71D+00
 I=  177 IAn=  7 Valence= 4.
          JB=  1 J=  176 IAn=  6 IBT= 1 Dist= 1.49D+00
          JB=  2 J=  178 IAn=  6 IBT=12 Dist= 1.37D+00
          JB=  3 J=  186 IAn=  6 IBT= 1 Dist= 1.39D+00
 I=  178 IAn=  6 Valence= 5.
          JB=  1 J=  177 IAn=  7 IBT=12 Dist= 1.37D+00
          JB=  2 J=  179 IAn=  7 IBT= 2 Dist= 1.31D+00
          JB=  3 J=  364 IAn=  1 IBT= 1 Dist= 1.08D+00
 I=  180 IAn=  6 Valence= 5.
          JB=  1 J=  179 IAn=  7 IBT= 1 Dist= 1.46D+00
          JB=  2 J=  181 IAn=  6 IBT= 2 Dist= 1.35D+00
          JB=  3 J=  186 IAn=  6 IBT= 2 Dist= 1.34D+00
 I=  181 IAn=  6 Valence= 6.
          JB=  1 J=  180 IAn=  6 IBT= 2 Dist= 1.35D+00
          JB=  2 J=  182 IAn=  7 IBT= 2 Dist= 1.30D+00
          JB=  3 J=  183 IAn=  7 IBT= 2 Dist= 1.28D+00
 I=  182 IAn=  7 Valence= 4.
          JB=  1 J=  181 IAn=  6 IBT= 2 Dist= 1.30D+00
          JB=  2 J=  366 IAn=  1 IBT= 1 Dist= 9.97D-01
          JB=  3 J=  367 IAn=  1 IBT= 1 Dist= 1.06D+00
 I=  183 IAn=  7 Valence= 4.
          JB=  1 J=  181 IAn=  6 IBT= 2 Dist= 1.28D+00
          JB=  2 J=  184 IAn=  6 IBT= 2 Dist= 1.27D+00
 I=  188 IAn= 15 Valence= 6.
          JB=  1 J=  187 IAn=  8 IBT= 1 Dist= 1.71D+00
          JB=  2 J=  189 IAn=  8 IBT= 2 Dist= 1.50D+00
          JB=  3 J=  190 IAn=  8 IBT= 2 Dist= 1.50D+00
          JB=  4 J=  191 IAn=  8 IBT= 1 Dist= 1.55D+00
 I=  196 IAn=  8 Valence= 3.
          JB=  1 J=  195 IAn=  6 IBT= 1 Dist= 1.41D+00
          JB=  2 J=  208 IAn= 15 IBT= 2 Dist= 1.49D+00
 I=  199 IAn=  7 Valence= 4.
          JB=  1 J=  198 IAn=  6 IBT= 1 Dist= 1.47D+00
          JB=  2 J=  200 IAn=  6 IBT= 1 Dist= 1.47D+00
          JB=  3 J=  207 IAn=  6 IBT=12 Dist= 1.33D+00
 I=  200 IAn=  6 Valence= 5.
          JB=  1 J=  199 IAn=  7 IBT= 1 Dist= 1.47D+00
          JB=  2 J=  201 IAn=  8 IBT= 2 Dist= 1.26D+00
          JB=  3 J=  202 IAn=  7 IBT=21 Dist= 1.34D+00
 I=  202 IAn=  7 Valence= 4.
          JB=  1 J=  200 IAn=  6 IBT=11 Dist= 1.34D+00
          JB=  2 J=  203 IAn=  6 IBT=21 Dist= 1.34D+00
          JB=  3 J=  376 IAn=  1 IBT= 1 Dist= 1.00D+00
 I=  203 IAn=  6 Valence= 5.
          JB=  1 J=  202 IAn=  7 IBT=21 Dist= 1.34D+00
          JB=  2 J=  204 IAn=  8 IBT= 2 Dist= 1.26D+00
          JB=  3 J=  205 IAn=  6 IBT=12 Dist= 1.41D+00
 I=  205 IAn=  6 Valence= 5.
          JB=  1 J=  203 IAn=  6 IBT=12 Dist= 1.41D+00
          JB=  2 J=  206 IAn=  6 IBT= 1 Dist= 1.54D+00
          JB=  3 J=  207 IAn=  6 IBT= 2 Dist= 1.36D+00
 I=  207 IAn=  6 Valence= 5.
          JB=  1 J=  199 IAn=  7 IBT=12 Dist= 1.33D+00
          JB=  2 J=  205 IAn=  6 IBT= 2 Dist= 1.36D+00
          JB=  3 J=  375 IAn=  1 IBT= 1 Dist= 1.07D+00
 I=  208 IAn= 15 Valence= 7.
          JB=  1 J=  196 IAn=  8 IBT= 2 Dist= 1.49D+00
          JB=  2 J=  209 IAn=  8 IBT= 2 Dist= 1.51D+00
          JB=  3 J=  210 IAn=  8 IBT= 2 Dist= 1.50D+00
          JB=  4 J=  211 IAn=  8 IBT= 1 Dist= 1.69D+00
 I=  218 IAn=  7 Valence= 4.
          JB=  1 J=  217 IAn=  6 IBT= 1 Dist= 1.53D+00
          JB=  2 J=  219 IAn=  6 IBT= 1 Dist= 1.55D+00
          JB=  3 J=  225 IAn=  6 IBT=12 Dist= 1.34D+00
 I=  222 IAn=  6 Valence= 5.
          JB=  1 J=  221 IAn=  7 IBT=12 Dist= 1.32D+00
          JB=  2 J=  223 IAn=  7 IBT=12 Dist= 1.35D+00
          JB=  3 J=  224 IAn=  6 IBT=12 Dist= 1.42D+00
 I=  223 IAn=  7 Valence= 4.
          JB=  1 J=  222 IAn=  6 IBT=12 Dist= 1.35D+00
          JB=  2 J=  389 IAn=  1 IBT= 1 Dist= 1.03D+00
          JB=  3 J=  390 IAn=  1 IBT= 1 Dist= 9.90D-01
 I=  224 IAn=  6 Valence= 5.
          JB=  1 J=  222 IAn=  6 IBT=12 Dist= 1.42D+00
          JB=  2 J=  225 IAn=  6 IBT= 2 Dist= 1.36D+00
          JB=  3 J=  388 IAn=  1 IBT= 1 Dist= 1.08D+00
 I=  225 IAn=  6 Valence= 5.
          JB=  1 J=  218 IAn=  7 IBT=12 Dist= 1.34D+00
          JB=  2 J=  224 IAn=  6 IBT= 2 Dist= 1.36D+00
          JB=  3 J=  387 IAn=  1 IBT= 1 Dist= 1.08D+00
 I=  227 IAn= 15 Valence= 6.
          JB=  1 J=  226 IAn=  8 IBT= 1 Dist= 1.55D+00
          JB=  2 J=  228 IAn=  8 IBT= 2 Dist= 1.50D+00
          JB=  3 J=  229 IAn=  8 IBT= 2 Dist= 1.51D+00
          JB=  4 J=  230 IAn=  8 IBT= 1 Dist= 1.69D+00
 I=  238 IAn=  7 Valence= 4.
          JB=  1 J=  237 IAn=  6 IBT= 1 Dist= 1.51D+00
          JB=  2 J=  239 IAn=  6 IBT= 1 Dist= 1.59D+00
          JB=  3 J=  245 IAn=  6 IBT=12 Dist= 1.36D+00
 I=  243 IAn=  7 Valence= 4.
          JB=  1 J=  242 IAn=  6 IBT=12 Dist= 1.34D+00
          JB=  2 J=  400 IAn=  1 IBT= 1 Dist= 1.07D+00
          JB=  3 J=  401 IAn=  1 IBT= 1 Dist= 1.01D+00
 I=  245 IAn=  6 Valence= 5.
          JB=  1 J=  238 IAn=  7 IBT=12 Dist= 1.36D+00
          JB=  2 J=  244 IAn=  6 IBT= 2 Dist= 1.36D+00
          JB=  3 J=  398 IAn=  1 IBT= 1 Dist= 1.10D+00
 I=  246 IAn= 15 Valence= 7.
          JB=  1 J=  235 IAn=  8 IBT= 1 Dist= 1.70D+00
          JB=  2 J=  247 IAn=  8 IBT= 2 Dist= 1.50D+00
          JB=  3 J=  248 IAn=  8 IBT= 2 Dist= 1.50D+00
          JB=  4 J=  249 IAn=  8 IBT= 2 Dist= 1.49D+00
 I=  249 IAn=  8 Valence= 3.
          JB=  1 J=  246 IAn= 15 IBT= 2 Dist= 1.49D+00
          JB=  2 J=  250 IAn=  6 IBT= 1 Dist= 1.43D+00
 I=  257 IAn=  7 Valence= 4.
          JB=  1 J=  256 IAn=  6 IBT= 1 Dist= 1.50D+00
          JB=  2 J=  258 IAn=  6 IBT=12 Dist= 1.36D+00
          JB=  3 J=  267 IAn=  6 IBT= 1 Dist= 1.37D+00
 I=  260 IAn=  6 Valence= 5.
          JB=  1 J=  259 IAn=  7 IBT= 1 Dist= 1.49D+00
          JB=  2 J=  261 IAn=  6 IBT=12 Dist= 1.41D+00
          JB=  3 J=  267 IAn=  6 IBT= 2 Dist= 1.34D+00
 I=  261 IAn=  6 Valence= 5.
          JB=  1 J=  260 IAn=  6 IBT=12 Dist= 1.41D+00
          JB=  2 J=  262 IAn=  8 IBT= 1 Dist= 1.29D+00
          JB=  3 J=  263 IAn=  7 IBT= 2 Dist= 1.30D+00
 I=  263 IAn=  7 Valence= 5.
          JB=  1 J=  261 IAn=  6 IBT= 2 Dist= 1.30D+00
          JB=  2 J=  264 IAn=  6 IBT=12 Dist= 1.35D+00
          JB=  3 J=  410 IAn=  1 IBT= 1 Dist= 1.03D+00
 I=  265 IAn=  7 Valence= 4.
          JB=  1 J=  264 IAn=  6 IBT=12 Dist= 1.34D+00
          JB=  2 J=  411 IAn=  1 IBT= 1 Dist= 1.03D+00
          JB=  3 J=  412 IAn=  1 IBT= 1 Dist= 9.98D-01
 I=  267 IAn=  6 Valence= 5.
          JB=  1 J=  257 IAn=  7 IBT= 1 Dist= 1.37D+00
          JB=  2 J=  260 IAn=  6 IBT= 2 Dist= 1.34D+00
          JB=  3 J=  266 IAn=  7 IBT= 2 Dist= 1.29D+00
 I=  335 IAn=  1 Valence= 2.
          JB=  1 J=  111 IAn=  8 IBT= 1 Dist= 1.13D+00
          JB=  2 J=  116 IAn=  6 IBT= 1 Dist= 1.07D+00
 I=  421 IAn=  7 Valence= 5.
          JB=  1 J=  423 IAn=  6 IBT= 2 Dist= 1.25D+00
          JB=  2 J=  427 IAn= 29 IBT= 1 Dist= 1.87D+00
          JB=  3 J=  452 IAn=  6 IBT=12 Dist= 1.35D+00
 I=  422 IAn=  7 Valence= 4.
          JB=  1 J=  423 IAn=  6 IBT= 1 Dist= 1.45D+00
          JB=  2 J=  454 IAn=  6 IBT=12 Dist= 1.34D+00
          JB=  3 J=  456 IAn=  6 IBT= 1 Dist= 1.47D+00
 I=  431 IAn=  6 Valence= 5.
          JB=  1 J=  429 IAn=  6 IBT= 1 Dist= 1.54D+00
          JB=  2 J=  430 IAn=  6 IBT=12 Dist= 1.40D+00
          JB=  3 J=  446 IAn=  7 IBT= 2 Dist= 1.28D+00
 I=  445 IAn=  1 Valence= 2.
          JB=  1 J=  432 IAn=  6 IBT= 1 Dist= 1.07D+00
          JB=  2 J=  453 IAn=  1 IBT= 1 Dist= 8.43D-01
 I=  446 IAn=  7 Valence= 5.
          JB=  1 J=  427 IAn= 29 IBT= 1 Dist= 1.87D+00
          JB=  2 J=  431 IAn=  6 IBT= 2 Dist= 1.28D+00
          JB=  3 J=  434 IAn=  6 IBT=12 Dist= 1.34D+00
 I=  447 IAn=  7 Valence= 4.
          JB=  1 J=  427 IAn= 29 IBT= 1 Dist= 1.88D+00
          JB=  2 J=  429 IAn=  6 IBT=12 Dist= 1.34D+00
          JB=  3 J=  432 IAn=  6 IBT=12 Dist= 1.34D+00
 I=  453 IAn=  1 Valence= 2.
          JB=  1 J=  445 IAn=  1 IBT= 1 Dist= 8.43D-01
          JB=  2 J=  452 IAn=  6 IBT= 1 Dist= 1.07D+00
 Include all MM classes

 MM sanity checks:
 All charges sum to:                0.00000000
 Charges of atoms sum to:           0.00000000
 Layer 1 (M) has    129 atoms and charge   0.00000000 sum=   0.00000000
 Layer 2 (R) adds   354 atoms and charge   0.00000000 sum=   0.00000000
 MMInit generated parameter data with length LenPar=       78867.

 GradGradGradGradGradGradGradGradGradGradGradGradGradGradGradGradGradGrad
 Berny optimization.
 Initialization pass.
                           ----------------------------
                           !    Initial Parameters    !
                           ! (Angstroms and Degrees)  !
 --------------------------                            --------------------------
 ! Name  Definition              Value          Derivative Info.                !
 --------------------------------------------------------------------------------
 ! R1    R(49,50)                1.4905         estimate D2E/DX2                !
 ! R2    R(50,51)                1.3556         estimate D2E/DX2                !
 ! R3    R(50,60)                1.3719         estimate D2E/DX2                !
 ! R4    R(51,52)                1.3308         estimate D2E/DX2                !
 ! R5    R(51,291)               1.0858         estimate D2E/DX2                !
 ! R6    R(52,53)                1.4914         estimate D2E/DX2                !
 ! R7    R(53,54)                1.4013         estimate D2E/DX2                !
 ! R8    R(53,60)                1.3245         estimate D2E/DX2                !
 ! R9    R(54,55)                1.2628         estimate D2E/DX2                !
 ! R10   R(54,56)                1.3614         estimate D2E/DX2                !
 ! R11   R(55,389)               1.4723         estimate D2E/DX2                !
 ! R12   R(56,57)                1.341          estimate D2E/DX2                !
 ! R13   R(56,292)               1.0315         estimate D2E/DX2                !
 ! R14   R(57,58)                1.3483         estimate D2E/DX2                !
 ! R15   R(57,59)                1.38           estimate D2E/DX2                !
 ! R16   R(58,293)               1.0417         estimate D2E/DX2                !
 ! R17   R(58,294)               0.9986         estimate D2E/DX2                !
 ! R18   R(59,60)                1.3519         estimate D2E/DX2                !
 ! R19   R(80,81)                1.4911         estimate D2E/DX2                !
 ! R20   R(81,82)                1.5056         estimate D2E/DX2                !
 ! R21   R(81,89)                1.3604         estimate D2E/DX2                !
 ! R22   R(82,83)                1.3307         estimate D2E/DX2                !
 ! R23   R(82,84)                1.3344         estimate D2E/DX2                !
 ! R24   R(83,365)               1.5128         estimate D2E/DX2                !
 ! R25   R(84,85)                1.3171         estimate D2E/DX2                !
 ! R26   R(84,309)               0.941          estimate D2E/DX2                !
 ! R27   R(85,86)                1.2944         estimate D2E/DX2                !
 ! R28   R(85,87)                1.4424         estimate D2E/DX2                !
 ! R29   R(86,367)               1.5041         estimate D2E/DX2                !
 ! R30   R(86,451)               1.7509         estimate D2E/DX2                !
 ! R31   R(87,88)                1.5693         estimate D2E/DX2                !
 ! R32   R(87,89)                1.3772         estimate D2E/DX2                !
 ! R33   R(88,310)               1.0767         estimate D2E/DX2                !
 ! R34   R(88,311)               1.0701         estimate D2E/DX2                !
 ! R35   R(88,312)               1.0706         estimate D2E/DX2                !
 ! R36   R(89,308)               1.0798         estimate D2E/DX2                !
 ! R37   R(176,177)              1.4919         estimate D2E/DX2                !
 ! R38   R(177,178)              1.367          estimate D2E/DX2                !
 ! R39   R(177,186)              1.3884         estimate D2E/DX2                !
 ! R40   R(178,179)              1.3063         estimate D2E/DX2                !
 ! R41   R(178,364)              1.0766         estimate D2E/DX2                !
 ! R42   R(179,180)              1.4628         estimate D2E/DX2                !
 ! R43   R(180,181)              1.3543         estimate D2E/DX2                !
 ! R44   R(180,186)              1.3423         estimate D2E/DX2                !
 ! R45   R(181,182)              1.2975         estimate D2E/DX2                !
 ! R46   R(181,183)              1.2785         estimate D2E/DX2                !
 ! R47   R(182,366)              0.9971         estimate D2E/DX2                !
 ! R48   R(182,367)              1.0556         estimate D2E/DX2                !
 ! R49   R(183,184)              1.2736         estimate D2E/DX2                !
 ! R50   R(183,309)              1.4371         estimate D2E/DX2                !
 ! R51   R(184,185)              1.3928         estimate D2E/DX2                !
 ! R52   R(184,201)              3.2889         estimate D2E/DX2                !
 ! R53   R(184,365)              1.1229         estimate D2E/DX2                !
 ! R54   R(185,186)              1.3979         estimate D2E/DX2                !
 ! R55   R(198,199)              1.4684         estimate D2E/DX2                !
 ! R56   R(199,200)              1.4657         estimate D2E/DX2                !
 ! R57   R(199,207)              1.3335         estimate D2E/DX2                !
 ! R58   R(199,388)              3.5507         estimate D2E/DX2                !
 ! R59   R(200,201)              1.2585         estimate D2E/DX2                !
 ! R60   R(200,202)              1.3359         estimate D2E/DX2                !
 ! R61   R(201,365)              3.2357         estimate D2E/DX2                !
 ! R62   R(202,203)              1.3406         estimate D2E/DX2                !
 ! R63   R(202,223)              3.562          estimate D2E/DX2                !
 ! R64   R(202,376)              1.0            estimate D2E/DX2                !
 ! R65   R(203,204)              1.2583         estimate D2E/DX2                !
 ! R66   R(203,205)              1.406          estimate D2E/DX2                !
 ! R67   R(203,223)              3.5119         estimate D2E/DX2                !
 ! R68   R(204,389)              3.4616         estimate D2E/DX2                !
 ! R69   R(205,206)              1.5394         estimate D2E/DX2                !
 ! R70   R(205,207)              1.3561         estimate D2E/DX2                !
 ! R71   R(206,377)              1.0703         estimate D2E/DX2                !
 ! R72   R(206,378)              1.0702         estimate D2E/DX2                !
 ! R73   R(206,379)              1.0694         estimate D2E/DX2                !
 ! R74   R(207,375)              1.0699         estimate D2E/DX2                !
 ! R75   R(217,218)              1.529          estimate D2E/DX2                !
 ! R76   R(218,219)              1.5528         estimate D2E/DX2                !
 ! R77   R(218,225)              1.3427         estimate D2E/DX2                !
 ! R78   R(219,220)              1.2816         estimate D2E/DX2                !
 ! R79   R(219,221)              1.3626         estimate D2E/DX2                !
 ! R80   R(220,293)              1.4884         estimate D2E/DX2                !
 ! R81   R(221,222)              1.3236         estimate D2E/DX2                !
 ! R82   R(221,292)              1.5331         estimate D2E/DX2                !
 ! R83   R(222,223)              1.3459         estimate D2E/DX2                !
 ! R84   R(222,224)              1.4233         estimate D2E/DX2                !
 ! R85   R(223,389)              1.0315         estimate D2E/DX2                !
 ! R86   R(223,390)              0.9904         estimate D2E/DX2                !
 ! R87   R(224,225)              1.3583         estimate D2E/DX2                !
 ! R88   R(224,388)              1.0779         estimate D2E/DX2                !
 ! R89   R(225,387)              1.0821         estimate D2E/DX2                !
 ! R90   R(376,389)              3.557          estimate D2E/DX2                !
 ! R91   R(421,423)              1.2509         estimate D2E/DX2                !
 ! R92   R(421,427)              1.8717         estimate D2E/DX2                !
 ! R93   R(421,452)              1.349          estimate D2E/DX2                !
 ! R94   R(422,423)              1.4535         estimate D2E/DX2                !
 ! R95   R(422,454)              1.3419         estimate D2E/DX2                !
 ! R96   R(422,456)              1.473          estimate D2E/DX2                !
 ! R97   R(423,424)              1.5109         estimate D2E/DX2                !
 ! R98   R(424,425)              1.4342         estimate D2E/DX2                !
 ! R99   R(424,470)              1.3491         estimate D2E/DX2                !
 ! R100  R(425,427)              1.8608         estimate D2E/DX2                !
 ! R101  R(426,460)              1.4049         estimate D2E/DX2                !
 ! R102  R(426,468)              1.4003         estimate D2E/DX2                !
 ! R103  R(426,470)              1.5439         estimate D2E/DX2                !
 ! R104  R(427,446)              1.8716         estimate D2E/DX2                !
 ! R105  R(427,447)              1.8798         estimate D2E/DX2                !
 ! R106  R(428,430)              1.4087         estimate D2E/DX2                !
 ! R107  R(428,436)              1.3976         estimate D2E/DX2                !
 ! R108  R(428,449)              1.5419         estimate D2E/DX2                !
 ! R109  R(429,431)              1.5408         estimate D2E/DX2                !
 ! R110  R(429,437)              1.3989         estimate D2E/DX2                !
 ! R111  R(429,447)              1.336          estimate D2E/DX2                !
 ! R112  R(430,431)              1.4024         estimate D2E/DX2                !
 ! R113  R(430,440)              1.0704         estimate D2E/DX2                !
 ! R114  R(431,446)              1.2847         estimate D2E/DX2                !
 ! R115  R(432,433)              1.4106         estimate D2E/DX2                !
 ! R116  R(432,445)              1.0693         estimate D2E/DX2                !
 ! R117  R(432,447)              1.3436         estimate D2E/DX2                !
 ! R118  R(433,435)              1.4072         estimate D2E/DX2                !
 ! R119  R(433,444)              1.0692         estimate D2E/DX2                !
 ! R120  R(434,436)              1.3972         estimate D2E/DX2                !
 ! R121  R(434,442)              1.07           estimate D2E/DX2                !
 ! R122  R(434,446)              1.3363         estimate D2E/DX2                !
 ! R123  R(435,437)              1.4002         estimate D2E/DX2                !
 ! R124  R(435,472)              1.5428         estimate D2E/DX2                !
 ! R125  R(436,441)              1.0691         estimate D2E/DX2                !
 ! R126  R(437,443)              1.071          estimate D2E/DX2                !
 ! R127  R(438,439)              1.3467         estimate D2E/DX2                !
 ! R128  R(438,448)              1.3719         estimate D2E/DX2                !
 ! R129  R(445,453)              0.8432         estimate D2E/DX2                !
 ! R130  R(448,449)              1.4388         estimate D2E/DX2                !
 ! R131  R(449,450)              1.0702         estimate D2E/DX2                !
 ! R132  R(449,451)              1.0685         estimate D2E/DX2                !
 ! R133  R(452,453)              1.0704         estimate D2E/DX2                !
 ! R134  R(452,454)              1.4261         estimate D2E/DX2                !
 ! R135  R(454,455)              1.0704         estimate D2E/DX2                !
 ! R136  R(456,457)              1.0712         estimate D2E/DX2                !
 ! R137  R(456,458)              1.0696         estimate D2E/DX2                !
 ! R138  R(456,459)              1.07           estimate D2E/DX2                !
 ! R139  R(460,461)              1.0706         estimate D2E/DX2                !
 ! R140  R(460,462)              1.4013         estimate D2E/DX2                !
 ! R141  R(462,463)              1.0707         estimate D2E/DX2                !
 ! R142  R(462,464)              1.4001         estimate D2E/DX2                !
 ! R143  R(464,465)              1.0706         estimate D2E/DX2                !
 ! R144  R(464,466)              1.4023         estimate D2E/DX2                !
 ! R145  R(466,467)              1.0698         estimate D2E/DX2                !
 ! R146  R(466,468)              1.4035         estimate D2E/DX2                !
 ! R147  R(468,469)              1.0691         estimate D2E/DX2                !
 ! R148  R(470,471)              1.0693         estimate D2E/DX2                !
 ! R149  R(472,473)              1.0696         estimate D2E/DX2                !
 ! R150  R(472,474)              1.0711         estimate D2E/DX2                !
 ! R151  R(472,475)              1.07           estimate D2E/DX2                !
 ! A1    A(49,50,51)           123.787          estimate D2E/DX2                !
 ! A2    A(49,50,60)           127.3563         estimate D2E/DX2                !
 ! A3    A(51,50,60)           108.8473         estimate D2E/DX2                !
 ! A4    A(50,51,52)           110.3723         estimate D2E/DX2                !
 ! A5    A(50,51,291)          124.1694         estimate D2E/DX2                !
 ! A6    A(52,51,291)          125.4563         estimate D2E/DX2                !
 ! A7    A(51,52,53)           104.9948         estimate D2E/DX2                !
 ! A8    A(52,53,54)           132.2535         estimate D2E/DX2                !
 ! A9    A(52,53,60)           106.7863         estimate D2E/DX2                !
 ! A10   A(54,53,60)           120.9602         estimate D2E/DX2                !
 ! A11   A(53,54,55)           124.3567         estimate D2E/DX2                !
 ! A12   A(53,54,56)           118.2683         estimate D2E/DX2                !
 ! A13   A(55,54,56)           117.3741         estimate D2E/DX2                !
 ! A14   A(54,55,389)          119.9181         estimate D2E/DX2                !
 ! A15   A(54,56,57)           119.7419         estimate D2E/DX2                !
 ! A16   A(54,56,292)          121.1843         estimate D2E/DX2                !
 ! A17   A(57,56,292)          119.055          estimate D2E/DX2                !
 ! A18   A(56,57,58)           117.2019         estimate D2E/DX2                !
 ! A19   A(56,57,59)           121.2602         estimate D2E/DX2                !
 ! A20   A(58,57,59)           121.5363         estimate D2E/DX2                !
 ! A21   A(57,58,293)          121.2239         estimate D2E/DX2                !
 ! A22   A(57,58,294)          118.9568         estimate D2E/DX2                !
 ! A23   A(293,58,294)         119.8192         estimate D2E/DX2                !
 ! A24   A(57,59,60)           118.9218         estimate D2E/DX2                !
 ! A25   A(50,60,53)           108.986          estimate D2E/DX2                !
 ! A26   A(50,60,59)           130.4484         estimate D2E/DX2                !
 ! A27   A(53,60,59)           120.5639         estimate D2E/DX2                !
 ! A28   A(80,81,82)           124.5183         estimate D2E/DX2                !
 ! A29   A(80,81,89)           117.5754         estimate D2E/DX2                !
 ! A30   A(82,81,89)           117.8795         estimate D2E/DX2                !
 ! A31   A(81,82,83)           127.8476         estimate D2E/DX2                !
 ! A32   A(81,82,84)           116.4359         estimate D2E/DX2                !
 ! A33   A(83,82,84)           115.6968         estimate D2E/DX2                !
 ! A34   A(82,83,365)          116.0267         estimate D2E/DX2                !
 ! A35   A(82,84,85)           125.5861         estimate D2E/DX2                !
 ! A36   A(82,84,309)          116.0849         estimate D2E/DX2                !
 ! A37   A(85,84,309)          118.3102         estimate D2E/DX2                !
 ! A38   A(84,85,86)           115.4107         estimate D2E/DX2                !
 ! A39   A(84,85,87)           118.3735         estimate D2E/DX2                !
 ! A40   A(86,85,87)           126.2145         estimate D2E/DX2                !
 ! A41   A(85,86,367)          120.7504         estimate D2E/DX2                !
 ! A42   A(85,86,451)           87.0574         estimate D2E/DX2                !
 ! A43   A(367,86,451)         100.0671         estimate D2E/DX2                !
 ! A44   A(85,87,88)           123.248          estimate D2E/DX2                !
 ! A45   A(85,87,89)           118.7594         estimate D2E/DX2                !
 ! A46   A(88,87,89)           117.9793         estimate D2E/DX2                !
 ! A47   A(87,88,310)          109.363          estimate D2E/DX2                !
 ! A48   A(87,88,311)          110.182          estimate D2E/DX2                !
 ! A49   A(87,88,312)          109.6707         estimate D2E/DX2                !
 ! A50   A(310,88,311)         109.0831         estimate D2E/DX2                !
 ! A51   A(310,88,312)         109.147          estimate D2E/DX2                !
 ! A52   A(311,88,312)         109.3753         estimate D2E/DX2                !
 ! A53   A(81,89,87)           121.5054         estimate D2E/DX2                !
 ! A54   A(81,89,308)          119.3254         estimate D2E/DX2                !
 ! A55   A(87,89,308)          119.1686         estimate D2E/DX2                !
 ! A56   A(176,177,178)        121.696          estimate D2E/DX2                !
 ! A57   A(176,177,186)        129.8244         estimate D2E/DX2                !
 ! A58   A(178,177,186)        108.4781         estimate D2E/DX2                !
 ! A59   A(177,178,179)        111.5241         estimate D2E/DX2                !
 ! A60   A(177,178,364)        124.7098         estimate D2E/DX2                !
 ! A61   A(179,178,364)        123.7656         estimate D2E/DX2                !
 ! A62   A(178,179,180)        104.589          estimate D2E/DX2                !
 ! A63   A(179,180,181)        129.1496         estimate D2E/DX2                !
 ! A64   A(179,180,186)        109.3125         estimate D2E/DX2                !
 ! A65   A(181,180,186)        121.5339         estimate D2E/DX2                !
 ! A66   A(180,181,182)        127.4427         estimate D2E/DX2                !
 ! A67   A(180,181,183)        116.4596         estimate D2E/DX2                !
 ! A68   A(182,181,183)        116.0976         estimate D2E/DX2                !
 ! A69   A(181,182,366)        120.0527         estimate D2E/DX2                !
 ! A70   A(181,182,367)        118.3715         estimate D2E/DX2                !
 ! A71   A(366,182,367)        121.5731         estimate D2E/DX2                !
 ! A72   A(181,183,184)        126.3121         estimate D2E/DX2                !
 ! A73   A(181,183,309)        122.6699         estimate D2E/DX2                !
 ! A74   A(184,183,309)        111.0165         estimate D2E/DX2                !
 ! A75   A(183,184,185)        120.6641         estimate D2E/DX2                !
 ! A76   A(183,184,201)        115.112          estimate D2E/DX2                !
 ! A77   A(183,184,365)        103.7686         estimate D2E/DX2                !
 ! A78   A(185,184,201)         82.4675         estimate D2E/DX2                !
 ! A79   A(185,184,365)        135.5488         estimate D2E/DX2                !
 ! A80   A(184,185,186)        114.1111         estimate D2E/DX2                !
 ! A81   A(177,186,180)        106.0096         estimate D2E/DX2                !
 ! A82   A(177,186,185)        133.8652         estimate D2E/DX2                !
 ! A83   A(180,186,185)        120.1111         estimate D2E/DX2                !
 ! A84   A(198,199,200)        120.1784         estimate D2E/DX2                !
 ! A85   A(198,199,207)        120.4118         estimate D2E/DX2                !
 ! A86   A(198,199,388)         95.7576         estimate D2E/DX2                !
 ! A87   A(200,199,207)        119.4062         estimate D2E/DX2                !
 ! A88   A(200,199,388)         89.9776         estimate D2E/DX2                !
 ! A89   A(207,199,388)         83.6141         estimate D2E/DX2                !
 ! A90   A(199,200,201)        120.2468         estimate D2E/DX2                !
 ! A91   A(199,200,202)        119.5047         estimate D2E/DX2                !
 ! A92   A(201,200,202)        120.2483         estimate D2E/DX2                !
 ! A93   A(184,201,200)        101.8735         estimate D2E/DX2                !
 ! A94   A(200,201,365)        121.3279         estimate D2E/DX2                !
 ! A95   A(200,202,203)        120.1227         estimate D2E/DX2                !
 ! A96   A(200,202,223)        103.1725         estimate D2E/DX2                !
 ! A97   A(200,202,376)        119.928          estimate D2E/DX2                !
 ! A98   A(203,202,376)        119.9492         estimate D2E/DX2                !
 ! A99   A(223,202,376)         89.7822         estimate D2E/DX2                !
 ! A100  A(202,203,204)        119.6617         estimate D2E/DX2                !
 ! A101  A(202,203,205)        120.6565         estimate D2E/DX2                !
 ! A102  A(204,203,205)        119.6818         estimate D2E/DX2                !
 ! A103  A(204,203,223)         87.2759         estimate D2E/DX2                !
 ! A104  A(205,203,223)        101.523          estimate D2E/DX2                !
 ! A105  A(203,204,389)         86.5769         estimate D2E/DX2                !
 ! A106  A(203,205,206)        119.7773         estimate D2E/DX2                !
 ! A107  A(203,205,207)        120.5231         estimate D2E/DX2                !
 ! A108  A(206,205,207)        119.6994         estimate D2E/DX2                !
 ! A109  A(205,206,377)        109.4476         estimate D2E/DX2                !
 ! A110  A(205,206,378)        109.4557         estimate D2E/DX2                !
 ! A111  A(205,206,379)        109.4943         estimate D2E/DX2                !
 ! A112  A(377,206,378)        109.4501         estimate D2E/DX2                !
 ! A113  A(377,206,379)        109.4877         estimate D2E/DX2                !
 ! A114  A(378,206,379)        109.4919         estimate D2E/DX2                !
 ! A115  A(199,207,205)        119.7732         estimate D2E/DX2                !
 ! A116  A(199,207,375)        120.0982         estimate D2E/DX2                !
 ! A117  A(205,207,375)        120.1278         estimate D2E/DX2                !
 ! A118  A(217,218,219)        126.6394         estimate D2E/DX2                !
 ! A119  A(217,218,225)        116.1273         estimate D2E/DX2                !
 ! A120  A(219,218,225)        117.2123         estimate D2E/DX2                !
 ! A121  A(218,219,220)        125.4141         estimate D2E/DX2                !
 ! A122  A(218,219,221)        118.717          estimate D2E/DX2                !
 ! A123  A(220,219,221)        115.8546         estimate D2E/DX2                !
 ! A124  A(219,220,293)        120.2023         estimate D2E/DX2                !
 ! A125  A(219,221,222)        119.6764         estimate D2E/DX2                !
 ! A126  A(219,221,292)        123.3678         estimate D2E/DX2                !
 ! A127  A(222,221,292)        116.9515         estimate D2E/DX2                !
 ! A128  A(221,222,223)        117.5236         estimate D2E/DX2                !
 ! A129  A(221,222,224)        121.6616         estimate D2E/DX2                !
 ! A130  A(223,222,224)        120.8138         estimate D2E/DX2                !
 ! A131  A(202,223,222)         87.0522         estimate D2E/DX2                !
 ! A132  A(202,223,389)         87.4619         estimate D2E/DX2                !
 ! A133  A(202,223,390)         95.1851         estimate D2E/DX2                !
 ! A134  A(203,223,222)        105.7603         estimate D2E/DX2                !
 ! A135  A(203,223,389)         87.2168         estimate D2E/DX2                !
 ! A136  A(203,223,390)         76.3843         estimate D2E/DX2                !
 ! A137  A(222,223,389)        121.6202         estimate D2E/DX2                !
 ! A138  A(222,223,390)        118.9738         estimate D2E/DX2                !
 ! A139  A(389,223,390)        119.4041         estimate D2E/DX2                !
 ! A140  A(222,224,225)        121.3643         estimate D2E/DX2                !
 ! A141  A(222,224,388)        119.8083         estimate D2E/DX2                !
 ! A142  A(225,224,388)        118.8255         estimate D2E/DX2                !
 ! A143  A(218,225,224)        120.5011         estimate D2E/DX2                !
 ! A144  A(218,225,387)        119.6671         estimate D2E/DX2                !
 ! A145  A(224,225,387)        119.8313         estimate D2E/DX2                !
 ! A146  A(83,365,184)         162.4671         estimate D2E/DX2                !
 ! A147  A(83,365,201)         104.9492         estimate D2E/DX2                !
 ! A148  A(202,376,389)         88.1778         estimate D2E/DX2                !
 ! A149  A(199,388,224)         97.943          estimate D2E/DX2                !
 ! A150  A(55,389,204)          84.7732         estimate D2E/DX2                !
 ! A151  A(55,389,376)          90.7788         estimate D2E/DX2                !
 ! A152  A(204,389,223)         93.6157         estimate D2E/DX2                !
 ! A153  A(204,389,376)         41.2343         estimate D2E/DX2                !
 ! A154  A(223,389,376)         89.5659         estimate D2E/DX2                !
 ! A155  A(423,421,427)        114.7577         estimate D2E/DX2                !
 ! A156  A(423,421,452)        110.1297         estimate D2E/DX2                !
 ! A157  A(427,421,452)        135.1057         estimate D2E/DX2                !
 ! A158  A(423,422,454)        104.3651         estimate D2E/DX2                !
 ! A159  A(423,422,456)        127.5653         estimate D2E/DX2                !
 ! A160  A(454,422,456)        127.9038         estimate D2E/DX2                !
[...]
    253          6    10061003      -13.997620   -4.336996    1.839855
    254          8    10081003      -15.208258   -4.326009    2.549755
    255          6    10061003      -13.791580   -3.057231    1.075141
    256          6    10061003      -12.299178   -2.769763    1.241649
    257          7    10071000      -11.603174   -2.873424   -0.041927
    258          6    10061000      -11.356866   -4.001380   -0.752547
    259          7    10071000      -10.739977   -3.711981   -2.008503
    260          6    10061000      -10.652482   -2.295587   -1.998122
    261          6    10061000      -10.190180   -1.455393   -2.998656
    262          8    10081000       -9.694559   -1.970068   -4.190845
    263          7    10071000      -10.251557   -0.165761   -2.802677
    264          6    10061000      -10.774110    0.338434   -1.637545
    265          7    10071000      -10.845659    1.674428   -1.448369
    266          7    10071002      -11.258382   -0.547182   -0.608680
    267          6    10061000      -11.149803   -1.810948   -0.875472
    268          1    10011000       -6.125329    5.601405   -5.347879
    269          1    10011000       -5.299334    3.353706   -5.237144
    270          1    10011000       -7.504859    0.389975   -4.497543
    271          1    10011000       -5.839026    0.939328   -4.881765
    272          1    10011000       -9.743372    6.493024   -4.953177
    273          1    10011000       -8.909830    7.926461   -3.426027
    274          1    10011000       -7.526341    6.802686   -3.129330
    275          1    10011000       -6.128934    7.897727   -4.660925
    276          1    10011000       -8.580083    9.009183   -6.126239
    277          1    10011000       -7.218556    8.691682   -8.110133
    278          1    10011000       -6.253613    9.616968   -6.895511
    279          1    10011000       -5.070653    7.941156   -7.882203
    280          1    10011000       -5.893583    5.681636   -1.786590
    281          1    10011000       -8.383538   -0.101162    0.235681
    282          1    10011000       -9.711641    0.292599    2.180758
    283          1    10011000       -9.900111    1.967440    2.804032
    284          1    10011000       -8.348074    5.924357    1.261437
    285          1    10011000       -6.217533    6.318424    2.166375
    286          1    10011000       -5.462498    6.650859    0.552252
    287          1    10011000       -5.829825    8.865180    0.970751
    288          1    10011000       -8.759544    8.773308    0.662663
    289          1    10011000       -8.322417    9.452769   -1.618529
    290          1    10011000       -7.263947   10.369085   -0.463811
    291          1    10011000       -3.856651    5.259311    1.678529
    292          1    10011000       -4.010870   -1.072235   -0.101034
    293          1    10011000       -4.463718   -2.359555    1.701412
    294          1    10011000       -4.815004   -1.574502    3.256483
    295          1    10011000       -4.926154    2.765465    4.453614
    296          1    10011000       -2.741874    3.336919    5.067895
    297          1    10011000       -2.624264    4.694582    3.888026
    298          1    10011000       -3.302946    6.157002    5.486641
    299          1    10011000       -5.948512    4.814525    5.976500
    300          1    10011000       -6.861725    6.756410    4.866558
    301          1    10011000       -5.627490    7.276609    6.087472
    302          1    10011000        1.965721    2.239010    7.361151
    303          1    10011000        0.608307    3.345544    7.610513
    304          1    10011000        0.867523    1.531815    9.358077
    305          1    10011000       -1.234420    1.750501    9.908604
    306          1    10011000       -2.002134    2.482824    7.040979
    307          1    10011000       -3.097964    2.509567    8.444605
    308          1    10011000        4.025811   -1.619412    5.728225
    309          1    10011000        3.569104   -0.706389    1.082228
    310          1    10011000        5.492829    0.298632    5.920867
    311          1    10011000        4.189590    1.459550    5.676849
    312          1    10011000        5.597764    1.483507    4.620378
    313          1    10011000        2.435124   -4.269905    3.675445
    314          1    10011000        3.985342   -5.471896    4.773914
    315          1    10011000        5.031062   -3.989253    4.804963
    316          1    10011000        4.412451   -3.481516    7.017006
    317          1    10011000        1.726945   -4.895524    6.778423
    318          1    10011000        0.847857   -2.883469    7.808742
    319          1    10011000        2.242928   -3.523328    8.779877
    320          1    10011000       10.834936   -6.301053    0.856722
    321          1    10011000        9.735087   -1.422006    5.223159
    322          1    10011000       13.715325   -2.477788    1.848533
    323          1    10011000       13.516171   -0.965334    2.790901
    324          1    10011000        8.126735   -5.393940    1.638291
    325          1    10011000        8.730158   -7.720832    1.432978
    326          1    10011000        9.301414   -7.792514    3.159582
    327          1    10011000        7.180705   -8.575088    3.553297
    328          1    10011000        4.877237   -5.041895    1.315020
    329          1    10011000        7.354620   -4.049400   -4.637212
    330          1    10011000        5.786948   -4.887045   -6.231048
    331          1    10011000        4.205171   -5.524890   -5.681994
    332          1    10011000        2.385718   -5.478783   -1.389774
    333          1    10011000        2.576314   -7.520282   -1.951509
    334          1    10011000        4.120563   -7.637679   -1.263153
    335          1    10011000        3.392040   -8.662573    0.654735
    336          1    10011000        2.007050   -9.743578   -0.746008
    337          1    10011000        0.937617   -7.076913    0.955733
    338          1    10011000        1.677096   -6.594527    3.068025
    339          1    10011000        2.039555   -8.310194    2.766141
    340          1    10011000       10.391730    1.869338    1.567027
    341          1    10011000        9.271633   -0.106009    2.306320
    342          1    10011000        8.942739   -3.208839    0.201330
    343          1    10011000        8.528250   -2.422839    1.759089
    344          1    10011000       12.623523    1.940128   -1.262661
    345          1    10011000       11.462319    3.207601   -2.747000
    346          1    10011000        9.897869    2.609174   -2.067370
    347          1    10011000        9.646489    4.412728   -0.646242
    348          1    10011000       12.668942    4.872515   -0.493520
    349          1    10011000       11.040260    6.272600    0.835792
    350          1    10011000       10.419240    4.786558    1.637519
    351          1    10011000       12.386850    4.476696    2.572641
    352          1    10011000        7.299789    3.157483   -2.090118
    353          1    10011000        6.488483   -1.586057   -0.948106
    354          1    10011000        7.213571    3.799039    0.163409
    355          1    10011000        6.040607    2.811829    1.106642
    356          1    10011000        7.815736    2.526792    1.286379
    357          1    10011000        7.279049    0.733101   -4.937465
    358          1    10011000        5.365200    2.047655   -5.257516
    359          1    10011000        5.756876    3.153857   -3.913179
    360          1    10011000        6.612217    4.537190   -5.430701
    361          1    10011000        9.014668    3.085510   -6.221543
    362          1    10011000       10.113588    4.357561   -4.510442
    363          1    10011000        8.952568    5.413403   -5.412273
    364          1    10011000        3.007361    1.476045   -5.283677
    365          1    10011000        3.214214   -2.489466   -0.004413
    366          1    10011000        3.356861    2.481164   -0.641175
    367          1    10011000        3.742575    1.468222    0.795045
    368          1    10011000        2.966076   -2.315352   -5.152366
    369          1    10011000        1.762572   -1.078292   -6.801386
    370          1    10011000        3.061700    0.147858   -7.005157
    371          1    10011000        3.609208   -1.400983   -8.774123
    372          1    10011000        5.469256   -2.779753   -7.279901
    373          1    10011000        6.965140   -1.003169   -7.272604
    374          1    10011000        5.938222   -0.753075   -8.741020
    375          1    10011000        0.146090   -2.456217   -6.003610
    376          1    10011000       -0.294759   -0.543088   -1.565972
    377          1    10011000       -1.032756   -0.502338   -6.893495
    378          1    10011000       -1.407242    0.854146   -5.834101
    379          1    10011000        0.232453    0.628507   -6.424324
    380          1    10011000        1.309863   -4.538797   -3.250129
    381          1    10011000       -0.676689   -5.672244   -3.270663
    382          1    10011000       -1.407562   -4.578556   -4.531649
    383          1    10011000       -0.864738   -5.960631   -6.202208
    384          1    10011000        2.001170   -6.321556   -5.391904
    385          1    10011000        2.469753   -5.597519   -7.589568
    386          1    10011000        1.010597   -6.578206   -7.740335
    387          1    10011000       -2.985421   -5.543855   -2.978098
    388          1    10011000       -3.213020   -3.358457   -4.037963
    389          1    10011000       -3.793083   -0.232135   -2.178385
    390          1    10011000       -3.769604   -1.024892   -3.752951
    391          1    10011000       -3.521700   -6.146529    0.622816
    392          1    10011000       -5.389951   -7.104713   -0.383845
    393          1    10011000       -4.742828   -6.946154   -2.058232
    394          1    10011000       -4.063458   -9.153804   -1.796073
    395          1    10011000       -1.737398   -8.667923   -0.192271
    396          1    10011000       -0.581739   -8.172676   -2.296634
    397          1    10011000       -1.681917   -9.606696   -2.444907
    398          1    10011000       -7.681399   -6.273107   -0.574686
    399          1    10011000       -7.342115   -5.363172   -2.762711
    400          1    10011000       -6.678515   -1.705744   -3.377962
    401          1    10011000       -6.801640   -3.333325   -4.128238
    402          1    10011000       -7.360339   -4.286762    2.570190
    403          1    10011000       -9.422429   -5.093495    2.974002
    404          1    10011000       -9.726604   -5.285853    1.199207
    405          1    10011000       -9.039163   -7.513266    1.176022
    406          1    10011000       -7.286210   -7.002001    3.642778
    407          1    10011000       -5.711566   -8.458416    2.502990
    408          1    10011000       -7.295887   -9.299640    2.736792
    409          1    10011000      -11.622535   -4.997299   -0.423330
    410          1    10011000       -9.913097    0.481985   -3.548909
    411          1    10011000      -10.492239    2.340895   -2.170002
    412          1    10011000      -11.245278    2.061004   -0.564563
    413          1    10011000      -12.168586   -1.741861    1.647005
    414          1    10011000      -14.384237   -2.230118    1.526680
    415          1    10011000      -14.092523   -3.174403    0.010492
    416          1    10011000      -13.956862   -5.203293    1.138638
    417          1    10011000      -15.927131   -4.468236    1.880055
    418          1    10011000      -13.071730   -3.769249    3.713019
    419          1    10011000      -11.560207   -5.648182    3.950141
    420          1    10011000      -13.261766   -6.234003    3.727213
    421          7    10071000        2.811801    9.514882   -0.236934
    422          7    10071000        3.041133   11.717970   -0.116150
    423          6    10061002        2.884820   10.480751    0.591955
    424          6    10061002        2.795634   10.110844    2.045056
    425          8    10081003        2.781177    8.707167    2.208394
    426          6    10061000        2.708048   10.738904    4.566182
    427         29    10291003        2.478424    7.840736    0.572245
    428          6    10061000        1.653741    3.587871    2.252118
    429          6    10061000        2.149753    5.614855   -0.972393
    430          6    10061000        1.843168    3.858117    0.892220
    431          6    10061000        2.029958    5.172061    0.481562
    432          6    10061000        2.337525    7.515164   -2.310594
    433          6    10061000        2.274322    6.721595   -3.470468
    434          6    10061000        1.914199    5.947290    2.659064
    435          6    10061000        2.167644    5.323988   -3.357074
    436          6    10061000        1.675653    4.654914    3.157000
    437          6    10061000        2.097984    4.759495   -2.077688
    438          7    10071000        1.128771    2.261016    4.884118
    439          6    10061000        0.380359    1.972950    5.977498
    440          1    10011000        1.850974    3.057897    0.176168
    441          1    10011000        1.522702    4.489703    4.209737
    442          1    10011000        1.961403    6.787230    3.328117
    443          1    10011000        2.007229    3.692951   -1.952963
    444          1    10011000        2.311326    7.181039   -4.443355
    445          1    10011000        2.429499    8.606217   -2.361166
    446          7    10071000        2.102944    6.146085    1.342604
    447          7    10071000        2.303660    6.936481   -1.101277
    448          8    10081003        0.571968    1.864518    3.712668
    449          6    10061003        1.446304    2.112416    2.612726
    450          1    10011000        1.037103    1.632430    1.738397
    451          1    10011000        2.423650    1.722465    2.835960
    452          6    10061000        2.980238    9.971821   -1.501325
    453          1    10011000        2.995495    9.342338   -2.391136
    454          6    10061000        3.120796   11.373099   -1.421496
    455          1    10011000        3.268006   12.053690   -2.241858
    456          6    10061003        3.190450   13.056808    0.466185
    457          1    10011000        2.302875   13.308709    1.026757
    458          1    10011000        4.046183   13.070573    1.122984
    459          1    10011000        3.331178   13.775169   -0.325568
    460          6    10061000        2.770538    9.447810    5.128469
    461          1    10011000        2.843037    8.591580    4.494042
    462          6    10061000        2.742957    9.273295    6.518043
    463          1    10011000        2.795237    8.280473    6.934485
    464          6    10061000        2.649605   10.379387    7.366624
    465          1    10011000        2.627092   10.242687    8.435269
    466          6    10061000        2.588149   11.664707    6.820535
    467          1    10011000        2.517572   12.520934    7.469619
    468          6    10061000        2.618866   11.841092    5.431592
    469          1    10011000        2.572442   12.835157    5.020987
    470          6    10061002        2.735609   11.030863    3.050707
    471          1    10011000        2.704230   12.065732    2.760021
    472          6    10061003        2.122853    4.435994   -4.607849
    473          1    10011000        2.549975    3.471623   -4.381203
    474          1    10011000        1.098028    4.307053   -4.924090
    475          1    10011000        2.685364    4.901419   -5.402411
    476          1    10011000       -0.542700    1.423380    5.843539
    477          8    10081003       -1.916856    0.288726    8.699913
    478          1    10011000       -2.013614    0.100828    7.729246
    479          6    10061003        6.837183   -6.374107    3.799655
    480          1    10011000        5.926856   -5.875744    3.408957
    481          6    10061003        6.607549   -6.713883    5.281789
    482          1    10011000        5.654938   -7.288703    5.348348
    483          1    10011000        7.439452   -7.350930    5.653921
 ---------------------------------------------------------------------
 Rotational constants (GHZ):           0.0023025           0.0018567           0.0015158
 ONIOM: saving gridpoint 17
 ONIOM: restoring gridpoint  3
 ONIOM: restoring gridpoint  3 on chk file.
 ONIOM: generating point  3 -- low level on real system.
 Standard basis: Dummy (5D, 7F)
 There are   483 symmetry adapted cartesian basis functions of A   symmetry.
 There are   483 symmetry adapted basis functions of A   symmetry.
   483 basis functions,   483 primitive gaussians,   483 cartesian basis functions
   360 alpha electrons      359 beta electrons
       nuclear repulsion energy     13927.7800906825 Hartrees.
 NAtoms=  483 NActive=  483 NUniq=  483 SFac= 1.00D+00 NAtFMM=   60 NAOKFM=T Big=T
 Integral buffers will be    131072 words long.
 Raffenetti 2 integral format.
 Two-electron integral symmetry is turned on.
 UFF calculation of energy and first derivatives.
 Energy=     8.23520359     NIter=   0.
 Dipole moment=       0.000000       0.000000       0.000000
 ***** Axes restored to original set *****
 Cartesian Forces:  Max     6.654578577 RMS     0.336168954
 ONIOM: saving gridpoint  3
 ONIOM: restoring gridpoint  2
 ONIOM: restoring gridpoint  2 on chk file.
 ONIOM: generating point  2 -- high level on model system.
 Standard basis: def2SVP (5D, 7F)
 There are  1456 symmetry adapted cartesian basis functions of A   symmetry.
 There are  1373 symmetry adapted basis functions of A   symmetry.
  1373 basis functions,  2381 primitive gaussians,  1456 cartesian basis functions
   292 alpha electrons      292 beta electrons
       nuclear repulsion energy     14384.0026023967 Hartrees.
 NAtoms=  483 NActive=  129 NUniq=  129 SFac= 1.00D+00 NAtFMM=   60 NAOKFM=T Big=T
 Integral buffers will be    131072 words long.
 Raffenetti 2 integral format.
 Two-electron integral symmetry is turned on.
 Nuclear repulsion after empirical dispersion term =    14383.6800731805 Hartrees.
 One-electron integrals computed using PRISM.
   1 Symmetry operations used in ECPInt.
 ECPInt:  NShTT=  198135 NPrTT=  739924 LenC2=  118474 LenP2D=  257874.
 LDataN:  DoStor=T MaxTD1= 6 Len=  172
 Number of processors reduced to  50 by ecpmxn.
 NBasis=  1373 RedAO= T EigKep=  3.04D-04  NBF=  1373
 NBsUse=  1373 1.00D-06 EigRej= -1.00D+00 NBFU=  1373
 Initial guess from the checkpoint file:  "dna_system_qmmm_3bp_hbond_cleaned_b3lypd3_uff.chk"
 B after Tr=    -0.013660    0.049287   -0.048595
         Rot=    0.998392    0.038679    0.010055   -0.040205 Ang=   6.50 deg.
 Initial guess <Sx>= 0.0000 <Sy>= 0.0000 <Sz>= 0.0000 <S**2>= 0.0000 S= 0.0000
 ExpMin= 3.30D-02 ExpMax= 7.64D+04 ExpMxC= 1.15D+04 IAcc=3 IRadAn=         5 AccDes= 0.00D+00
 Harris functional with IExCor=  402 and IRadAn=       5 diagonalized for initial guess.
 HarFok:  IExCor=  402 AccDes= 0.00D+00 IRadAn=         5 IDoV= 1 UseB2=F ITyADJ=14
 ICtDFT=  3500011 ScaDFX=  1.000000  1.000000  1.000000  1.000000
 FoFCou: FMM=F IPFlag=           0 FMFlag=      100000 FMFlg1=        2001
         NFxFlg=           0 DoJE=T BraDBF=F KetDBF=T FulRan=T
         wScrn=  0.000000 ICntrl=       500 IOpCl=  0 I1Cent=   200000004 NGrid=           0
         NMat0=    1 NMatS0=      1 NMatT0=    0 NMatD0=    1 NMtDS0=    0 NMtDT0=    0
 Petite list used in FoFCou.
 Requested convergence on RMS density matrix=1.00D-08 within  32 cycles.
 Requested convergence on MAX density matrix=1.00D-06.
 Requested convergence on             energy=1.00D-06.
 No special actions if energy rises.
