1
he.xyz    Empirical formula: He    Energy(Hartree): -2.915130    
He       0.0000000000    0.0000000000    0.0000000000
