 Entering Gaussian System, Link 0=/home/users/astar/bmsi/zhangx5/programs/g16/g16
 Input=/home/users/astar/bmsi/zhangx5/scratch/Fe1LBr_quartet_add_ts_c3_quintet_modred_ts_qrcf_prd/Fe1LBr_quartet_add_ts_c3_quintet_modred_ts_qrcf_prd.com
 Output=/home/users/astar/bmsi/zhangx5/scratch/Fe1LBr_quartet_add_ts_c3_quintet_modred_ts_qrcf_prd/Fe1LBr_quartet_add_ts_c3_quintet_modred_ts_qrcf_prd.log
 Initial command:
 /home/users/astar/bmsi/zhangx5/programs/g16/l1.exe "/scratch/users/astar/bmsi/zhangx5/Fe1LBr_quartet_add_ts_c3_quintet_modred_ts_qrcf_prd/Gau-902664.inp" -scrdir="/scratch/users/astar/bmsi/zhangx5/Fe1LBr_quartet_add_ts_c3_quintet_modred_ts_qrcf_prd/"
 Entering Link 1 = /home/users/astar/bmsi/zhangx5/programs/g16/l1.exe PID=    902666.

 Copyright (c) 1988-2017, Gaussian, Inc.  All Rights Reserved.

 This is part of the Gaussian(R) 16 program.  It is based on
 the Gaussian(R) 09 system (copyright 2009, Gaussian, Inc.),
 the Gaussian(R) 03 system (copyright 2003, Gaussian, Inc.),
 the Gaussian(R) 98 system (copyright 1998, Gaussian, Inc.),
 the Gaussian(R) 94 system (copyright 1995, Gaussian, Inc.),
 the Gaussian 92(TM) system (copyright 1992, Gaussian, Inc.),
 the Gaussian 90(TM) system (copyright 1990, Gaussian, Inc.),
 the Gaussian 88(TM) system (copyright 1988, Gaussian, Inc.),
 the Gaussian 86(TM) system (copyright 1986, Carnegie Mellon
 University), and the Gaussian 82(TM) system (copyright 1983,
 Carnegie Mellon University). Gaussian is a federally registered
 trademark of Gaussian, Inc.

 This software contains proprietary and confidential information,
 including trade secrets, belonging to Gaussian, Inc.

 This software is provided under written license and may be
 used, copied, transmitted, or stored only in accord with that
 written license.

 The following legend is applicable only to US Government
 contracts under FAR:

                    RESTRICTED RIGHTS LEGEND

 Use, reproduction and disclosure by the US Government is
 subject to restrictions as set forth in subparagraphs (a)
 and (c) of the Commercial Computer Software - Restricted
 Rights clause in FAR 52.227-19.

 Gaussian, Inc.
 340 Quinnipiac St., Bldg. 40, Wallingford CT 06492


 ---------------------------------------------------------------
 Warning -- This program may not be used in any manner that
 competes with the business of Gaussian, Inc. or will provide
 assistance to any competitor of Gaussian, Inc.  The licensee
 of this program is prohibited from giving any competitor of
 Gaussian, Inc. access to this program.  By using this program,
 the user acknowledges that Gaussian, Inc. is engaged in the
 business of creating and licensing software in the field of
 computational chemistry and represents and warrants to the
 licensee that it is not a competitor of Gaussian, Inc. and that
 it will not use this program in any manner prohibited above.
 ---------------------------------------------------------------


 Cite this work as:
 Gaussian 16, Revision B.01,
 M. J. Frisch, G. W. Trucks, H. B. Schlegel, G. E. Scuseria,
 M. A. Robb, J. R. Cheeseman, G. Scalmani, V. Barone,
 G. A. Petersson, H. Nakatsuji, X. Li, M. Caricato, A. V. Marenich,
 J. Bloino, B. G. Janesko, R. Gomperts, B. Mennucci, H. P. Hratchian,
 J. V. Ortiz, A. F. Izmaylov, J. L. Sonnenberg, D. Williams-Young,
 F. Ding, F. Lipparini, F. Egidi, J. Goings, B. Peng, A. Petrone,
 T. Henderson, D. Ranasinghe, V. G. Zakrzewski, J. Gao, N. Rega,
 G. Zheng, W. Liang, M. Hada, M. Ehara, K. Toyota, R. Fukuda,
 J. Hasegawa, M. Ishida, T. Nakajima, Y. Honda, O. Kitao, H. Nakai,
 T. Vreven, K. Throssell, J. A. Montgomery, Jr., J. E. Peralta,
 F. Ogliaro, M. J. Bearpark, J. J. Heyd, E. N. Brothers, K. N. Kudin,
 V. N. Staroverov, T. A. Keith, R. Kobayashi, J. Normand,
 K. Raghavachari, A. P. Rendell, J. C. Burant, S. S. Iyengar,
 J. Tomasi, M. Cossi, J. M. Millam, M. Klene, C. Adamo, R. Cammi,
 J. W. Ochterski, R. L. Martin, K. Morokuma, O. Farkas,
 J. B. Foresman, and D. J. Fox, Gaussian, Inc., Wallingford CT, 2016.

 ******************************************
 Gaussian 16:  ES64L-G16RevB.01 20-Dec-2017
                29-Feb-2024
 ******************************************
 %chk=Fe1LBr_quartet_add_ts_c3_quintet_modred_ts_qrcf_prd.chk
 %nprocshared=64
 Will use up to   64 processors via shared memory.
 %mem=64GB
 ----------------------------------------------------------
 # opt freq b3lyp empiricaldispersion=gd3bj def2svp scf=xqc
 ----------------------------------------------------------
 1/18=20,19=15,26=3,38=1/1,3;
 2/9=110,12=2,17=6,18=5,40=1/2;
 3/5=43,7=101,11=2,25=1,30=1,71=1,74=-5,124=41/1,2,3;
 4//1;
 5/5=2,8=3,13=1,38=5/2,8;
 6/7=2,8=2,9=2,10=2,28=1/1;
 7//1,2,3,16;
 1/18=20,19=15,26=3/3(2);
 2/9=110/2;
 99//99;
 2/9=110/2;
 3/5=43,7=101,11=2,25=1,30=1,71=1,74=-5,124=41/1,2,3;
 4/5=5,16=3,69=1/1;
 5/5=2,8=3,13=1,38=5/2,8;
 7//1,2,3,16;
 1/18=20,19=15,26=3/3(-5);
 2/9=110/2;
 6/7=2,8=2,9=2,10=2,19=2,28=1/1;
 99/9=1/99;
 -----------------------------------------------------------------
 Gaussian job: Fe1LBr_quartet_add_ts_c3_quintet_modred_ts_qrcf_prd
 -----------------------------------------------------------------
 Symbolic Z-matrix:
 Charge =  0 Multiplicity = 5
 Fe                   -1.08489  -2.06768   2.24257
 P                    -2.19417   0.04249  -0.15599
 P                     1.42476  -0.81036   0.17479
 C                    -4.38204   1.57801   0.83031
 H                    -4.30168   1.00062   1.75329
 C                    -5.33275   2.59915   0.72778
 H                    -5.99133   2.8127    1.57326
 C                    -5.43827   3.34468  -0.44817
 H                    -6.17932   4.14386  -0.52563
 C                    -4.58811   3.06861  -1.52576
 H                    -4.6628    3.6519   -2.44667
 C                    -3.63441   2.05544  -1.42675
 H                    -2.95415   1.85554  -2.25973
 C                    -3.52994   1.2987   -0.24616
 C                    -1.91849  -1.94525  -2.11017
 H                    -0.87917  -1.62478  -2.16173
 C                    -2.36237  -2.98815  -2.92723
 H                    -1.65659  -3.48909  -3.59386
 C                    -3.705    -3.37404  -2.90363
 H                    -4.05285  -4.18631  -3.54652
 C                    -4.60834  -2.70543  -2.07042
 H                    -5.6629   -2.99174  -2.06365
 C                    -4.16614  -1.66334  -1.25317
 H                    -4.87689  -1.12941  -0.61834
 C                    -2.81317  -1.28913  -1.25279
 C                     2.38683  -1.46833  -2.37678
 H                     1.82891  -0.59878  -2.71375
 C                     3.09859  -2.24247  -3.29883
 H                     3.09654  -1.95754  -4.35357
 C                     3.80017  -3.3727   -2.87514
 H                     4.35697  -3.97558  -3.59678
 C                     3.78031  -3.73998  -1.52433
 H                     4.32004  -4.62929  -1.18981
 C                     3.06612  -2.97471  -0.60266
 H                     3.04344  -3.27018   0.44839
 C                     2.37466  -1.82424  -1.02125
 C                     2.21535   0.67069   2.39551
 H                     1.14993   0.87929   2.49351
 C                     3.11091   1.21004   3.3184
 H                     2.73769   1.83058   4.13661
 C                     4.48182   0.97187   3.18383
 H                     5.1862    1.4042    3.89843
 C                     4.94792   0.19547   2.12139
 H                     6.01916   0.02696   1.99308
 C                     4.0519   -0.35491   1.20252
 H                     4.43127  -0.93458   0.36005
 C                     2.67657  -0.12354   1.33766
 C                     0.69986  -2.13746   1.20575
 C                     0.92524  -2.40778   2.59393
 H                     1.55712  -1.8217    3.25616
 C                     0.16477  -3.55948   2.95211
 H                     0.10076  -3.99999   3.946
 C                    -0.5327   -4.00926   1.79111
 H                    -1.21894  -4.85274   1.73998
 C                    -0.21414  -3.13036   0.71608
 H                    -0.60163  -3.20279  -0.29682
 C                    -1.67375  -0.1468    2.65659
 H                    -1.01639   0.71848   2.66919
 C                    -1.97866  -0.98238   3.76936
 H                    -1.58164  -0.87269   4.77686
 C                    -2.85767  -2.01227   3.31815
 H                    -3.24552  -2.83136   3.92138
 C                    -3.10213  -1.81303   1.92784
 H                    -3.70054  -2.45161   1.28922
 C                    -2.37549  -0.65333   1.50414
 Fe                   -0.04017   0.94845  -0.7254
 Br                   -0.20465   1.087    -3.12858
 C                     1.91194   3.20857   0.22223
 H                     1.97204   4.17654   0.7569
 C                     0.7221    2.57881   0.1223
 C                    -0.61      3.19426   0.63597
 H                    -1.38743   3.12353  -0.29007
 H                    -1.12151   2.331     1.34883
 C                     3.20338   2.70594  -0.29005
 C                     3.28232   1.80688  -1.37808
 C                     4.41502   3.11944   0.29938
 C                     4.50736   1.30659  -1.81627
 H                     2.36142   1.53572  -1.89495
 C                     5.64109   2.6231   -0.1423
 H                     4.38098   3.82308   1.13515
 C                     5.69609   1.70695  -1.19757
 H                     4.53335   0.60995  -2.65223
 H                     6.56477   2.94737   0.34398
 H                     6.65634   1.31727  -1.54457
 C                    -2.41371   4.94891   1.67535
 H                    -3.01175   4.85561   0.74941
 H                    -2.63558   5.94275   2.12922
 H                    -2.79366   4.17323   2.37102
 C                    -0.91505   4.72519   1.3869
 H                    -0.31837   4.84082   2.34842
 H                    -0.5328    5.57894   0.71968


 GradGradGradGradGradGradGradGradGradGradGradGradGradGradGradGradGradGrad
 Berny optimization.
 Initialization pass.
                           ----------------------------
                           !    Initial Parameters    !
                           ! (Angstroms and Degrees)  !
 --------------------------                            --------------------------
 ! Name  Definition              Value          Derivative Info.                !
 --------------------------------------------------------------------------------
 ! R1    R(1,48)                 2.0652         estimate D2E/DX2                !
 ! R2    R(1,49)                 2.0688         estimate D2E/DX2                !
 ! R3    R(1,51)                 2.0714         estimate D2E/DX2                !
 ! R4    R(1,53)                 2.0684         estimate D2E/DX2                !
 ! R5    R(1,55)                 2.0537         estimate D2E/DX2                !
 ! R6    R(1,57)                 2.0513         estimate D2E/DX2                !
 ! R7    R(1,59)                 2.0755         estimate D2E/DX2                !
 ! R8    R(1,61)                 2.0743         estimate D2E/DX2                !
 ! R9    R(1,63)                 2.0575         estimate D2E/DX2                !
 ! R10   R(1,65)                 2.0521         estimate D2E/DX2                !
 ! R11   R(2,14)                 1.8359         estimate D2E/DX2                !
 ! R12   R(2,25)                 1.8328         estimate D2E/DX2                !
 ! R13   R(2,65)                 1.8092         estimate D2E/DX2                !
 ! R14   R(2,66)                 2.4051         estimate D2E/DX2                !
 ! R15   R(3,36)                 1.8332         estimate D2E/DX2                !
 ! R16   R(3,47)                 1.8415         estimate D2E/DX2                !
 ! R17   R(3,48)                 1.8302         estimate D2E/DX2                !
 ! R18   R(3,66)                 2.4596         estimate D2E/DX2                !
 ! R19   R(4,5)                  1.0917         estimate D2E/DX2                !
 ! R20   R(4,6)                  1.399          estimate D2E/DX2                !
 ! R21   R(4,14)                 1.401          estimate D2E/DX2                !
 ! R22   R(6,7)                  1.0928         estimate D2E/DX2                !
 ! R23   R(6,8)                  1.3963         estimate D2E/DX2                !
 ! R24   R(8,9)                  1.0926         estimate D2E/DX2                !
 ! R25   R(8,10)                 1.4001         estimate D2E/DX2                !
 ! R26   R(10,11)                1.0926         estimate D2E/DX2                !
 ! R27   R(10,12)                1.3949         estimate D2E/DX2                !
 ! R28   R(12,13)                1.0939         estimate D2E/DX2                !
 ! R29   R(12,14)                1.4062         estimate D2E/DX2                !
 ! R30   R(15,16)                1.0888         estimate D2E/DX2                !
 ! R31   R(15,17)                1.3972         estimate D2E/DX2                !
 ! R32   R(15,25)                1.4022         estimate D2E/DX2                !
 ! R33   R(17,18)                1.0925         estimate D2E/DX2                !
 ! R34   R(17,19)                1.3972         estimate D2E/DX2                !
 ! R35   R(19,20)                1.0927         estimate D2E/DX2                !
 ! R36   R(19,21)                1.399          estimate D2E/DX2                !
 ! R37   R(21,22)                1.0928         estimate D2E/DX2                !
 ! R38   R(21,23)                1.3962         estimate D2E/DX2                !
 ! R39   R(23,24)                1.0924         estimate D2E/DX2                !
 ! R40   R(23,25)                1.4038         estimate D2E/DX2                !
 ! R41   R(26,27)                1.0867         estimate D2E/DX2                !
 ! R42   R(26,28)                1.3986         estimate D2E/DX2                !
 ! R43   R(26,36)                1.4015         estimate D2E/DX2                !
 ! R44   R(28,29)                1.0925         estimate D2E/DX2                !
 ! R45   R(28,30)                1.3961         estimate D2E/DX2                !
 ! R46   R(30,31)                1.0928         estimate D2E/DX2                !
 ! R47   R(30,32)                1.4            estimate D2E/DX2                !
 ! R48   R(32,33)                1.0927         estimate D2E/DX2                !
 ! R49   R(32,34)                1.3947         estimate D2E/DX2                !
 ! R50   R(34,35)                1.092          estimate D2E/DX2                !
 ! R51   R(34,36)                1.406          estimate D2E/DX2                !
 ! R52   R(37,38)                1.0901         estimate D2E/DX2                !
 ! R53   R(37,39)                1.3945         estimate D2E/DX2                !
 ! R54   R(37,47)                1.4009         estimate D2E/DX2                !
 ! R55   R(39,40)                1.0926         estimate D2E/DX2                !
 ! R56   R(39,41)                1.3979         estimate D2E/DX2                !
 ! R57   R(41,42)                1.0926         estimate D2E/DX2                !
 ! R58   R(41,43)                1.396          estimate D2E/DX2                !
 ! R59   R(43,44)                1.092          estimate D2E/DX2                !
 ! R60   R(43,45)                1.3965         estimate D2E/DX2                !
 ! R61   R(45,46)                1.0907         estimate D2E/DX2                !
 ! R62   R(45,47)                1.4012         estimate D2E/DX2                !
 ! R63   R(48,49)                1.4321         estimate D2E/DX2                !
 ! R64   R(48,55)                1.4356         estimate D2E/DX2                !
 ! R65   R(49,50)                1.0869         estimate D2E/DX2                !
 ! R66   R(49,51)                1.4258         estimate D2E/DX2                !
 ! R67   R(51,52)                1.089          estimate D2E/DX2                !
 ! R68   R(51,53)                1.4271         estimate D2E/DX2                !
 ! R69   R(53,54)                1.0886         estimate D2E/DX2                !
 ! R70   R(53,55)                1.4246         estimate D2E/DX2                !
 ! R71   R(55,56)                1.0869         estimate D2E/DX2                !
 ! R72   R(57,58)                1.0867         estimate D2E/DX2                !
 ! R73   R(57,59)                1.4246         estimate D2E/DX2                !
 ! R74   R(57,65)                1.4412         estimate D2E/DX2                !
 ! R75   R(59,60)                1.0884         estimate D2E/DX2                !
 ! R76   R(59,61)                1.4272         estimate D2E/DX2                !
 ! R77   R(61,62)                1.0887         estimate D2E/DX2                !
 ! R78   R(61,63)                1.4256         estimate D2E/DX2                !
 ! R79   R(63,64)                1.0834         estimate D2E/DX2                !
 ! R80   R(63,65)                1.4326         estimate D2E/DX2                !
 ! R81   R(66,67)                2.4128         estimate D2E/DX2                !
 ! R82   R(66,70)                1.9894         estimate D2E/DX2                !
 ! R83   R(68,69)                1.1075         estimate D2E/DX2                !
 ! R84   R(68,70)                1.3499         estimate D2E/DX2                !
 ! R85   R(68,74)                1.4775         estimate D2E/DX2                !
 ! R86   R(70,71)                1.5547         estimate D2E/DX2                !
 ! R87   R(71,72)                1.2112         estimate D2E/DX2                !
 ! R88   R(71,73)                1.2309         estimate D2E/DX2                !
 ! R89   R(71,89)                1.7323         estimate D2E/DX2                !
 ! R90   R(74,75)                1.4136         estimate D2E/DX2                !
 ! R91   R(74,76)                1.4094         estimate D2E/DX2                !
 ! R92   R(75,77)                1.3939         estimate D2E/DX2                !
 ! R93   R(75,78)                1.0903         estimate D2E/DX2                !
 ! R94   R(76,79)                1.3945         estimate D2E/DX2                !
 ! R95   R(76,80)                1.0931         estimate D2E/DX2                !
 ! R96   R(77,81)                1.3986         estimate D2E/DX2                !
 ! R97   R(77,82)                1.0885         estimate D2E/DX2                !
 ! R98   R(79,81)                1.3986         estimate D2E/DX2                !
 ! R99   R(79,83)                1.0931         estimate D2E/DX2                !
 ! R100  R(81,84)                1.0929         estimate D2E/DX2                !
 ! R101  R(85,86)                1.1062         estimate D2E/DX2                !
 ! R102  R(85,87)                1.1149         estimate D2E/DX2                !
 ! R103  R(85,88)                1.1091         estimate D2E/DX2                !
 ! R104  R(85,89)                1.5425         estimate D2E/DX2                !
 ! R105  R(89,90)                1.1375         estimate D2E/DX2                !
 ! R106  R(89,91)                1.149          estimate D2E/DX2                !
 ! A1    A(48,1,51)             68.054          estimate D2E/DX2                !
 ! A2    A(48,1,53)             68.1612         estimate D2E/DX2                !
 ! A3    A(48,1,57)            112.3984         estimate D2E/DX2                !
 ! A4    A(48,1,59)            139.386          estimate D2E/DX2                !
 ! A5    A(48,1,63)            140.7758         estimate D2E/DX2                !
 ! A6    A(48,1,65)            112.714          estimate D2E/DX2                !
 ! A7    A(49,1,53)             67.8742         estimate D2E/DX2                !
 ! A8    A(49,1,55)             68.2348         estimate D2E/DX2                !
 ! A9    A(49,1,57)            113.4903         estimate D2E/DX2                !
 ! A10   A(49,1,59)            112.2994         estimate D2E/DX2                !
 ! A11   A(49,1,61)            138.3094         estimate D2E/DX2                !
 ! A12   A(49,1,65)            141.7669         estimate D2E/DX2                !
 ! A13   A(51,1,55)             68.0466         estimate D2E/DX2                !
 ! A14   A(51,1,57)            141.119          estimate D2E/DX2                !
 ! A15   A(51,1,59)            112.6072         estimate D2E/DX2                !
 ! A16   A(51,1,61)            110.93           estimate D2E/DX2                !
 ! A17   A(51,1,63)            137.1422         estimate D2E/DX2                !
 ! A18   A(53,1,59)            140.0273         estimate D2E/DX2                !
 ! A19   A(53,1,61)            111.4941         estimate D2E/DX2                !
 ! A20   A(53,1,63)            110.1532         estimate D2E/DX2                !
 ! A21   A(53,1,65)            137.416          estimate D2E/DX2                !
 ! A22   A(55,1,57)            139.1368         estimate D2E/DX2                !
 ! A23   A(55,1,61)            139.6056         estimate D2E/DX2                !
 ! A24   A(55,1,63)            111.4719         estimate D2E/DX2                !
 ! A25   A(55,1,65)            110.8435         estimate D2E/DX2                !
 ! A26   A(57,1,61)             67.9752         estimate D2E/DX2                !
 ! A27   A(57,1,63)             68.5017         estimate D2E/DX2                !
 ! A28   A(59,1,63)             68.0131         estimate D2E/DX2                !
 ! A29   A(59,1,65)             68.4995         estimate D2E/DX2                !
 ! A30   A(61,1,65)             68.3266         estimate D2E/DX2                !
 ! A31   A(14,2,25)            102.8275         estimate D2E/DX2                !
 ! A32   A(14,2,65)            103.6105         estimate D2E/DX2                !
 ! A33   A(14,2,66)            112.4727         estimate D2E/DX2                !
 ! A34   A(25,2,65)            103.6411         estimate D2E/DX2                !
 ! A35   A(25,2,66)            115.7504         estimate D2E/DX2                !
 ! A36   A(65,2,66)            116.8641         estimate D2E/DX2                !
 ! A37   A(36,3,47)            105.4287         estimate D2E/DX2                !
 ! A38   A(36,3,48)             99.8874         estimate D2E/DX2                !
 ! A39   A(36,3,66)            117.7297         estimate D2E/DX2                !
 ! A40   A(47,3,48)            100.6017         estimate D2E/DX2                !
 ! A41   A(47,3,66)            111.6719         estimate D2E/DX2                !
 ! A42   A(48,3,66)            119.2599         estimate D2E/DX2                !
 ! A43   A(5,4,6)              119.8721         estimate D2E/DX2                !
 ! A44   A(5,4,14)             119.9602         estimate D2E/DX2                !
 ! A45   A(6,4,14)             120.1672         estimate D2E/DX2                !
 ! A46   A(4,6,7)              119.7023         estimate D2E/DX2                !
 ! A47   A(4,6,8)              120.1852         estimate D2E/DX2                !
 ! A48   A(7,6,8)              120.1123         estimate D2E/DX2                !
 ! A49   A(6,8,9)              120.0976         estimate D2E/DX2                !
 ! A50   A(6,8,10)             119.8032         estimate D2E/DX2                !
 ! A51   A(9,8,10)             120.0987         estimate D2E/DX2                !
 ! A52   A(8,10,11)            120.1277         estimate D2E/DX2                !
 ! A53   A(8,10,12)            120.2472         estimate D2E/DX2                !
 ! A54   A(11,10,12)           119.6231         estimate D2E/DX2                !
 ! A55   A(10,12,13)           120.2547         estimate D2E/DX2                !
 ! A56   A(10,12,14)           120.083          estimate D2E/DX2                !
 ! A57   A(13,12,14)           119.6555         estimate D2E/DX2                !
 ! A58   A(2,14,4)             122.7648         estimate D2E/DX2                !
 ! A59   A(2,14,12)            117.6146         estimate D2E/DX2                !
 ! A60   A(4,14,12)            119.5121         estimate D2E/DX2                !
 ! A61   A(16,15,17)           119.6849         estimate D2E/DX2                !
 ! A62   A(16,15,25)           120.0194         estimate D2E/DX2                !
 ! A63   A(17,15,25)           120.2741         estimate D2E/DX2                !
 ! A64   A(15,17,18)           119.5943         estimate D2E/DX2                !
 ! A65   A(15,17,19)           120.1028         estimate D2E/DX2                !
 ! A66   A(18,17,19)           120.2971         estimate D2E/DX2                !
 ! A67   A(17,19,20)           120.0837         estimate D2E/DX2                !
 ! A68   A(17,19,21)           119.9038         estimate D2E/DX2                !
 ! A69   A(20,19,21)           120.0054         estimate D2E/DX2                !
 ! A70   A(19,21,22)           120.1057         estimate D2E/DX2                !
 ! A71   A(19,21,23)           120.0527         estimate D2E/DX2                !
 ! A72   A(22,21,23)           119.8397         estimate D2E/DX2                !
 ! A73   A(21,23,24)           119.9278         estimate D2E/DX2                !
 ! A74   A(21,23,25)           120.2902         estimate D2E/DX2                !
 ! A75   A(24,23,25)           119.7791         estimate D2E/DX2                !
 ! A76   A(2,25,15)            119.3663         estimate D2E/DX2                !
 ! A77   A(2,25,23)            121.288          estimate D2E/DX2                !
 ! A78   A(15,25,23)           119.3456         estimate D2E/DX2                !
 ! A79   A(27,26,28)           119.9838         estimate D2E/DX2                !
 ! A80   A(27,26,36)           119.9103         estimate D2E/DX2                !
 ! A81   A(28,26,36)           120.0983         estimate D2E/DX2                !
 ! A82   A(26,28,29)           119.4162         estimate D2E/DX2                !
 ! A83   A(26,28,30)           120.2494         estimate D2E/DX2                !
 ! A84   A(29,28,30)           120.3338         estimate D2E/DX2                !
 ! A85   A(28,30,31)           120.1488         estimate D2E/DX2                !
 ! A86   A(28,30,32)           119.8724         estimate D2E/DX2                !
 ! A87   A(31,30,32)           119.9765         estimate D2E/DX2                !
 ! A88   A(30,32,33)           120.1246         estimate D2E/DX2                !
 ! A89   A(30,32,34)           120.0621         estimate D2E/DX2                !
 ! A90   A(33,32,34)           119.8127         estimate D2E/DX2                !
 ! A91   A(32,34,35)           119.8822         estimate D2E/DX2                !
 ! A92   A(32,34,36)           120.2689         estimate D2E/DX2                !
 ! A93   A(35,34,36)           119.8489         estimate D2E/DX2                !
 ! A94   A(3,36,26)            119.6736         estimate D2E/DX2                !
 ! A95   A(3,36,34)            120.8717         estimate D2E/DX2                !
 ! A96   A(26,36,34)           119.4365         estimate D2E/DX2                !
 ! A97   A(38,37,39)           119.6157         estimate D2E/DX2                !
 ! A98   A(38,37,47)           119.8783         estimate D2E/DX2                !
 ! A99   A(39,37,47)           120.5024         estimate D2E/DX2                !
 ! A100  A(37,39,40)           119.7279         estimate D2E/DX2                !
 ! A101  A(37,39,41)           120.0126         estimate D2E/DX2                !
 ! A102  A(40,39,41)           120.2532         estimate D2E/DX2                !
 ! A103  A(39,41,42)           120.1231         estimate D2E/DX2                !
 ! A104  A(39,41,43)           119.6988         estimate D2E/DX2                !
 ! A105  A(42,41,43)           120.1716         estimate D2E/DX2                !
 ! A106  A(41,43,44)           120.185          estimate D2E/DX2                !
 ! A107  A(41,43,45)           120.3806         estimate D2E/DX2                !
 ! A108  A(44,43,45)           119.4271         estimate D2E/DX2                !
 ! A109  A(43,45,46)           119.638          estimate D2E/DX2                !
 ! A110  A(43,45,47)           120.0831         estimate D2E/DX2                !
 ! A111  A(46,45,47)           120.2416         estimate D2E/DX2                !
 ! A112  A(3,47,37)            117.6774         estimate D2E/DX2                !
 ! A113  A(3,47,45)            123.0075         estimate D2E/DX2                !
 ! A114  A(37,47,45)           119.314          estimate D2E/DX2                !
 ! A115  A(1,48,3)             126.912          estimate D2E/DX2                !
 ! A116  A(3,48,49)            128.3576         estimate D2E/DX2                !
 ! A117  A(3,48,55)            124.162          estimate D2E/DX2                !
 ! A118  A(49,48,55)           107.4743         estimate D2E/DX2                !
 ! A119  A(1,49,50)            125.4314         estimate D2E/DX2                !
 ! A120  A(48,49,50)           125.4735         estimate D2E/DX2                !
 ! A121  A(48,49,51)           108.1812         estimate D2E/DX2                !
 ! A122  A(50,49,51)           126.3394         estimate D2E/DX2                !
 ! A123  A(1,51,52)            124.6443         estimate D2E/DX2                !
 ! A124  A(49,51,52)           125.9682         estimate D2E/DX2                !
 ! A125  A(49,51,53)           108.1114         estimate D2E/DX2                !
 ! A126  A(52,51,53)           125.8916         estimate D2E/DX2                !
 ! A127  A(1,53,54)            124.7001         estimate D2E/DX2                !
 ! A128  A(51,53,54)           126.1929         estimate D2E/DX2                !
 ! A129  A(51,53,55)           108.0694         estimate D2E/DX2                !
 ! A130  A(54,53,55)           125.6996         estimate D2E/DX2                !
 ! A131  A(1,55,56)            125.1703         estimate D2E/DX2                !
 ! A132  A(48,55,53)           108.1586         estimate D2E/DX2                !
 ! A133  A(48,55,56)           126.2225         estimate D2E/DX2                !
 ! A134  A(53,55,56)           125.6187         estimate D2E/DX2                !
 ! A135  A(1,57,58)            125.0496         estimate D2E/DX2                !
 ! A136  A(58,57,59)           125.9746         estimate D2E/DX2                !
 ! A137  A(58,57,65)           125.7066         estimate D2E/DX2                !
 ! A138  A(59,57,65)           108.3157         estimate D2E/DX2                !
 ! A139  A(1,59,60)            125.2072         estimate D2E/DX2                !
 ! A140  A(57,59,60)           125.8636         estimate D2E/DX2                !
 ! A141  A(57,59,61)           107.9465         estimate D2E/DX2                !
 ! A142  A(60,59,61)           126.1576         estimate D2E/DX2                !
 ! A143  A(1,61,62)            124.8676         estimate D2E/DX2                !
 ! A144  A(59,61,62)           125.9559         estimate D2E/DX2                !
 ! A145  A(59,61,63)           108.2448         estimate D2E/DX2                !
 ! A146  A(62,61,63)           125.7622         estimate D2E/DX2                !
 ! A147  A(1,63,64)            123.9712         estimate D2E/DX2                !
 ! A148  A(61,63,64)           125.9589         estimate D2E/DX2                !
 ! A149  A(61,63,65)           108.3354         estimate D2E/DX2                !
 ! A150  A(64,63,65)           125.6592         estimate D2E/DX2                !
 ! A151  A(1,65,2)             122.1566         estimate D2E/DX2                !
 ! A152  A(2,65,57)            123.3522         estimate D2E/DX2                !
 ! A153  A(2,65,63)            129.3131         estimate D2E/DX2                !
 ! A154  A(57,65,63)           107.1557         estimate D2E/DX2                !
 ! A155  A(2,66,3)             100.2187         estimate D2E/DX2                !
 ! A156  A(2,66,67)            101.3257         estimate D2E/DX2                !
 ! A157  A(2,66,70)            123.4335         estimate D2E/DX2                !
 ! A158  A(3,66,67)            116.4997         estimate D2E/DX2                !
 ! A159  A(3,66,70)            101.6455         estimate D2E/DX2                !
 ! A160  A(67,66,70)           113.7953         estimate D2E/DX2                !
 ! A161  A(69,68,70)           119.4277         estimate D2E/DX2                !
 ! A162  A(69,68,74)           114.6652         estimate D2E/DX2                !
 ! A163  A(70,68,74)           125.8783         estimate D2E/DX2                !
 ! A164  A(66,70,68)           138.7279         estimate D2E/DX2                !
 ! A165  A(66,70,71)            97.8683         estimate D2E/DX2                !
 ! A166  A(68,70,71)           123.0984         estimate D2E/DX2                !
 ! A167  A(70,71,72)           105.917          estimate D2E/DX2                !
 ! A168  A(70,71,73)           105.6512         estimate D2E/DX2                !
 ! A169  A(70,71,89)           130.0878         estimate D2E/DX2                !
 ! A170  A(72,71,73)            97.7652         estimate D2E/DX2                !
 ! A171  A(72,71,89)           105.6656         estimate D2E/DX2                !
 ! A172  A(73,71,89)           107.1928         estimate D2E/DX2                !
 ! A173  A(68,74,75)           122.1436         estimate D2E/DX2                !
 ! A174  A(68,74,76)           120.4388         estimate D2E/DX2                !
 ! A175  A(75,74,76)           117.4173         estimate D2E/DX2                !
 ! A176  A(74,75,77)           121.2849         estimate D2E/DX2                !
 ! A177  A(74,75,78)           118.4166         estimate D2E/DX2                !
 ! A178  A(77,75,78)           120.266          estimate D2E/DX2                !
 ! A179  A(74,76,79)           121.2616         estimate D2E/DX2                !
 ! A180  A(74,76,80)           118.8071         estimate D2E/DX2                !
 ! A181  A(79,76,80)           119.912          estimate D2E/DX2                !
 ! A182  A(75,77,81)           120.3414         estimate D2E/DX2                !
 ! A183  A(75,77,82)           119.4799         estimate D2E/DX2                !
 ! A184  A(81,77,82)           120.1749         estimate D2E/DX2                !
 ! A185  A(76,79,81)           120.4453         estimate D2E/DX2                !
 ! A186  A(76,79,83)           119.7667         estimate D2E/DX2                !
 ! A187  A(81,79,83)           119.7868         estimate D2E/DX2                !
 ! A188  A(77,81,79)           119.2007         estimate D2E/DX2                !
 ! A189  A(77,81,84)           120.2832         estimate D2E/DX2                !
 ! A190  A(79,81,84)           120.5114         estimate D2E/DX2                !
 ! A191  A(86,85,87)           107.9599         estimate D2E/DX2                !
 ! A192  A(86,85,88)           106.3101         estimate D2E/DX2                !
 ! A193  A(86,85,89)           110.8855         estimate D2E/DX2                !
 ! A194  A(87,85,88)           107.4539         estimate D2E/DX2                !
 ! A195  A(87,85,89)           113.502          estimate D2E/DX2                !
 ! A196  A(88,85,89)           110.4092         estimate D2E/DX2                !
 ! A197  A(71,89,85)           112.3548         estimate D2E/DX2                !
 ! A198  A(71,89,90)           111.3395         estimate D2E/DX2                !
 ! A199  A(71,89,91)           110.265          estimate D2E/DX2                !
 ! A200  A(85,89,90)           109.6845         estimate D2E/DX2                !
 ! A201  A(85,89,91)           108.9085         estimate D2E/DX2                !
 ! A202  A(90,89,91)           103.935          estimate D2E/DX2                !
 ! A203  L(48,1,61,51,-1)      178.984          estimate D2E/DX2                !
 ! A204  L(49,1,63,53,-1)      178.0274         estimate D2E/DX2                !
 ! A205  L(51,1,65,48,-1)      180.768          estimate D2E/DX2                !
 ! A206  L(53,1,57,48,-1)      180.5596         estimate D2E/DX2                !
 ! A207  L(55,1,59,49,-1)      180.5342         estimate D2E/DX2                !
 ! A208  L(48,1,61,51,-2)      179.388          estimate D2E/DX2                !
 ! A209  L(49,1,63,53,-2)      178.2326         estimate D2E/DX2                !
 ! A210  L(51,1,65,48,-2)      177.4192         estimate D2E/DX2                !
 ! A211  L(53,1,57,48,-2)      178.5056         estimate D2E/DX2                !
 ! A212  L(55,1,59,49,-2)      179.5823         estimate D2E/DX2                !
 ! D1    D(51,1,48,3)         -160.8767         estimate D2E/DX2                !
 ! D2    D(53,1,48,3)          155.5044         estimate D2E/DX2                !
 ! D3    D(57,1,48,3)          -23.0012         estimate D2E/DX2                !
 ! D4    D(59,1,48,3)          -61.2755         estimate D2E/DX2                !
 ! D5    D(63,1,48,3)           59.9952         estimate D2E/DX2                !
 ! D6    D(65,1,48,3)           21.7041         estimate D2E/DX2                !
 ! D7    D(3,48,61,62)        -179.8359         estimate D2E/DX2                !
 ! D8    D(53,1,49,50)        -158.5008         estimate D2E/DX2                !
 ! D9    D(55,1,49,50)         157.7499         estimate D2E/DX2                !
 ! D10   D(57,1,49,50)          22.1572         estimate D2E/DX2                !
 ! D11   D(59,1,49,50)         -21.8324         estimate D2E/DX2                !
 ! D12   D(61,1,49,50)         -60.5569         estimate D2E/DX2                !
 ! D13   D(65,1,49,50)          61.3013         estimate D2E/DX2                !
 ! D14   D(50,49,63,64)       -177.2704         estimate D2E/DX2                !
 ! D15   D(48,1,51,52)         158.0505         estimate D2E/DX2                !
 ! D16   D(55,1,51,52)        -157.8054         estimate D2E/DX2                !
 ! D17   D(57,1,51,52)          59.1468         estimate D2E/DX2                !
 ! D18   D(59,1,51,52)          22.0987         estimate D2E/DX2                !
 ! D19   D(61,1,51,52)         -21.3375         estimate D2E/DX2                !
 ! D20   D(63,1,51,52)         -59.4204         estimate D2E/DX2                !
 ! D21   D(52,51,65,2)         179.3634         estimate D2E/DX2                !
 ! D22   D(48,1,53,54)        -157.8444         estimate D2E/DX2                !
 ! D23   D(49,1,53,54)         158.2837         estimate D2E/DX2                !
 ! D24   D(59,1,53,54)          59.5068         estimate D2E/DX2                !
 ! D25   D(61,1,53,54)          23.3529         estimate D2E/DX2                !
 ! D26   D(63,1,53,54)         -19.9489         estimate D2E/DX2                !
 ! D27   D(65,1,53,54)         -57.5511         estimate D2E/DX2                !
 ! D28   D(54,53,57,58)       -177.0501         estimate D2E/DX2                !
 ! D29   D(49,1,55,56)        -158.6997         estimate D2E/DX2                !
 ! D30   D(51,1,55,56)         157.7368         estimate D2E/DX2                !
 ! D31   D(57,1,55,56)         -57.4857         estimate D2E/DX2                !
 ! D32   D(61,1,55,56)          60.8089         estimate D2E/DX2                !
 ! D33   D(63,1,55,56)          24.0475         estimate D2E/DX2                !
 ! D34   D(65,1,55,56)         -19.8479         estimate D2E/DX2                !
 ! D35   D(56,55,59,60)       -177.6378         estimate D2E/DX2                !
 ! D36   D(48,1,57,58)         -20.5254         estimate D2E/DX2                !
 ! D37   D(49,1,57,58)          23.6542         estimate D2E/DX2                !
 ! D38   D(51,1,57,58)          61.8395         estimate D2E/DX2                !
 ! D39   D(55,1,57,58)         -59.7082         estimate D2E/DX2                !
 ! D40   D(61,1,57,58)         158.2829         estimate D2E/DX2                !
 ! D41   D(63,1,57,58)        -158.1048         estimate D2E/DX2                !
 ! D42   D(48,1,59,60)         -57.6289         estimate D2E/DX2                !
 ! D43   D(49,1,59,60)         -19.2205         estimate D2E/DX2                !
 ! D44   D(51,1,59,60)          24.536          estimate D2E/DX2                !
 ! D45   D(53,1,59,60)          62.4746         estimate D2E/DX2                !
 ! D46   D(63,1,59,60)         158.0247         estimate D2E/DX2                !
 ! D47   D(65,1,59,60)        -157.892          estimate D2E/DX2                !
 ! D48   D(49,1,61,62)         -56.8333         estimate D2E/DX2                !
 ! D49   D(51,1,61,62)         -19.8172         estimate D2E/DX2                !
 ! D50   D(53,1,61,62)          23.5834         estimate D2E/DX2                !
 ! D51   D(55,1,61,62)          60.5017         estimate D2E/DX2                !
 ! D52   D(57,1,61,62)        -157.9195         estimate D2E/DX2                !
 ! D53   D(65,1,61,62)         157.6122         estimate D2E/DX2                !
 ! D54   D(48,1,63,64)          58.8363         estimate D2E/DX2                !
 ! D55   D(51,1,63,64)         -57.9952         estimate D2E/DX2                !
 ! D56   D(53,1,63,64)         -20.9665         estimate D2E/DX2                !
 ! D57   D(55,1,63,64)          22.408          estimate D2E/DX2                !
 ! D58   D(57,1,63,64)         158.34           estimate D2E/DX2                !
 ! D59   D(59,1,63,64)        -158.0359         estimate D2E/DX2                !
 ! D60   D(48,1,65,2)           18.6789         estimate D2E/DX2                !
 ! D61   D(49,1,65,2)           55.5506         estimate D2E/DX2                !
 ! D62   D(53,1,65,2)          -63.2447         estimate D2E/DX2                !
 ! D63   D(55,1,65,2)          -25.3658         estimate D2E/DX2                !
 ! D64   D(59,1,65,2)          154.6996         estimate D2E/DX2                !
 ! D65   D(61,1,65,2)         -161.8864         estimate D2E/DX2                !
 ! D66   D(25,2,14,4)          109.8994         estimate D2E/DX2                !
 ! D67   D(25,2,14,12)         -73.9114         estimate D2E/DX2                !
 ! D68   D(65,2,14,4)            2.2016         estimate D2E/DX2                !
 ! D69   D(65,2,14,12)         178.3908         estimate D2E/DX2                !
 ! D70   D(66,2,14,4)         -124.9045         estimate D2E/DX2                !
 ! D71   D(66,2,14,12)          51.2847         estimate D2E/DX2                !
 ! D72   D(14,2,25,15)         139.4354         estimate D2E/DX2                !
 ! D73   D(14,2,25,23)         -40.4398         estimate D2E/DX2                !
 ! D74   D(65,2,25,15)        -112.8901         estimate D2E/DX2                !
 ! D75   D(65,2,25,23)          67.2347         estimate D2E/DX2                !
 ! D76   D(66,2,25,15)          16.4053         estimate D2E/DX2                !
 ! D77   D(66,2,25,23)        -163.4699         estimate D2E/DX2                !
 ! D78   D(14,2,65,1)         -176.8766         estimate D2E/DX2                !
 ! D79   D(14,2,65,57)         -91.6713         estimate D2E/DX2                !
 ! D80   D(14,2,65,63)          93.8355         estimate D2E/DX2                !
 ! D81   D(25,2,65,1)           76.0366         estimate D2E/DX2                !
 ! D82   D(25,2,65,57)         161.2418         estimate D2E/DX2                !
 ! D83   D(25,2,65,63)         -13.2514         estimate D2E/DX2                !
 ! D84   D(66,2,65,1)          -52.5778         estimate D2E/DX2                !
 ! D85   D(66,2,65,57)          32.6275         estimate D2E/DX2                !
 ! D86   D(66,2,65,63)        -141.8657         estimate D2E/DX2                !
 ! D87   D(14,2,66,3)          163.6882         estimate D2E/DX2                !
 ! D88   D(14,2,66,67)         -76.4114         estimate D2E/DX2                !
 ! D89   D(14,2,66,70)          52.2934         estimate D2E/DX2                !
 ! D90   D(25,2,66,3)          -78.5189         estimate D2E/DX2                !
 ! D91   D(25,2,66,67)          41.3815         estimate D2E/DX2                !
 ! D92   D(25,2,66,70)         170.0863         estimate D2E/DX2                !
 ! D93   D(65,2,66,3)           44.0184         estimate D2E/DX2                !
 ! D94   D(65,2,66,67)         163.9188         estimate D2E/DX2                !
 ! D95   D(65,2,66,70)         -67.3764         estimate D2E/DX2                !
 ! D96   D(47,3,36,26)        -116.862          estimate D2E/DX2                !
 ! D97   D(47,3,36,34)          64.6964         estimate D2E/DX2                !
 ! D98   D(48,3,36,26)         139.1428         estimate D2E/DX2                !
 ! D99   D(48,3,36,34)         -39.2988         estimate D2E/DX2                !
 ! D100  D(66,3,36,26)           8.4396         estimate D2E/DX2                !
 ! D101  D(66,3,36,34)        -170.002          estimate D2E/DX2                !
 ! D102  D(36,3,47,37)        -178.1368         estimate D2E/DX2                !
 ! D103  D(36,3,47,45)           2.2395         estimate D2E/DX2                !
 ! D104  D(48,3,47,37)         -74.6699         estimate D2E/DX2                !
 ! D105  D(48,3,47,45)         105.7064         estimate D2E/DX2                !
 ! D106  D(66,3,47,37)          52.8808         estimate D2E/DX2                !
 ! D107  D(66,3,47,45)        -126.7429         estimate D2E/DX2                !
 ! D108  D(36,3,48,1)         -151.2942         estimate D2E/DX2                !
 ! D109  D(36,3,48,49)         116.1047         estimate D2E/DX2                !
 ! D110  D(36,3,48,55)         -62.882          estimate D2E/DX2                !
 ! D111  D(47,3,48,1)          100.8053         estimate D2E/DX2                !
 ! D112  D(47,3,48,49)           8.2042         estimate D2E/DX2                !
 ! D113  D(47,3,48,55)        -170.7825         estimate D2E/DX2                !
 ! D114  D(66,3,48,1)          -21.5736         estimate D2E/DX2                !
 ! D115  D(66,3,48,49)        -114.1747         estimate D2E/DX2                !
 ! D116  D(66,3,48,55)          66.8386         estimate D2E/DX2                !
 ! D117  D(36,3,66,2)          112.0931         estimate D2E/DX2                !
 ! D118  D(36,3,66,67)           3.8617         estimate D2E/DX2                !
 ! D119  D(36,3,66,70)        -120.4065         estimate D2E/DX2                !
 ! D120  D(47,3,66,2)         -125.7453         estimate D2E/DX2                !
 ! D121  D(47,3,66,67)         126.0234         estimate D2E/DX2                !
 ! D122  D(47,3,66,70)           1.7552         estimate D2E/DX2                !
 ! D123  D(48,3,66,2)           -9.0297         estimate D2E/DX2                !
 ! D124  D(48,3,66,67)        -117.261          estimate D2E/DX2                !
 ! D125  D(48,3,66,70)         118.4707         estimate D2E/DX2                !
 ! D126  D(5,4,6,7)             -0.0623         estimate D2E/DX2                !
 ! D127  D(5,4,6,8)            179.7911         estimate D2E/DX2                !
 ! D128  D(14,4,6,7)          -179.8019         estimate D2E/DX2                !
 ! D129  D(14,4,6,8)             0.0516         estimate D2E/DX2                !
 ! D130  D(5,4,14,2)            -3.3711         estimate D2E/DX2                !
 ! D131  D(5,4,14,12)         -179.4908         estimate D2E/DX2                !
 ! D132  D(6,4,14,2)           176.3683         estimate D2E/DX2                !
 ! D133  D(6,4,14,12)            0.2485         estimate D2E/DX2                !
 ! D134  D(4,6,8,9)           -179.8183         estimate D2E/DX2                !
 ! D135  D(4,6,8,10)            -0.0718         estimate D2E/DX2                !
 ! D136  D(7,6,8,9)              0.0345         estimate D2E/DX2                !
 ! D137  D(7,6,8,10)           179.7811         estimate D2E/DX2                !
 ! D138  D(6,8,10,11)         -179.701          estimate D2E/DX2                !
 ! D139  D(6,8,10,12)           -0.2118         estimate D2E/DX2                !
 ! D140  D(9,8,10,11)            0.0456         estimate D2E/DX2                !
 ! D141  D(9,8,10,12)          179.5348         estimate D2E/DX2                !
 ! D142  D(8,10,12,13)        -178.5316         estimate D2E/DX2                !
 ! D143  D(8,10,12,14)           0.5143         estimate D2E/DX2                !
 ! D144  D(11,10,12,13)          0.9601         estimate D2E/DX2                !
 ! D145  D(11,10,12,14)       -179.994          estimate D2E/DX2                !
 ! D146  D(10,12,14,2)        -176.8487         estimate D2E/DX2                !
 ! D147  D(10,12,14,4)          -0.5308         estimate D2E/DX2                !
 ! D148  D(13,12,14,2)           2.2029         estimate D2E/DX2                !
 ! D149  D(13,12,14,4)         178.5208         estimate D2E/DX2                !
 ! D150  D(16,15,17,18)          1.4557         estimate D2E/DX2                !
 ! D151  D(16,15,17,19)       -177.6679         estimate D2E/DX2                !
 ! D152  D(25,15,17,18)        179.7649         estimate D2E/DX2                !
 ! D153  D(25,15,17,19)          0.6413         estimate D2E/DX2                !
 ! D154  D(16,15,25,2)          -3.4827         estimate D2E/DX2                !
 ! D155  D(16,15,25,23)        176.3949         estimate D2E/DX2                !
 ! D156  D(17,15,25,2)         178.2138         estimate D2E/DX2                !
 ! D157  D(17,15,25,23)         -1.9086         estimate D2E/DX2                !
 ! D158  D(15,17,19,20)        179.6866         estimate D2E/DX2                !
 ! D159  D(15,17,19,21)          0.6601         estimate D2E/DX2                !
 ! D160  D(18,17,19,20)          0.5692         estimate D2E/DX2                !
 ! D161  D(18,17,19,21)       -178.4572         estimate D2E/DX2                !
 ! D162  D(17,19,21,22)        178.8167         estimate D2E/DX2                !
 ! D163  D(17,19,21,23)         -0.6757         estimate D2E/DX2                !
 ! D164  D(20,19,21,22)         -0.2105         estimate D2E/DX2                !
 ! D165  D(20,19,21,23)       -179.7029         estimate D2E/DX2                !
 ! D166  D(19,21,23,24)        178.7705         estimate D2E/DX2                !
 ! D167  D(19,21,23,25)         -0.6091         estimate D2E/DX2                !
 ! D168  D(22,21,23,24)         -0.7232         estimate D2E/DX2                !
 ! D169  D(22,21,23,25)        179.8971         estimate D2E/DX2                !
 ! D170  D(21,23,25,2)        -178.2318         estimate D2E/DX2                !
 ! D171  D(21,23,25,15)          1.893          estimate D2E/DX2                !
 ! D172  D(24,23,25,2)           2.3876         estimate D2E/DX2                !
 ! D173  D(24,23,25,15)       -177.4876         estimate D2E/DX2                !
 ! D174  D(27,26,28,29)          0.7086         estimate D2E/DX2                !
 ! D175  D(27,26,28,30)       -178.9983         estimate D2E/DX2                !
 ! D176  D(36,26,28,29)        179.7073         estimate D2E/DX2                !
 ! D177  D(36,26,28,30)          0.0004         estimate D2E/DX2                !
 ! D178  D(27,26,36,3)          -0.4188         estimate D2E/DX2                !
 ! D179  D(27,26,36,34)        178.0453         estimate D2E/DX2                !
 ! D180  D(28,26,36,3)        -179.4183         estimate D2E/DX2                !
 ! D181  D(28,26,36,34)         -0.9542         estimate D2E/DX2                !
 ! D182  D(26,28,30,31)       -179.9104         estimate D2E/DX2                !
 ! D183  D(26,28,30,32)          0.6304         estimate D2E/DX2                !
 ! D184  D(29,28,30,31)          0.3855         estimate D2E/DX2                !
 ! D185  D(29,28,30,32)       -179.0737         estimate D2E/DX2                !
 ! D186  D(28,30,32,33)        179.4083         estimate D2E/DX2                !
 ! D187  D(28,30,32,34)         -0.2974         estimate D2E/DX2                !
 ! D188  D(31,30,32,33)         -0.0518         estimate D2E/DX2                !
 ! D189  D(31,30,32,34)       -179.7575         estimate D2E/DX2                !
 ! D190  D(30,32,34,35)        179.3157         estimate D2E/DX2                !
 ! D191  D(30,32,34,36)         -0.6652         estimate D2E/DX2                !
 ! D192  D(33,32,34,35)         -0.3909         estimate D2E/DX2                !
 ! D193  D(33,32,34,36)        179.6282         estimate D2E/DX2                !
 ! D194  D(32,34,36,3)         179.733          estimate D2E/DX2                !
 ! D195  D(32,34,36,26)          1.2878         estimate D2E/DX2                !
 ! D196  D(35,34,36,3)          -0.2479         estimate D2E/DX2                !
 ! D197  D(35,34,36,26)       -178.6931         estimate D2E/DX2                !
 ! D198  D(38,37,39,40)          0.4814         estimate D2E/DX2                !
 ! D199  D(38,37,39,41)       -178.6084         estimate D2E/DX2                !
 ! D200  D(47,37,39,40)        179.7884         estimate D2E/DX2                !
 ! D201  D(47,37,39,41)          0.6986         estimate D2E/DX2                !
 ! D202  D(38,37,47,3)          -1.3201         estimate D2E/DX2                !
 ! D203  D(38,37,47,45)        178.318          estimate D2E/DX2                !
 ! D204  D(39,37,47,3)         179.3747         estimate D2E/DX2                !
 ! D205  D(39,37,47,45)         -0.9872         estimate D2E/DX2                !
 ! D206  D(37,39,41,42)        179.2102         estimate D2E/DX2                !
 ! D207  D(37,39,41,43)          0.1382         estimate D2E/DX2                !
 ! D208  D(40,39,41,42)          0.1252         estimate D2E/DX2                !
 ! D209  D(40,39,41,43)       -178.9468         estimate D2E/DX2                !
 ! D210  D(39,41,43,44)        178.3312         estimate D2E/DX2                !
 ! D211  D(39,41,43,45)         -0.6792         estimate D2E/DX2                !
 ! D212  D(42,41,43,44)         -0.7403         estimate D2E/DX2                !
 ! D213  D(42,41,43,45)       -179.7508         estimate D2E/DX2                !
 ! D214  D(41,43,45,46)        178.1696         estimate D2E/DX2                !
 ! D215  D(41,43,45,47)          0.3857         estimate D2E/DX2                !
 ! D216  D(44,43,45,46)         -0.8483         estimate D2E/DX2                !
 ! D217  D(44,43,45,47)       -178.6323         estimate D2E/DX2                !
 ! D218  D(43,45,47,3)        -179.9375         estimate D2E/DX2                !
 ! D219  D(43,45,47,37)          0.4446         estimate D2E/DX2                !
 ! D220  D(46,45,47,3)           2.2921         estimate D2E/DX2                !
 ! D221  D(46,45,47,37)       -177.3258         estimate D2E/DX2                !
 ! D222  D(3,48,49,50)           2.0733         estimate D2E/DX2                !
 ! D223  D(3,48,49,51)        -178.7612         estimate D2E/DX2                !
 ! D224  D(55,48,49,50)       -178.8057         estimate D2E/DX2                !
 ! D225  D(55,48,49,51)          0.3597         estimate D2E/DX2                !
 ! D226  D(3,48,55,53)         178.504          estimate D2E/DX2                !
 ! D227  D(3,48,55,56)          -1.6506         estimate D2E/DX2                !
 ! D228  D(49,48,55,53)         -0.663          estimate D2E/DX2                !
 ! D229  D(49,48,55,56)        179.1824         estimate D2E/DX2                !
 ! D230  D(48,49,51,52)       -178.0609         estimate D2E/DX2                !
 ! D231  D(48,49,51,53)          0.0783         estimate D2E/DX2                !
 ! D232  D(50,49,51,52)          1.0954         estimate D2E/DX2                !
 ! D233  D(50,49,51,53)        179.2346         estimate D2E/DX2                !
 ! D234  D(49,51,53,54)       -178.3431         estimate D2E/DX2                !
 ! D235  D(49,51,53,55)         -0.4908         estimate D2E/DX2                !
 ! D236  D(52,51,53,54)         -0.2021         estimate D2E/DX2                !
 ! D237  D(52,51,53,55)        177.6502         estimate D2E/DX2                !
 ! D238  D(51,53,55,48)          0.7145         estimate D2E/DX2                !
 ! D239  D(51,53,55,56)       -179.1321         estimate D2E/DX2                !
 ! D240  D(54,53,55,48)        178.5801         estimate D2E/DX2                !
 ! D241  D(54,53,55,56)         -1.2665         estimate D2E/DX2                !
 ! D242  D(58,57,59,60)         -0.9442         estimate D2E/DX2                !
 ! D243  D(58,57,59,61)       -178.9733         estimate D2E/DX2                !
 ! D244  D(65,57,59,60)        178.4422         estimate D2E/DX2                !
 ! D245  D(65,57,59,61)          0.4131         estimate D2E/DX2                !
 ! D246  D(58,57,65,2)           3.3985         estimate D2E/DX2                !
 ! D247  D(58,57,65,63)        178.9419         estimate D2E/DX2                !
 ! D248  D(59,57,65,2)        -175.99           estimate D2E/DX2                !
 ! D249  D(59,57,65,63)         -0.4466         estimate D2E/DX2                !
 ! D250  D(57,59,61,62)        177.6621         estimate D2E/DX2                !
 ! D251  D(57,59,61,63)         -0.2196         estimate D2E/DX2                !
 ! D252  D(60,59,61,62)         -0.3596         estimate D2E/DX2                !
 ! D253  D(60,59,61,63)       -178.2413         estimate D2E/DX2                !
 ! D254  D(59,61,63,64)        177.5664         estimate D2E/DX2                !
 ! D255  D(59,61,63,65)         -0.0591         estimate D2E/DX2                !
 ! D256  D(62,61,63,64)         -0.3204         estimate D2E/DX2                !
 ! D257  D(62,61,63,65)       -177.946          estimate D2E/DX2                !
 ! D258  D(61,63,65,2)         175.4981         estimate D2E/DX2                !
 ! D259  D(61,63,65,57)          0.3105         estimate D2E/DX2                !
 ! D260  D(64,63,65,2)          -2.1363         estimate D2E/DX2                !
 ! D261  D(64,63,65,57)       -177.324          estimate D2E/DX2                !
 ! D262  D(2,66,70,68)         165.7201         estimate D2E/DX2                !
 ! D263  D(2,66,70,71)         -20.9762         estimate D2E/DX2                !
 ! D264  D(3,66,70,68)          55.0419         estimate D2E/DX2                !
 ! D265  D(3,66,70,71)        -131.6544         estimate D2E/DX2                !
 ! D266  D(67,66,70,68)        -71.0283         estimate D2E/DX2                !
 ! D267  D(67,66,70,71)        102.2755         estimate D2E/DX2                !
 ! D268  D(69,68,70,66)        176.6528         estimate D2E/DX2                !
 ! D269  D(69,68,70,71)          4.5781         estimate D2E/DX2                !
 ! D270  D(74,68,70,66)         -5.4082         estimate D2E/DX2                !
 ! D271  D(74,68,70,71)       -177.4829         estimate D2E/DX2                !
 ! D272  D(69,68,74,75)       -155.9058         estimate D2E/DX2                !
 ! D273  D(69,68,74,76)         23.8842         estimate D2E/DX2                !
 ! D274  D(70,68,74,75)         26.0694         estimate D2E/DX2                !
 ! D275  D(70,68,74,76)       -154.1406         estimate D2E/DX2                !
 ! D276  D(66,70,71,72)        -46.3833         estimate D2E/DX2                !
 ! D277  D(66,70,71,73)         56.6671         estimate D2E/DX2                !
 ! D278  D(66,70,71,89)       -173.76           estimate D2E/DX2                !
 ! D279  D(68,70,71,72)        128.3486         estimate D2E/DX2                !
 ! D280  D(68,70,71,73)       -128.601          estimate D2E/DX2                !
 ! D281  D(68,70,71,89)          0.9719         estimate D2E/DX2                !
 ! D282  D(70,71,89,85)        177.2593         estimate D2E/DX2                !
 ! D283  D(70,71,89,90)        -59.2579         estimate D2E/DX2                !
 ! D284  D(70,71,89,91)         55.5674         estimate D2E/DX2                !
 ! D285  D(72,71,89,85)         49.7897         estimate D2E/DX2                !
 ! D286  D(72,71,89,90)        173.2725         estimate D2E/DX2                !
 ! D287  D(72,71,89,91)        -71.9022         estimate D2E/DX2                !
 ! D288  D(73,71,89,85)        -53.723          estimate D2E/DX2                !
 ! D289  D(73,71,89,90)         69.7598         estimate D2E/DX2                !
 ! D290  D(73,71,89,91)       -175.4149         estimate D2E/DX2                !
 ! D291  D(68,74,75,77)       -177.6707         estimate D2E/DX2                !
 ! D292  D(68,74,75,78)          4.3995         estimate D2E/DX2                !
 ! D293  D(76,74,75,77)          2.5333         estimate D2E/DX2                !
 ! D294  D(76,74,75,78)       -175.3965         estimate D2E/DX2                !
 ! D295  D(68,74,76,79)        177.9241         estimate D2E/DX2                !
 ! D296  D(68,74,76,80)         -0.4728         estimate D2E/DX2                !
 ! D297  D(75,74,76,79)         -2.2763         estimate D2E/DX2                !
 ! D298  D(75,74,76,80)        179.3269         estimate D2E/DX2                !
 ! D299  D(74,75,77,81)         -1.1714         estimate D2E/DX2                !
 ! D300  D(74,75,77,82)        179.5397         estimate D2E/DX2                !
 ! D301  D(78,75,77,81)        176.7205         estimate D2E/DX2                !
 ! D302  D(78,75,77,82)         -2.5684         estimate D2E/DX2                !
 ! D303  D(74,76,79,81)          0.6595         estimate D2E/DX2                !
 ! D304  D(74,76,79,83)       -178.9374         estimate D2E/DX2                !
 ! D305  D(80,76,79,81)        179.0388         estimate D2E/DX2                !
 ! D306  D(80,76,79,83)         -0.558          estimate D2E/DX2                !
 ! D307  D(75,77,81,79)         -0.5312         estimate D2E/DX2                !
 ! D308  D(75,77,81,84)       -179.7481         estimate D2E/DX2                !
 ! D309  D(82,77,81,79)        178.7528         estimate D2E/DX2                !
 ! D310  D(82,77,81,84)         -0.4641         estimate D2E/DX2                !
 ! D311  D(76,79,81,77)          0.786          estimate D2E/DX2                !
 ! D312  D(76,79,81,84)       -179.999          estimate D2E/DX2                !
 ! D313  D(83,79,81,77)       -179.6173         estimate D2E/DX2                !
 ! D314  D(83,79,81,84)         -0.4022         estimate D2E/DX2                !
 ! D315  D(86,85,89,71)        -56.4312         estimate D2E/DX2                !
 ! D316  D(86,85,89,90)        179.166          estimate D2E/DX2                !
 ! D317  D(86,85,89,91)         66.0309         estimate D2E/DX2                !
 ! D318  D(87,85,89,71)       -178.1546         estimate D2E/DX2                !
 ! D319  D(87,85,89,90)         57.4426         estimate D2E/DX2                !
 ! D320  D(87,85,89,91)        -55.6925         estimate D2E/DX2                !
 ! D321  D(88,85,89,71)         61.1299         estimate D2E/DX2                !
 ! D322  D(88,85,89,90)        -63.2729         estimate D2E/DX2                !
 ! D323  D(88,85,89,91)       -176.408          estimate D2E/DX2                !
 --------------------------------------------------------------------------------
 Trust Radius=3.00D-01 FncErr=1.00D-07 GrdErr=1.00D-06 EigMax=2.50D+02 EigMin=1.00D-04
 Number of steps in this run=    546 maximum allowed number of steps=    546.
 GradGradGradGradGradGradGradGradGradGradGradGradGradGradGradGradGradGrad

 Stoichiometry    C45H41BrFe2P2(5)
 Framework group  C1[X(C45H41BrFe2P2)]
 Deg. of freedom   267
 Full point group                 C1      NOp   1
 Largest Abelian subgroup         C1      NOp   1
 Largest concise Abelian subgroup C1      NOp   1
                         Standard orientation:
 ---------------------------------------------------------------------
 Center     Atomic      Atomic             Coordinates (Angstroms)
 Number     Number       Type             X           Y           Z
 ---------------------------------------------------------------------
      1         26           0       -1.085533   -2.074836    2.236314
      2         15           0       -2.194194    0.043615   -0.155218
      3         15           0        1.424390   -0.812019    0.172215
      4          6           0       -4.381172    1.576980    0.836401
      5          1           0       -4.300933    0.996559    1.757493
      6          6           0       -5.331407    2.598896    0.737330
      7          1           0       -5.989752    2.810015    1.583603
      8          6           0       -5.436760    3.348277   -0.436174
      9          1           0       -6.177438    4.148058   -0.510927
     10          6           0       -4.586907    3.075298   -1.514799
     11          1           0       -4.661461    3.661608   -2.433795
     12          6           0       -3.633670    2.061357   -1.419218
     13          1           0       -2.953637    1.863834   -2.252956
     14          6           0       -3.529376    1.300752   -0.241107
     15          6           0       -1.919771   -1.937914   -2.115868
     16          1           0       -0.880306   -1.617773   -2.166565
     17          6           0       -2.364278   -2.977948   -2.936237
     18          1           0       -1.658843   -3.477064   -3.604596
     19          6           0       -3.707083   -3.363276   -2.913666
     20          1           0       -4.055427   -4.173288   -3.559130
     21          6           0       -4.609977   -2.696935   -2.078155
     22          1           0       -5.664671   -2.982768   -2.072137
     23          6           0       -4.167146   -1.657707   -1.257603
     24          1           0       -4.877544   -1.125502   -0.620928
     25          6           0       -2.813998   -1.284147   -1.256225
     26          6           0        2.385735   -1.462180   -2.381630
     27          1           0        1.828173   -0.591277   -2.715688
     28          6           0        3.096981   -2.233665   -3.306292
     29          1           0        3.094902   -1.945326   -4.360104
     30          6           0        3.798085   -3.365597   -2.886380
     31          1           0        4.354490   -3.966404   -3.610063
     32          6           0        3.778272   -3.737240   -1.536769
     33          1           0        4.317628   -4.627887   -1.205210
     34          6           0        3.064596   -2.974623   -0.612511
     35          1           0        3.041935   -3.273489    0.437584
     36          6           0        2.373613   -1.822476   -1.027261
     37          6           0        2.216036    0.661446    2.397596
     38          1           0        1.150727    0.870237    2.496438
     39          6           0        3.112002    1.197378    3.322081
     40          1           0        2.739208    1.815446    4.142359
     41          6           0        4.482777    0.958995    3.186522
     42          1           0        5.187479    1.388673    3.902406
     43          6           0        4.948339    0.185818    2.121492
     44          1           0        6.019475    0.017211    1.992465
     45          6           0        4.051906   -0.361156    1.200988
     46          1           0        4.430866   -0.938270    0.356585
     47          6           0        2.676710   -0.129563    1.337097
     48          6           0        0.699017   -2.142113    1.198990
     49          6           0        0.924496   -2.417029    2.586248
     50          1           0        1.556755   -1.833401    3.250275
     51          6           0        0.163530   -3.569525    2.940817
     52          1           0        0.099466   -4.013215    3.933288
     53          6           0       -0.534337   -4.015205    1.778480
     54          1           0       -1.220990   -4.858191    1.724728
     55          6           0       -0.215532   -3.132984    0.706252
     56          1           0       -0.603215   -3.201950   -0.306819
     57          6           0       -1.673412   -0.155032    2.656648
     58          1           0       -1.015636    0.709897    2.671948
     59          6           0       -1.978537   -0.994059    3.766753
     60          1           0       -1.581308   -0.887824    4.774537
     61          6           0       -2.858113   -2.022063    3.312355
     62          1           0       -3.246254   -2.842927    3.912994
     63          6           0       -3.102699   -1.818210    1.922734
     64          1           0       -3.701519   -2.454435    1.282146
     65          6           0       -2.375579   -0.657492    1.502675
     66         26           0       -0.039851    0.950388   -0.722042
     67         35           0       -0.204641    1.096800   -3.124726
     68          6           0        1.913491    3.206500    0.232588
     69          1           0        1.974137    4.172705    0.770386
     70          6           0        0.723331    2.577635    0.130813
     71          6           0       -0.608393    3.192047    0.646685
     72          1           0       -1.385999    3.124691   -0.279450
     73          1           0       -1.120194    2.326730    1.356828
     74          6           0        3.204612    2.704916   -0.281523
     75          6           0        3.282950    1.809348   -1.372467
     76          6           0        4.416539    3.115931    0.309052
     77          6           0        4.507679    1.309893   -1.812475
     78          1           0        2.361830    1.540299   -1.890062
     79          6           0        5.642302    2.620439   -0.134429
     80          1           0        4.382972    3.816875    1.147104
     81          6           0        5.696702    1.707689   -1.192677
     82          1           0        4.533207    0.615960   -2.650691
     83          1           0        6.566214    2.942690    0.352748
     84          1           0        6.656712    1.318679   -1.541084
     85          6           0       -2.411096    4.944182    1.692042
     86          1           0       -3.009333    4.854169    0.765898
     87          1           0       -2.632424    5.936653    2.149164
     88          1           0       -2.791310    4.166431    2.385254
     89          6           0       -0.912590    4.720689    1.402628
     90          1           0       -0.315697    4.832914    2.364418
     91          1           0       -0.530039    5.576410    0.738114
 ---------------------------------------------------------------------
 Rotational constants (GHZ):           0.0668580           0.0494962           0.0455483
 Standard basis: def2SVP (5D, 7F)
 There are  1025 symmetry adapted cartesian basis functions of A   symmetry.
 There are   965 symmetry adapted basis functions of A   symmetry.
   965 basis functions,  1728 primitive gaussians,  1025 cartesian basis functions
   216 alpha electrons      212 beta electrons
       nuclear repulsion energy     10088.3429520503 Hartrees.
 NAtoms=   91 NActive=   91 NUniq=   91 SFac= 1.00D+00 NAtFMM=   60 NAOKFM=T Big=T
 Integral buffers will be    131072 words long.
 Raffenetti 2 integral format.
 Two-electron integral symmetry is turned on.
 Nuclear repulsion after empirical dispersion term =    10088.0341449024 Hartrees.
 One-electron integrals computed using PRISM.
   1 Symmetry operations used in ECPInt.
 ECPInt:  NShTT=   98346 NPrTT=  378889 LenC2=   81406 LenP2D=  195349.
 LDataN:  DoStor=T MaxTD1= 6 Len=  172
 Number of processors reduced to  63 by ecpmxn.
 NBasis=   965 RedAO= T EigKep=  2.42D-04  NBF=   965
 NBsUse=   965 1.00D-06 EigRej= -1.00D+00 NBFU=   965
 ExpMin= 3.37D-02 ExpMax= 1.13D+05 ExpMxC= 1.70D+04 IAcc=3 IRadAn=         5 AccDes= 0.00D+00
 Harris functional with IExCor=  402 and IRadAn=       5 diagonalized for initial guess.
 HarFok:  IExCor=  402 AccDes= 0.00D+00 IRadAn=         5 IDoV= 1 UseB2=F ITyADJ=14
 ICtDFT=  3500011 ScaDFX=  1.000000  1.000000  1.000000  1.000000
 FoFCou: FMM=F IPFlag=           0 FMFlag=      100000 FMFlg1=        2001
         NFxFlg=           0 DoJE=T BraDBF=F KetDBF=T FulRan=T
         wScrn=  0.000000 ICntrl=       500 IOpCl=  0 I1Cent=   200000004 NGrid=           0
         NMat0=    1 NMatS0=      1 NMatT0=    0 NMatD0=    1 NMtDS0=    0 NMtDT0=    0
 Petite list used in FoFCou.
 Initial guess <Sx>= 0.0000 <Sy>= 0.0000 <Sz>= 2.0000 <S**2>= 6.0000 S= 2.0000
 Requested convergence on RMS density matrix=1.00D-08 within  32 cycles.
 Requested convergence on MAX density matrix=1.00D-06.
 Requested convergence on             energy=1.00D-06.
 No special actions if energy rises.
 EnCoef did     9 forward-backward iterations
 EnCoef did     2 forward-backward iterations
 EnCoef did     8 forward-backward iterations
 Restarting incremental Fock formation.
 >>>>>>>>>> Convergence criterion not met.
 SCF Done:  E(UB3LYP) =  -7522.14653842     A.U. after   33 cycles
            NFock= 32  Conv=0.82D-06     -V/T= 2.0041
 <Sx>= 0.0000 <Sy>= 0.0000 <Sz>= 2.0000 <S**2>= 6.0252 S= 2.0050
 <L.S>= 0.000000000000E+00
 Annihilation of the first spin contaminant:
 S**2 before annihilation     6.0252,   after     6.0002
 LinEq1:  Iter=  0 NonCon=     1 RMS=1.96D-07 Max=3.34D-05 NDo=     1
 AX will form     1 AO Fock derivatives at one time.
 LinEq1:  Iter=  1 NonCon=     1 RMS=3.34D-07 Max=5.21D-05 NDo=     1
 LinEq1:  Iter=  2 NonCon=     1 RMS=2.93D-07 Max=2.87D-05 NDo=     1
 LinEq1:  Iter=  3 NonCon=     1 RMS=4.31D-07 Max=5.50D-05 NDo=     1
 LinEq1:  Iter=  4 NonCon=     1 RMS=1.24D-06 Max=1.83D-04 NDo=     1
 LinEq1:  Iter=  5 NonCon=     1 RMS=1.51D-06 Max=2.27D-04 NDo=     1
 LinEq1:  Iter=  6 NonCon=     1 RMS=1.06D-06 Max=2.35D-04 NDo=     1
 LinEq1:  Iter=  7 NonCon=     1 RMS=1.27D-06 Max=1.49D-04 NDo=     1
 LinEq1:  Iter=  8 NonCon=     1 RMS=6.23D-07 Max=8.60D-05 NDo=     1
 LinEq1:  Iter=  9 NonCon=     1 RMS=5.75D-07 Max=6.27D-05 NDo=     1
 LinEq1:  Iter= 10 NonCon=     1 RMS=4.72D-07 Max=6.30D-05 NDo=     1
 LinEq1:  Iter= 11 NonCon=     1 RMS=4.21D-07 Max=6.67D-05 NDo=     1
 LinEq1:  Iter= 12 NonCon=     1 RMS=3.46D-07 Max=4.92D-05 NDo=     1
 LinEq1:  Iter= 13 NonCon=     1 RMS=3.08D-07 Max=4.19D-05 NDo=     1
 LinEq1:  Iter= 14 NonCon=     1 RMS=2.20D-07 Max=1.93D-05 NDo=     1
 LinEq1:  Iter= 15 NonCon=     1 RMS=1.77D-07 Max=1.90D-05 NDo=     1
 LinEq1:  Iter= 16 NonCon=     1 RMS=1.43D-07 Max=1.66D-05 NDo=     1
 LinEq1:  Iter= 17 NonCon=     1 RMS=1.32D-07 Max=1.26D-05 NDo=     1
 LinEq1:  Iter= 18 NonCon=     1 RMS=9.32D-08 Max=1.21D-05 NDo=     1
 LinEq1:  Iter= 19 NonCon=     1 RMS=8.11D-08 Max=1.43D-05 NDo=     1
 LinEq1:  Iter= 20 NonCon=     1 RMS=7.81D-08 Max=9.23D-06 NDo=     1
 LinEq1:  Iter= 21 NonCon=     1 RMS=6.30D-08 Max=7.56D-06 NDo=     1
 LinEq1:  Iter= 22 NonCon=     1 RMS=3.84D-08 Max=2.73D-06 NDo=     1
 LinEq1:  Iter= 23 NonCon=     1 RMS=2.64D-08 Max=2.27D-06 NDo=     1
 LinEq1:  Iter= 24 NonCon=     1 RMS=1.92D-08 Max=1.31D-06 NDo=     1
 LinEq1:  Iter= 25 NonCon=     1 RMS=1.46D-08 Max=1.80D-06 NDo=     1
 LinEq1:  Iter= 26 NonCon=     1 RMS=1.12D-08 Max=1.41D-06 NDo=     1
 LinEq1:  Iter= 27 NonCon=     1 RMS=8.60D-09 Max=1.07D-06 NDo=     1
 LinEq1:  Iter= 28 NonCon=     1 RMS=6.60D-09 Max=6.59D-07 NDo=     1
 LinEq1:  Iter= 29 NonCon=     1 RMS=4.56D-09 Max=5.96D-07 NDo=     1
 LinEq1:  Iter= 30 NonCon=     1 RMS=3.47D-09 Max=3.42D-07 NDo=     1
 LinEq1:  Iter= 31 NonCon=     1 RMS=2.27D-09 Max=1.82D-07 NDo=     1
 LinEq1:  Iter= 32 NonCon=     1 RMS=1.81D-09 Max=1.30D-07 NDo=     1
 LinEq1:  Iter= 33 NonCon=     1 RMS=1.36D-09 Max=1.17D-07 NDo=     1
 LinEq1:  Iter= 34 NonCon=     1 RMS=8.99D-10 Max=9.60D-08 NDo=     1
 LinEq1:  Iter= 35 NonCon=     1 RMS=6.50D-10 Max=7.83D-08 NDo=     1
 LinEq1:  Iter= 36 NonCon=     1 RMS=4.41D-10 Max=3.69D-08 NDo=     1
 LinEq1:  Iter= 37 NonCon=     1 RMS=3.46D-10 Max=2.92D-08 NDo=     1
 LinEq1:  Iter= 38 NonCon=     1 RMS=2.79D-10 Max=1.76D-08 NDo=     1
 LinEq1:  Iter= 39 NonCon=     1 RMS=1.94D-10 Max=1.56D-08 NDo=     1
 LinEq1:  Iter= 40 NonCon=     1 RMS=1.32D-10 Max=1.17D-08 NDo=     1
 LinEq1:  Iter= 41 NonCon=     1 RMS=1.08D-10 Max=8.00D-09 NDo=     1
 LinEq1:  Iter= 42 NonCon=     1 RMS=7.56D-11 Max=4.34D-09 NDo=     1
 LinEq1:  Iter= 43 NonCon=     0 RMS=4.51D-11 Max=2.37D-09 NDo=     1
 Linear equations converged to 4.096D-10 4.096D-09 after    43 iterations.
 SCF Done:  E(UB3LYP) =  -7522.14653845     a.u. after    2 cycles
            Convg  =    0.2539D-07                    45 Fock formations.
              S**2 =  6.0252                  -V/T =  2.0041
 <Sx>= 0.0000 <Sy>= 0.0000 <Sz>= 2.0000 <S**2>= 6.0252 S= 2.0050
 <L.S>= 0.000000000000E+00
 Annihilation of the first spin contaminant:
 S**2 before annihilation     6.0252,   after     6.0002

 **********************************************************************

            Population analysis using the SCF Density.

 **********************************************************************

 Orbital symmetries:
 Alpha Orbitals:
       Occupied  (A) (A) (A) (A) (A) (A) (A) (A) (A) (A) (A) (A)
                 (A) (A) (A) (A) (A) (A) (A) (A) (A) (A) (A) (A)
                 (A) (A) (A) (A) (A) (A) (A) (A) (A) (A) (A) (A)
                 (A) (A) (A) (A) (A) (A) (A) (A) (A) (A) (A) (A)
                 (A) (A) (A) (A) (A) (A) (A) (A) (A) (A) (A) (A)
                 (A) (A) (A) (A) (A) (A) (A) (A) (A) (A) (A) (A)
                 (A) (A) (A) (A) (A) (A) (A) (A) (A) (A) (A) (A)
                 (A) (A) (A) (A) (A) (A) (A) (A) (A) (A) (A) (A)
                 (A) (A) (A) (A) (A) (A) (A) (A) (A) (A) (A) (A)
                 (A) (A) (A) (A) (A) (A) (A) (A) (A) (A) (A) (A)
                 (A) (A) (A) (A) (A) (A) (A) (A) (A) (A) (A) (A)
                 (A) (A) (A) (A) (A) (A) (A) (A) (A) (A) (A) (A)
                 (A) (A) (A) (A) (A) (A) (A) (A) (A) (A) (A) (A)
                 (A) (A) (A) (A) (A) (A) (A) (A) (A) (A) (A) (A)
                 (A) (A) (A) (A) (A) (A) (A) (A) (A) (A) (A) (A)
                 (A) (A) (A) (A) (A) (A) (A) (A) (A) (A) (A) (A)
                 (A) (A) (A) (A) (A) (A) (A) (A) (A) (A) (A) (A)
                 (A) (A) (A) (A) (A) (A) (A) (A) (A) (A) (A) (A)
       Virtual   (A) (A) (A) (A) (A) (A) (A) (A) (A) (A) (A) (A)
                 (A) (A) (A) (A) (A) (A) (A) (A) (A) (A) (A) (A)
                 (A) (A) (A) (A) (A) (A) (A) (A) (A) (A) (A) (A)
                 (A) (A) (A) (A) (A) (A) (A) (A) (A) (A) (A) (A)
                 (A) (A) (A) (A) (A) (A) (A) (A) (A) (A) (A) (A)
                 (A) (A) (A) (A) (A) (A) (A) (A) (A) (A) (A) (A)
                 (A) (A) (A) (A) (A) (A) (A) (A) (A) (A) (A) (A)
                 (A) (A) (A) (A) (A) (A) (A) (A) (A) (A) (A) (A)
                 (A) (A) (A) (A) (A) (A) (A) (A) (A) (A) (A) (A)
                 (A) (A) (A) (A) (A) (A) (A) (A) (A) (A) (A) (A)
                 (A) (A) (A) (A) (A) (A) (A) (A) (A) (A) (A) (A)
                 (A) (A) (A) (A) (A) (A) (A) (A) (A) (A) (A) (A)
                 (A) (A) (A) (A) (A) (A) (A) (A) (A) (A) (A) (A)
                 (A) (A) (A) (A) (A) (A) (A) (A) (A) (A) (A) (A)
                 (A) (A) (A) (A) (A) (A) (A) (A) (A) (A) (A) (A)
                 (A) (A) (A) (A) (A) (A) (A) (A) (A) (A) (A) (A)
                 (A) (A) (A) (A) (A) (A) (A) (A) (A) (A) (A) (A)
                 (A) (A) (A) (A) (A) (A) (A) (A) (A) (A) (A) (A)
                 (A) (A) (A) (A) (A) (A) (A) (A) (A) (A) (A) (A)
                 (A) (A) (A) (A) (A) (A) (A) (A) (A) (A) (A) (A)
                 (A) (A) (A) (A) (A) (A) (A) (A) (A) (A) (A) (A)
                 (A) (A) (A) (A) (A) (A) (A) (A) (A) (A) (A) (A)
                 (A) (A) (A) (A) (A) (A) (A) (A) (A) (A) (A) (A)
                 (A) (A) (A) (A) (A) (A) (A) (A) (A) (A) (A) (A)
                 (A) (A) (A) (A) (A) (A) (A) (A) (A) (A) (A) (A)
                 (A) (A) (A) (A) (A) (A) (A) (A) (A) (A) (A) (A)
                 (A) (A) (A) (A) (A) (A) (A) (A) (A) (A) (A) (A)
                 (A) (A) (A) (A) (A) (A) (A) (A) (A) (A) (A) (A)
                 (A) (A) (A) (A) (A) (A) (A) (A) (A) (A) (A) (A)
                 (A) (A) (A) (A) (A) (A) (A) (A) (A) (A) (A) (A)
[...]
 03077,-0.00000570,0.00000195,0.00000201,-0.00000114,-0.00000315,0.0000
 0813,0.00000015,0.00000057,0.00000275,0.00000258,-0.00000290,-0.018000
 77,0.00627850,-0.02276299,-0.00490297,0.00194281,0.00234991,0.00109838
 ,0.00009314,0.00020344,0.00092814,-0.00072778,-0.00018030,-0.13110167,
 0.02876614,-0.11568462,0.14612430,0.00002969,0.00004418,0.00003559,0.0
 0000122,0.00010009,-0.00007430,0.00001197,0.00000409,-0.00006069,0.000
 04461,-0.00002975,-0.00004902,-0.00000666,-0.00000911,0.00000610,0.000
 01388,0.00002906,0.00001696,-0.00002659,-0.00000851,0.00000769,0.00002
 935,0.00002769,0.00002053,-0.00002345,0.00000043,-0.00000574,0.0000459
 3,-0.00010243,-0.00000845,0.00000096,0.,-0.00000331,-0.00011351,-0.000
 03377,0.00000898,0.00000826,0.00002160,0.00002758,-0.00006984,0.000004
 05,-0.00002815,0.00000006,-0.00000213,0.00000107,0.00000042,0.00000426
 ,0.00000015,-0.00000119,-0.00000012,-0.00000135,-0.00000003,-0.0000002
 0,-0.00000083,-0.00000042,-0.00000114,-0.00000091,-0.00000018,-0.00000
 059,-0.00000039,-0.00000133,-0.00000061,-0.00000042,-0.00000100,-0.000
 00086,-0.00000070,-0.00000144,-0.00000949,-0.00000411,0.00000209,0.000
 00266,-0.00000147,-0.00000978,-0.00000852,0.00002302,-0.00000143,0.000
 00488,0.00000044,-0.00000362,0.00000179,-0.00000184,-0.00000041,-0.000
 00133,0.00000255,-0.00000035,0.00000057,0.00000066,-0.00000035,0.00000
 026,0.00000016,0.00000030,-0.00000012,0.00000027,0.00000010,-0.0000031
 7,0.00000112,0.00000033,-0.00000039,-0.00000021,0.00000196,-0.00000153
 ,-0.00000448,0.00000179,-0.00000112,0.00000048,0.00000995,-0.00001120,
 0.00001463,0.00005779,0.00000644,0.00001393,0.00000826,-0.00008729,-0.
 00001814,-0.00002595,0.00000606,0.00000567,0.00001669,0.00000761,0.000
 01220,0.00001163,0.00000182,0.00000077,-0.00000758,0.00000254,-0.00000
 231,-0.00000713,0.00000609,0.00000531,-0.00000159,0.00000209,0.0000009
 4,-0.00000617,0.00001114,0.00000998,-0.00000555,0.00000005,-0.00000028
 ,-0.00003199,-0.00001531,-0.00001649,0.00000450,-0.00000979,0.00000025
 ,-0.00000994,-0.00001014,-0.00000224,0.00000164,-0.00000106,0.00000092
 ,0.00000120,0.00000016,0.00000123,-0.00000082,-0.00000041,0.00000063,-
 0.00000171,0.00000202,0.00000189,0.,0.00000007,0.00000023,0.00000734,0
 .00000480,0.00000085,-0.00000094,0.00000288,-0.00000080,-0.00004133,-0
 .00002427,-0.00000215,0.00001093,-0.00006576,-0.00003228,0.00000757,-0
 .00001111,0.00003932,-0.00000106,-0.00000782,0.00000681,-0.00000128,0.
 00000093,0.00000292,0.00000330,0.00000342,0.00000386,0.00001540,0.0000
 3200,0.00001308,0.00000086,0.00000567,-0.00000358,-0.00002429,-0.00000
 624,-0.00002615,-0.00020797,0.00008862,0.00018049,0.00001842,-0.000007
 00,-0.00002104,0.00085829,0.00070285,0.00013532,0.00020885,-0.00004302
 ,-0.00045403,-0.00072514,0.00060768,0.00118710,-0.01588873,0.00508023,
 -0.02294395,-0.00050359,-0.00398552,-0.00363807,-0.00004885,0.00111254
 ,0.00049115,0.00000720,-0.00012189,-0.00001568,-0.00002576,0.00001419,
 0.00003521,0.00002440,0.00000115,0.00002232,0.00002900,0.00000121,-0.0
 0002160,-0.00001350,-0.00001085,-0.00000863,-0.00001694,0.00000713,0.0
 0001394,-0.00000823,0.00000285,-0.00000661,-0.00001340,-0.00001661,-0.
 00001870,0.00000349,-0.00000090,-0.00000307,0.00000102,0.00000179,0.00
 000067,0.00000058,-0.00000212,-0.00000237,0.00623870,-0.00281027,0.008
 10494,0.00200816,0.00024952,-0.00134532,-0.00021959,-0.00002479,0.0003
 1899,-0.00040196,0.00058312,-0.00064250,0.02839969,-0.05800416,0.04186
 202,-0.03328671,0.06119952,0.00003372,0.00000408,0.00006385,-0.0000706
 8,0.00021487,-0.00004771,-0.00005064,-0.00003906,-0.00008721,0.0000381
 7,-0.00003229,-0.00004544,-0.00000157,0.00001372,0.00000518,0.00000962
 ,-0.00000880,-0.00000696,-0.00000501,-0.00000263,0.00000828,0.00003440
 ,-0.00001131,0.00001245,-0.00000816,0.00000538,-0.00000361,0.00002960,
 -0.00008284,-0.00000279,0.00001273,0.00000466,0.00000789,-0.00008096,-
 0.00004948,0.00002799,-0.00000089,0.00003317,0.00002267,-0.00004950,0.
 00003344,-0.00004077,-0.00001502,-0.00001214,0.00000296,-0.00000054,0.
 00000353,-0.00000118,0.00000146,-0.00000197,-0.00000455,-0.00000052,-0
 .00000181,-0.00000360,-0.00000025,-0.00000288,-0.00000181,-0.00000027,
 -0.00000118,-0.00000174,0.00000435,-0.00000125,-0.00000021,-0.00000150
 ,-0.00000018,-0.00000110,-0.00000191,-0.00001072,-0.00000134,0.0000061
 5,0.00000908,-0.00000349,0.00001880,-0.00002127,0.00002784,0.00000282,
 0.00000898,0.00000083,-0.00001341,0.00000430,-0.00000550,0.00000139,-0
 .00000226,0.00000110,-0.00000248,-0.00000007,0.00000066,-0.00000005,0.
 00000094,-0.00000077,-0.00000072,-0.00000032,0.00000023,0.00000164,-0.
 00000254,0.00000331,-0.00000084,-0.00000090,-0.00000048,0.00000407,-0.
 00000444,-0.00000166,-0.00000222,-0.00000361,0.00000097,0.00003163,0.0
 0000320,0.00001789,0.00006990,0.00003496,0.00002678,-0.00002947,-0.000
 12184,-0.00002965,-0.00000816,-0.00000940,-0.00005856,0.00002409,-0.00
 001141,0.00006530,0.00003373,0.00001656,0.00001817,-0.00000067,-0.0000
 0461,0.00000068,-0.00000547,0.00001421,0.00000919,-0.00000362,0.000002
 62,0.00000679,-0.00001467,0.00003011,0.00003146,-0.00001168,-0.0000037
 2,0.00000175,-0.00002414,-0.00002775,-0.00002569,0.00001198,0.00001834
 ,0.00000399,-0.00000894,-0.00000008,0.00000712,0.00000101,-0.00001042,
 0.00000518,-0.00000112,-0.00000620,0.00000514,-0.00000044,-0.00000111,
 0.00000005,0.00000768,0.00000304,0.00000201,0.00000153,0.00000121,-0.0
 0000158,-0.00000133,0.00000282,-0.00001751,-0.00000262,0.00000351,-0.0
 0000225,-0.00001560,-0.00007340,0.00002808,-0.00007666,-0.00007657,-0.
 00006910,0.00000675,-0.00001807,-0.00000376,-0.00000381,-0.00001259,0.
 00001045,0.00000004,-0.00001144,0.00000490,-0.00000013,0.00000162,0.00
 000299,0.00002879,0.00004452,0.00000759,-0.00000006,0.00000583,-0.0000
 0305,0.00000918,-0.00001097,0.00001051,-0.00023010,0.00000333,0.000013
 98,0.00006587,-0.00002368,0.00001965,-0.00019462,-0.00050847,-0.000039
 48,0.00080046,0.00069907,-0.00034992,-0.00059248,0.00064642,0.00131318
 ,-0.01018085,0.00318912,-0.01569868,-0.00018747,-0.00390978,-0.0010182
 8,0.00015606,-0.00030690,0.00086659,0.00021842,0.00040802,0.00034513,-
 0.00014454,0.00005771,0.00004370,0.00003561,-0.00008502,-0.00011280,0.
 00001775,0.00001288,0.00006430,-0.00000296,0.00000780,-0.00000033,0.00
 000699,0.00002326,0.00002831,0.00003932,0.00001447,0.00002298,0.000001
 84,-0.00001213,-0.00000618,-0.00001482,0.00000780,0.00000903,0.0000004
 3,0.00000041,-0.00000181,-0.00000269,0.00000586,0.00000394,0.00791183,
 -0.00286121,0.00952453,0.00262226,-0.00094028,0.00043528,-0.00061826,0
 .00036512,0.00063751,-0.00066335,0.00005927,0.00073360,-0.11598839,0.0
 4142221,-0.20525925,0.12624507,-0.04094568,0.22136921,0.00000316,-0.00
 001359,0.00001212,-0.00001106,0.00005736,0.00001044,-0.00002865,0.0000
 0762,-0.00001722,-0.00003212,-0.00001994,-0.00005407,0.00000900,0.0000
 4515,-0.00000398,-0.00003022,-0.00003907,-0.00001608,0.00005011,0.0000
 1016,-0.00000463,0.00000776,-0.00002140,0.00003880,-0.00000853,0.00000
 123,0.00000530,0.00003344,0.00000638,0.00000216,-0.00000972,-0.0000033
 0,-0.00002121,0.00000913,-0.00000095,-0.00001313,-0.00000252,-0.000008
 08,-0.00000369,-0.00003955,0.00000022,0.00001476,-0.00000763,-0.000003
 62,-0.00000062,0.00000053,0.,0.00000307,0.00000026,-0.00000007,-0.0000
 0254,0.00000047,-0.00000170,-0.00000110,-0.00000060,-0.00000118,-0.000
 00088,-0.00000019,-0.00000161,-0.00000062,0.00000128,-0.00000005,-0.00
 000183,-0.00000123,-0.00000107,0.00000032,-0.00000136,-0.00000682,-0.0
 0000507,0.00000337,0.00000283,0.00000062,-0.00000466,-0.00000462,0.000
 01113,0.00000039,-0.00000042,0.00000005,-0.00000020,0.00000097,0.00000
 220,-0.00000114,-0.00000144,0.00000170,0.00000007,-0.00000007,-0.00000
 051,0.00000035,-0.00000012,-0.00000011,0.00000049,-0.00000064,-0.00000
 046,0.00000044,-0.00000063,-0.00000086,0.00000030,-0.00000097,-0.00000
 012,0.00000164,-0.00000025,-0.00000457,-0.00000144,0.00000053,0.000000
 18,0.00001189,-0.00000302,0.00000665,0.00001795,0.00000257,0.00001997,
 0.00000057,-0.00002715,-0.00001856,0.,-0.00001175,-0.00002249,0.000011
 55,-0.00000080,0.00001683,0.00000579,0.00000465,0.00000566,0.00000009,
 0.00000012,-0.00000016,-0.00000316,0.00000164,0.00000320,-0.00000059,0
 .00000166,0.00000099,-0.00000550,0.00000897,0.00000980,-0.00000267,0.0
 0000113,-0.00000028,-0.00000545,-0.00000732,-0.00000924,0.00000558,0.0
 0000763,-0.00000044,-0.00000099,0.00000133,0.00000255,0.00000085,-0.00
 000281,0.00000039,-0.00000066,-0.00000287,0.00000326,-0.00000045,-0.00
 000014,0.00000021,0.00000149,-0.00000104,0.00000061,-0.00000009,0.0000
 0038,-0.00000014,-0.00000163,0.00000066,-0.00000511,-0.00000030,0.0000
 0100,0.00000003,0.00000471,-0.00003441,0.00001045,-0.00004260,-0.00003
 773,-0.00003003,0.00000623,0.00000080,-0.00002147,-0.00000549,-0.00000
 147,0.00000213,0.00000510,0.00000042,-0.00000147,-0.00000088,0.0000016
 2,0.00000051,0.00001085,0.00001316,0.00000257,-0.00000019,0.00000115,0
 .00000018,0.00001826,0.00001032,0.00000827,0.00001600,-0.00004259,0.00
 004733,-0.00000305,0.00002264,-0.00003826,-0.00026526,0.00075539,-0.00
 028043,-0.00074863,0.00082432,0.00001585,0.00020606,0.00028285,0.00009
 591,-0.00184418,-0.00292361,0.00041673,-0.00003867,-0.00014634,0.00027
 800,0.00027678,-0.00046049,-0.00019534,-0.00003051,-0.00009550,0.00012
 310,0.00002163,-0.00000338,-0.00001360,0.00005058,0.00000203,-0.000013
 54,0.00000530,0.00000009,-0.00000027,0.00000020,-0.00000809,0.00000833
 ,-0.00000882,0.00001113,0.00000632,-0.00000371,0.00000489,-0.00000389,
 0.00001130,-0.00001066,-0.00001166,0.00000273,-0.00000329,-0.00000322,
 0.00000771,-0.00000115,0.00000087,0.00000255,-0.00000186,-0.00000070,-
 0.01381418,-0.02096524,0.01588420,0.00087817,-0.00046236,-0.00059763,0
 .00117088,0.00022559,-0.00018254,-0.00500305,0.00206605,0.00192370,-0.
 09578752,-0.08205045,0.05821788,0.00790246,0.01364147,-0.00921088,0.10
 702361,-0.00003221,-0.00009318,0.00002190,0.00002632,0.00025011,0.0001
 2936,-0.00004653,-0.00005218,0.00005325,-0.00002816,-0.00002188,-0.000
 07977,0.00003289,0.00001965,-0.00001258,0.00005475,-0.00007093,0.00000
 270,-0.00001724,-0.00000012,0.00000537,0.00002064,0.00002551,-0.000056
 21,-0.00000985,0.00000496,-0.00000397,-0.00003596,0.00002955,0.0000312
 7,-0.00001027,0.00000481,-0.00001102,0.00000022,-0.00006461,0.00008588
 ,-0.00000905,-0.00000490,0.00000322,-0.00006766,0.00000178,-0.00007161
 ,-0.00002631,-0.00001248,-0.00000234,-0.00000066,-0.00000313,0.0000038
 8,0.00000518,-0.00000077,-0.00000588,0.00000003,-0.00000467,-0.0000029
 0,-0.00000272,-0.00000278,-0.00000117,-0.00000016,-0.00000305,-0.00000
 136,-0.00000012,0.00000033,-0.00000304,-0.00000291,-0.00000342,-0.0000
 0143,0.00000070,-0.00003167,-0.00001851,0.00000817,0.00000256,0.000000
 26,-0.00000971,0.00003147,0.00003650,0.00001091,-0.00000861,0.00000245
 ,-0.00000863,-0.00000091,-0.00000309,0.00000203,0.00000153,-0.00000204
 ,-0.00000109,-0.00000211,-0.00000295,0.00000192,-0.00000123,-0.0000014
 6,-0.00000036,-0.00000111,-0.00000111,0.00000019,0.00000370,-0.0000024
 7,-0.00000055,-0.00000089,-0.00000009,0.00000090,-0.00000068,0.0000001
 9,-0.00000589,0.00000248,-0.00000059,0.00001587,0.00001902,-0.00000636
 ,-0.00003194,0.00001278,-0.00003203,-0.00002703,0.00001828,0.00001983,
 0.00000930,0.00001493,0.00000620,-0.00001151,-0.00000450,-0.00000440,-
 0.00000229,0.00000302,0.00000059,0.00000272,-0.00000271,0.00000409,0.0
 0000515,-0.00000102,-0.00000865,0.00000371,-0.00000380,0.00000186,0.00
 001266,0.00000226,0.00000243,0.00000068,-0.00000669,0.00000158,0.00001
 873,0.00000116,-0.00000205,0.00000331,0.00004143,-0.00001603,0.0000103
 1,0.00001918,0.00001628,-0.00000251,-0.00000375,0.00000248,0.00000248,
 -0.00000435,0.00000059,0.00000194,0.00000093,-0.00000028,0.00000805,-0
 .00000035,-0.00000317,0.00000034,0.00000086,-0.00000187,-0.00001879,-0
 .00000578,-0.00001877,-0.00000134,-0.00000056,0.00000021,0.00008430,0.
 00002250,0.00003404,-0.00013026,0.00007888,-0.00005088,-0.00000344,0.0
 0000357,-0.00008488,0.00000415,-0.00000080,0.00000016,-0.00000145,-0.0
 0002960,0.00001143,-0.00000503,-0.00000758,-0.00000251,0.00000903,-0.0
 0000223,-0.00002146,-0.00000058,-0.00000841,0.00000271,0.00005100,0.00
 001795,0.00005829,-0.00027843,-0.00007377,0.00005303,0.00005470,0.0000
 3654,-0.00007073,-0.00015890,-0.00005290,-0.00036517,0.00093720,-0.000
 02507,0.00053653,-0.00053311,0.00177064,0.00016092,-0.01157719,-0.0209
 6484,0.01384658,0.00005185,0.00101704,-0.00018608,-0.00050379,-0.00395
 261,-0.00375733,0.00033395,0.00036727,0.00016521,-0.00009471,0.0000713
 5,0.00004285,-0.00001830,-0.00003705,-0.00005293,0.00001090,0.00000643
 ,0.00003790,-0.00000071,-0.00002171,0.00000697,0.00003069,0.00000651,-
 0.00002278,0.00001886,-0.00001976,0.00002480,-0.00000854,0.00001252,0.
 00001397,-0.00001290,0.00000414,0.00000875,-0.00000607,-0.00000394,0.0
 0000005,-0.00000480,-0.00000266,0.00000597,0.00593790,0.00861862,-0.00
 708262,-0.00065871,0.00036267,0.00015585,-0.00056642,0.00078276,0.0001
 2177,0.00265395,0.00027561,-0.00104251,-0.08271699,-0.18355218,0.09928
 133,-0.00215583,-0.00450140,0.00284521,0.08940900,0.19970801,-0.000008
 21,-0.00001646,0.00004457,0.00010738,0.00010115,0.00001663,-0.00003310
 ,0.00002056,-0.00001650,-0.00001646,0.00001184,-0.00002853,0.00001164,
 -0.00000948,-0.00001178,0.00003142,-0.00002943,0.00001728,-0.00002821,
 -0.00000326,0.00000306,-0.00000259,0.00004820,-0.00002663,-0.00001010,
 -0.00000095,-0.00000738,-0.00000528,0.00004696,0.00000997,-0.00000789,
 0.00000039,-0.00000356,0.00000627,-0.00004964,0.00004185,0.00000089,-0
 .00000898,-0.00000106,-0.00004253,-0.00002701,-0.00004383,-0.00000111,
 -0.00000105,-0.00000075,0.00000002,0.00000298,-0.00000049,0.00000129,-
 0.00000019,-0.00000031,-0.00000032,-0.00000056,-0.00000038,-0.00000171
 ,-0.00000062,0.00000018,-0.00000005,-0.00000034,0.,-0.00000750,-0.0000
 0044,-0.00000083,-0.00000122,-0.00000209,-0.00000177,0.00000042,-0.000
 02097,-0.00001463,-0.00000030,-0.00000306,0.00000053,-0.00003267,0.000
 02293,0.00003512,-0.00000269,0.00000294,-0.00000088,0.00000030,0.00000
 166,-0.00000079,-0.00000096,-0.00000142,0.00000105,-0.00000001,0.00000
 066,0.00000093,-0.00000073,0.00000064,0.00000016,0.00000020,0.00000020
 ,0.00000032,0.00000027,-0.00000099,0.00000118,-0.00000002,0.00000006,-
 0.00000005,0.00000047,-0.00000021,0.00000049,0.00000033,-0.00000110,0.
 00000030,0.00000104,0.00000261,0.00000259,0.00004473,0.00000622,0.0000
 2550,-0.00001810,-0.00003276,-0.00002814,-0.00000821,-0.00001611,-0.00
 002641,0.00002338,0.00000387,0.00001857,0.00001155,0.00000216,0.000014
 16,-0.00000288,0.00000190,-0.00000365,-0.00000909,0.00000864,0.0000069
 0,-0.00000253,0.00000339,0.00000184,-0.00001137,0.00000783,0.00000893,
 -0.00000440,0.00000148,0.00000014,-0.00001437,-0.00000788,-0.00000831,
 0.00001712,-0.00000139,-0.00000025,-0.00000685,-0.00000191,-0.00000723
 ,0.00000214,-0.00000263,-0.00000019,-0.00000295,-0.00000265,0.00000016
 ,-0.00000040,-0.00000145,0.00000031,0.00000231,0.00000149,0.00000129,0
 .00000003,0.00000005,0.00000005,0.00000304,0.00000297,0.00000160,0.,0.
 00000081,-0.00000032,0.00003651,-0.00002821,0.00006142,-0.00006956,-0.
 00005347,-0.00008886,-0.00000653,-0.00001621,-0.00001729,0.00000440,-0
 .00001826,0.00001112,-0.00001206,-0.00002766,0.00001419,-0.00000079,-0
 .00000253,0.00000051,0.00000910,0.00001569,0.00000471,0.00000027,-0.00
 000103,-0.00000034,-0.00000477,0.00002327,0.00000346,-0.00014684,0.000
 12076,0.00007112,-0.00000526,0.00000196,-0.00005040,0.00104378,0.00046
 040,0.00060369,0.00015338,-0.00056870,-0.00020551,-0.00037420,0.000632
 87,0.00009628,-0.00869505,-0.01478616,0.01040150,-0.00010054,0.0004390
 9,0.00105392,-0.00039325,-0.00397382,-0.00111984,-0.00002925,-0.000205
 07,-0.00022263,0.00004002,-0.00000198,0.00000959,-0.00003732,-0.000001
 72,0.00004733,-0.00000174,-0.00000210,-0.00003618,-0.00000574,-0.00000
 519,-0.00000608,-0.00000044,-0.00001969,-0.00000146,-0.00001602,0.0000
 1418,-0.00002083,-0.00000511,0.00000060,0.00000342,0.00000776,-0.00000
 169,-0.00000549,0.00000162,0.00000511,-0.00000160,0.00000217,-0.000000
 47,-0.00000323,0.00449410,0.00673313,-0.00574334,-0.00014536,-0.000541
 62,0.00080812,-0.00019520,0.00000050,-0.00010940,0.00195704,-0.0013094
 2,0.00058165,0.05810621,0.10000840,-0.11928508,0.01080792,0.01777711,-
 0.01292333,-0.06640070,-0.10472762,0.12604784\\-0.00003939,-0.00002181
 ,-0.00005634,0.00001241,0.00000548,0.00000395,-0.00000208,0.00000605,-
 0.00000049,-0.00000403,-0.00000368,-0.00000244,0.00000169,0.00000114,0
 .00000085,0.00000047,0.00000034,0.00000037,-0.00000010,0.00000066,-0.0
 0000033,0.00000105,0.00000014,-0.00000154,-0.00000016,0.00000003,-0.00
 000024,-0.00000146,0.00000080,-0.00000023,0.00000063,0.00000038,-0.000
 00017,0.00000127,-0.00000149,0.00000105,0.00000084,-0.00000005,-0.0000
 0038,0.00000362,0.00000650,0.00000234,0.00000262,-0.00000123,0.0000024
 6,-0.00000120,0.00000037,-0.00000061,-0.00000054,-0.00000031,-0.000000
 22,-0.00000019,-0.00000023,0.00000004,0.00000007,0.00000044,-0.0000001
 0,-0.00000032,-0.00000017,0.00000042,0.00000016,-0.00000050,0.00000007
 ,-0.00000024,0.00000034,-0.00000038,0.00000149,0.00000041,0.00000012,-
 0.00000007,0.00000047,-0.00000008,-0.00000741,0.00000089,0.00000034,0.
 00000053,-0.00000045,-0.00000051,0.00000069,-0.00000429,0.00000037,-0.
 00000068,-0.00000097,0.00000089,0.,-0.00000014,0.00000018,0.00000038,0
 .00000005,-0.00000004,0.,-0.00000069,0.00000053,0.00000001,-0.00000002
 ,0.00000034,-0.00000062,-0.00000063,0.00000022,-0.00000045,0.00000011,
 -0.00000127,-0.00000121,-0.00000076,0.00000051,-0.00000337,-0.00000226
 ,-0.00000018,-0.00000346,0.00000139,0.00000415,-0.00000106,0.00000131,
 -0.00000213,-0.00000189,-0.00000029,-0.00000080,0.00000044,-0.00000017
 ,0.00000046,0.00000057,-0.00000152,-0.00000089,0.00000047,-0.00000043,
 0.00000010,0.00000106,0.00000079,0.00000255,0.00000003,0.00000006,0.00
 000076,-0.00000355,-0.00000155,0.00000220,-0.00000078,0.00000082,-0.00
 000055,0.00000974,-0.00000568,-0.00000637,0.00001133,-0.00000386,0.000
 01320,-0.00000103,0.00000661,0.00000248,-0.00000023,-0.00000004,0.0000
 0027,0.00000528,0.00000854,0.00000860,-0.00000345,-0.00000211,-0.00000
 089,0.00000453,-0.00000120,0.00000583,0.00000066,-0.00000062,-0.000001
 20,0.00001188,0.00000219,0.00000104,0.00000033,-0.00000346,0.00000004,
 0.00001164,0.00000424,0.00000567,-0.00000183,0.00000264,-0.00000115,0.
 00000973,0.00000097,0.00000379,-0.00000118,-0.00000219,0.00000091,0.00
 000774,0.00000317,0.00000971,-0.00000193,-0.00000050,-0.00000187,0.000
 00482,0.00001312,-0.00000154,-0.00000215,-0.00000010,0.00000312,-0.000
 02870,-0.00000805,0.00001044,-0.00000353,0.00000007,-0.00001464,-0.000
 00057,-0.00000507,-0.00000050,-0.00000835,0.00000388,0.00000039,0.0000
 0062,0.00000051,-0.00000131,0.00001250,-0.00000225,0.00000883,-0.00000
 959,-0.00000215,-0.00000161,0.00000170,0.00000199,-0.00000538,0.000000
 22,-0.00000519,0.00000402,0.00000743,-0.00000247,-0.00000066,0.0000025
 2,0.00000044,-0.00000355,-0.00000513,0.00000056,-0.00000165,-0.0000023
 0,0.00000120,0.00000013,0.00000115,0.00000036,0.00000198,0.00000326,-0
 .00000128,-0.00000132,0.00000116,-0.00000067,0.00000011,0.00000056,0.0
 0000083,0.00000126,0.00000189,0.00000166,0.00000152,-0.00000029,-0.000
 00043,0.00000026,0.00000015,-0.00000055,0.00000009,-0.00000265,-0.0000
 0099,-0.00000066,0.00000072,0.00000109,-0.00000036,0.00000017,0.000002
 28,0.00000056,0.00000068,0.00000026,-0.00000002,0.00000518,0.00000758,
 0.00000753,-0.00000035,-0.00000232,0.00000078,-0.00000056,0.00000166,-
 0.00000323\\\@


 ACCORDING TO HEN3RY, LIFE IS MUCH LIKE A SEWER........
 YOU GET OUT OF IT JUST WHAT YOU PUT INTO IT...........
                         TOM LEHRER - (THE 3 IS SILENT)
 Job cpu time:       6 days 17 hours 46 minutes 34.7 seconds.
 Elapsed time:       0 days  2 hours 32 minutes 49.5 seconds.
 File lengths (MBytes):  RWF=  17958 Int=      0 D2E=      0 Chk=    109 Scr=      1
 Normal termination of Gaussian 16 at Thu Feb 29 20:30:25 2024.
