91
iron_neutral_triplet.xyz    Empirical formula: C45H41BrFe2P2    Energy(Hartree): -7522.072623    
Fe      -0.3872630000   -3.1161760000   -1.1525930000
P        1.5595520000   -0.7514830000    0.2784540000
P       -1.9615190000   -0.2388820000   -0.1679520000
C        3.7585980000    0.8868040000    0.7504030000
H        3.0776840000    1.4155820000    1.4216800000
C        5.0861440000    1.2966900000    0.6293050000
H        5.4400610000    2.1525150000    1.2084680000
C        5.9547910000    0.6299960000   -0.2393380000
H        6.9927860000    0.9579560000   -0.3345080000
C        5.4887860000   -0.4477200000   -0.9955700000
H        6.1601210000   -0.9664130000   -1.6845240000
C        4.1610590000   -0.8655650000   -0.8758620000
H        3.8016730000   -1.7078870000   -1.4693560000
C        3.2919150000   -0.2068740000    0.0052350000
C        0.7322290000   -1.5597430000    2.8474880000
H       -0.1164660000   -0.8947330000    2.6838240000
C        0.8352780000   -2.2685700000    4.0472520000
H        0.0506660000   -2.1699210000    4.8010270000
C        1.9442490000   -3.0833210000    4.2870600000
H        2.0276300000   -3.6336280000    5.2274370000
C        2.9582070000   -3.1764850000    3.3280860000
H        3.8376570000   -3.7966270000    3.5182480000
C        2.8563440000   -2.4669780000    2.1298950000
H        3.6628270000   -2.5242170000    1.3960020000
C        1.7315430000   -1.6678730000    1.8702210000
C       -3.1710820000    0.9860950000    2.0597240000
H       -2.3047190000    1.6497590000    2.0584910000
C       -4.1774730000    1.1579240000    3.0156400000
H       -4.0942490000    1.9684780000    3.7434210000
C       -5.2740620000    0.2942900000    3.0449930000
H       -6.0580770000    0.4281020000    3.7944490000
C       -5.3647550000   -0.7486600000    2.1156510000
H       -6.2191620000   -1.4295800000    2.1373600000
C       -4.3635500000   -0.9231760000    1.1603980000
H       -4.4387120000   -1.7370500000    0.4364050000
C       -3.2603340000   -0.0536100000    1.1241350000
C       -2.3288460000    0.0137470000   -2.9583430000
H       -1.4616890000   -0.6386590000   -3.0503000000
C       -2.9341540000    0.5163520000   -4.1122390000
H       -2.5279360000    0.2559020000   -5.0925970000
C       -4.0493730000    1.3515460000   -4.0125550000
H       -4.5208710000    1.7490110000   -4.9143660000
C       -4.5562690000    1.6763430000   -2.7515530000
H       -5.4264050000    2.3311610000   -2.6627030000
C       -3.9540920000    1.1723380000   -1.5973950000
H       -4.3542080000    1.4419170000   -0.6197280000
C       -2.8348050000    0.3314660000   -1.6871570000
C       -1.9566290000   -2.0535250000   -0.3892260000
C       -2.4059130000   -2.8368120000   -1.5071080000
H       -2.8447030000   -2.4485900000   -2.4212800000
C       -2.1558070000   -4.2096840000   -1.2196110000
H       -2.3559450000   -5.0451010000   -1.8883030000
C       -1.5706180000   -4.2923520000    0.0783930000
H       -1.2396830000   -5.2006280000    0.5786840000
C       -1.4493930000   -2.9706430000    0.5932780000
H       -1.0204760000   -2.7019880000    1.5535510000
C        0.8498990000   -1.8962130000   -2.2516210000
H        0.5753220000   -0.9310070000   -2.6667950000
C        0.7484870000   -3.1631210000   -2.8954600000
H        0.3639020000   -3.3414690000   -3.8980700000
C        1.2049710000   -4.1588730000   -1.9802150000
H        1.2232840000   -5.2325210000   -2.1595620000
C        1.5900140000   -3.5091590000   -0.7705330000
H        1.9443650000   -3.9957030000    0.1343970000
C        1.3663570000   -2.0990170000   -0.9277170000
Fe      -0.0991420000    0.9462020000    0.3509770000
C       -0.5437570000    5.3447720000    0.6981890000
H       -0.0074540000    4.6954390000    1.3934320000
H        0.0227780000    5.7259400000   -0.1552500000
C       -1.7377060000    6.0977440000    1.1750000000
H       -2.3307110000    5.5068420000    1.8925620000
H       -1.4568200000    7.0368010000    1.6964910000
H       -2.4028190000    6.3922310000    0.3444440000
Br       0.3652720000    1.9651160000    2.4690130000
C        0.1720090000    1.8082700000   -1.5300400000
H       -0.2032080000    1.1847550000   -2.3489350000
C       -0.7581680000    2.4166460000   -0.6701890000
C       -1.5935360000    3.4587960000   -0.4978570000
H       -1.8048430000    4.1469520000   -1.3233290000
H       -2.2748110000    3.4925780000    0.3540940000
C        1.5474090000    2.2996430000   -1.7088430000
C        2.0664220000    3.3420050000   -0.9148000000
C        2.3915190000    1.7193110000   -2.6743400000
C        3.3721690000    3.7924540000   -1.0945570000
H        1.4338050000    3.7858680000   -0.1480680000
C        3.7010940000    2.1635150000   -2.8450430000
H        2.0124170000    0.9007830000   -3.2919420000
C        4.1984650000    3.2067460000   -2.0583850000
H        3.7532200000    4.6016410000   -0.4663080000
H        4.3422360000    1.6877850000   -3.5910330000
H        5.2272420000    3.5503900000   -2.1872070000
