 Entering Gaussian System, Link 0=/home/users/astar/bmsi/zhangx5/programs/g16/g16
 Input=/home/users/astar/bmsi/zhangx5/scratch/Fe2L1EtBr_allene_major_modred_ts_triplet2/Fe2L1EtBr_allene_major_modred_ts_triplet2.com
 Output=/home/users/astar/bmsi/zhangx5/scratch/Fe2L1EtBr_allene_major_modred_ts_triplet2/Fe2L1EtBr_allene_major_modred_ts_triplet2.log
 Initial command:
 /home/users/astar/bmsi/zhangx5/programs/g16/l1.exe "/scratch/users/astar/bmsi/zhangx5/Fe2L1EtBr_allene_major_modred_ts_triplet2/Gau-2949683.inp" -scrdir="/scratch/users/astar/bmsi/zhangx5/Fe2L1EtBr_allene_major_modred_ts_triplet2/"
 Entering Link 1 = /home/users/astar/bmsi/zhangx5/programs/g16/l1.exe PID=   2949684.
  
 Copyright (c) 1988-2017, Gaussian, Inc.  All Rights Reserved.
  
 This is part of the Gaussian(R) 16 program.  It is based on
 the Gaussian(R) 09 system (copyright 2009, Gaussian, Inc.),
 the Gaussian(R) 03 system (copyright 2003, Gaussian, Inc.),
 the Gaussian(R) 98 system (copyright 1998, Gaussian, Inc.),
 the Gaussian(R) 94 system (copyright 1995, Gaussian, Inc.),
 the Gaussian 92(TM) system (copyright 1992, Gaussian, Inc.),
 the Gaussian 90(TM) system (copyright 1990, Gaussian, Inc.),
 the Gaussian 88(TM) system (copyright 1988, Gaussian, Inc.),
 the Gaussian 86(TM) system (copyright 1986, Carnegie Mellon
 University), and the Gaussian 82(TM) system (copyright 1983,
 Carnegie Mellon University). Gaussian is a federally registered
 trademark of Gaussian, Inc.
  
 This software contains proprietary and confidential information,
 including trade secrets, belonging to Gaussian, Inc.
  
 This software is provided under written license and may be
 used, copied, transmitted, or stored only in accord with that
 written license.
  
 The following legend is applicable only to US Government
 contracts under FAR:
  
                    RESTRICTED RIGHTS LEGEND
  
 Use, reproduction and disclosure by the US Government is
 subject to restrictions as set forth in subparagraphs (a)
 and (c) of the Commercial Computer Software - Restricted
 Rights clause in FAR 52.227-19.
  
 Gaussian, Inc.
 340 Quinnipiac St., Bldg. 40, Wallingford CT 06492
  
  
 ---------------------------------------------------------------
 Warning -- This program may not be used in any manner that
 competes with the business of Gaussian, Inc. or will provide
 assistance to any competitor of Gaussian, Inc.  The licensee
 of this program is prohibited from giving any competitor of
 Gaussian, Inc. access to this program.  By using this program,
 the user acknowledges that Gaussian, Inc. is engaged in the
 business of creating and licensing software in the field of
 computational chemistry and represents and warrants to the
 licensee that it is not a competitor of Gaussian, Inc. and that
 it will not use this program in any manner prohibited above.
 ---------------------------------------------------------------
  

 Cite this work as:
 Gaussian 16, Revision B.01,
 M. J. Frisch, G. W. Trucks, H. B. Schlegel, G. E. Scuseria, 
 M. A. Robb, J. R. Cheeseman, G. Scalmani, V. Barone, 
 G. A. Petersson, H. Nakatsuji, X. Li, M. Caricato, A. V. Marenich, 
 J. Bloino, B. G. Janesko, R. Gomperts, B. Mennucci, H. P. Hratchian, 
 J. V. Ortiz, A. F. Izmaylov, J. L. Sonnenberg, D. Williams-Young, 
 F. Ding, F. Lipparini, F. Egidi, J. Goings, B. Peng, A. Petrone, 
 T. Henderson, D. Ranasinghe, V. G. Zakrzewski, J. Gao, N. Rega, 
 G. Zheng, W. Liang, M. Hada, M. Ehara, K. Toyota, R. Fukuda, 
 J. Hasegawa, M. Ishida, T. Nakajima, Y. Honda, O. Kitao, H. Nakai, 
 T. Vreven, K. Throssell, J. A. Montgomery, Jr., J. E. Peralta, 
 F. Ogliaro, M. J. Bearpark, J. J. Heyd, E. N. Brothers, K. N. Kudin, 
 V. N. Staroverov, T. A. Keith, R. Kobayashi, J. Normand, 
 K. Raghavachari, A. P. Rendell, J. C. Burant, S. S. Iyengar, 
 J. Tomasi, M. Cossi, J. M. Millam, M. Klene, C. Adamo, R. Cammi, 
 J. W. Ochterski, R. L. Martin, K. Morokuma, O. Farkas, 
 J. B. Foresman, and D. J. Fox, Gaussian, Inc., Wallingford CT, 2016.
 
 ******************************************
 Gaussian 16:  ES64L-G16RevB.01 20-Dec-2017
                14-Mar-2023 
 ******************************************
 %chk=Fe2L1EtBr_allene_major_modred_ts_triplet2.chk
 %nprocshared=64
 Will use up to   64 processors via shared memory.
 %mem=64GB
 ----------------------------------------------------------------------
 # opt=(ts,calcfc,noeigentest) freq b3lyp empiricaldispersion=gd3bj def
 2svp scf=qc
 ----------------------------------------------------------------------
 1/5=1,10=4,11=1,18=20,26=3,38=1/1,3;
 2/9=110,12=2,17=6,18=5,40=1/2;
 3/5=43,7=101,11=2,25=1,30=1,71=2,74=-5,124=41,140=1/1,2,3;
 4//1;
 5/5=2,8=3,38=5/8;
 8/6=4,10=90,11=11/1;
 11/6=1,8=1,9=11,15=111,16=1/1,2,10;
 10/6=1,13=1/2;
 6/7=2,8=2,9=2,10=2,28=1/1;
 7/10=1,18=20,25=1/1,2,3,16;
 1/5=1,10=4,11=1,18=20,26=3/3(2);
 2/9=110/2;
 99//99;
 2/9=110/2;
 3/5=43,7=101,11=2,25=1,30=1,71=1,74=-5,124=41/1,2,3;
 4/5=5,16=3,69=1/1;
 5/5=2,8=3,38=5/8;
 7//1,2,3,16;
 1/5=1,11=1,18=20,26=3/3(-5);
 2/9=110/2;
 6/7=2,8=2,9=2,10=2,19=2,28=1/1;
 99/9=1/99;
 ------------
 Gaussian job
 ------------
 Symbolic Z-matrix:
 Charge =  0 Multiplicity = 3
 Fe                   -0.30135  -3.11253  -1.20008 
 P                     1.60585  -0.72959   0.2637 
 P                    -1.93526  -0.27989  -0.16826 
 C                     3.76459   0.96118   0.73701 
 H                     3.07138   1.47833   1.40472 
 C                     5.08068   1.40504   0.60982 
 H                     5.4121    2.2749    1.18121 
 C                     5.9655    0.75465  -0.25466 
 H                     6.994     1.10988  -0.35494 
 C                     5.52791  -0.3424   -1.00028 
 H                     6.21226  -0.84937  -1.68511 
 C                     4.21235  -0.79505  -0.87459 
 H                     3.87492  -1.65169  -1.46041 
 C                     3.32689  -0.15085   0.00143 
 C                     0.73837  -1.55005   2.80776 
 H                    -0.11773  -0.9       2.62182 
 C                     0.82581  -2.25559   4.01042 
 H                     0.02299  -2.16904   4.74624 
 C                     1.94271  -3.05164   4.27605 
 H                     2.01383  -3.59926   5.21897 
 C                     2.97997  -3.12953   3.34089 
 H                     3.8648   -3.73477   3.55264 
 C                     2.89405  -2.42362   2.13925 
 H                     3.71732  -2.46811   1.42314 
 C                     1.76196  -1.64429   1.85402 
 C                    -3.10054   0.90566   2.10092 
 H                    -2.27999   1.6223    2.04001 
 C                    -4.05981   1.03329   3.11008 
 H                    -3.98935   1.86409   3.81596 
 C                    -5.09258   0.09992   3.22038 
 H                    -5.83943   0.19892   4.01199 
 C                    -5.16584  -0.96759   2.31828 
 H                    -5.96989  -1.70278   2.40292 
 C                    -4.21187  -1.09735   1.30852 
 H                    -4.27571  -1.92942   0.60467 
 C                    -3.17319  -0.15854   1.19091 
 C                    -2.3996    0.05488  -2.93015 
 H                    -1.48302  -0.5184   -3.06807 
 C                    -3.0754    0.54415  -4.05047 
 H                    -2.67275   0.35788  -5.04903 
 C                    -4.258     1.2702   -3.89361 
 H                    -4.78523   1.65738  -4.76864 
 C                    -4.76196   1.49831  -2.61018 
 H                    -5.6862    2.06571  -2.47736 
 C                    -4.08785   1.00945  -1.49015 
 H                    -4.48664   1.20417  -0.49435 
 C                    -2.8978    0.28144  -1.6366 
 C                    -1.89502  -2.09125  -0.42767 
 C                    -2.31713  -2.84801  -1.57342 
 H                    -2.75007  -2.43525  -2.47951 
 C                    -2.05272  -4.22522  -1.32249 
 H                    -2.23306  -5.04102  -2.02034 
 C                    -1.48421  -4.33766  -0.01922 
 H                    -1.1489   -5.25716   0.45715 
 C                    -1.38724  -3.02951   0.53519 
 H                    -0.97519  -2.7837    1.50922 
 C                     0.91496  -1.86152  -2.28189 
 H                     0.61796  -0.90195  -2.69574 
 C                     0.84691  -3.12737  -2.93305 
 H                     0.47133  -3.31065  -3.93815 
 C                     1.31812  -4.11873  -2.0204 
 H                     1.36048  -5.19124  -2.20229 
 C                     1.68053  -3.4683   -0.80484 
 H                     2.04016  -3.94777   0.10184 
 C                     1.42818  -2.0624   -0.95593 
 Fe                   -0.09801   0.93646   0.35041 
 C                    -0.78025   5.29957   0.57345 
 H                    -0.19987   4.75243   1.31997 
 H                    -0.19812   5.68573  -0.2684 
 C                    -1.96175   6.09135   1.03209 
 H                    -2.45542   5.61943   1.89717 
 H                    -1.6872    7.12208   1.33586 
 H                    -2.71998   6.20085   0.23482 
 Br                    0.4157    2.02503   2.42003 
 C                     0.04742   1.84666  -1.51067 
 H                    -0.30301   1.19288  -2.31703 
 C                    -0.88903   2.41523  -0.6398 
 C                    -1.74287   3.42883  -0.41859 
 H                    -2.05405   4.06843  -1.25168 
 H                    -2.40947   3.41159   0.44619 
 C                     1.41757   2.36077  -1.68965 
 C                     1.9316    3.41244  -0.90529 
 C                     2.26433   1.77808  -2.65198 
 C                     3.23799   3.86259  -1.09002 
 H                     1.31018   3.87243  -0.13795 
 C                     3.57112   2.22633  -2.83125 
 H                     1.88823   0.95317  -3.26288 
 C                     4.06559   3.27554  -2.05115 
 H                     3.61619   4.67749  -0.46749 
 H                     4.2117    1.7482   -3.57605 
 H                     5.0927    3.62286  -2.18328 
 
 Add virtual bond connecting atoms C78        and C67        Dist= 4.40D+00.
 Add virtual bond connecting atoms H85        and H68        Dist= 4.30D+00.
 Add virtual bond connecting atoms H85        and H69        Dist= 4.46D+00.

 GradGradGradGradGradGradGradGradGradGradGradGradGradGradGradGradGradGrad
 Berny optimization.
 Initialization pass.
                           ----------------------------
                           !    Initial Parameters    !
                           ! (Angstroms and Degrees)  !
 --------------------------                            --------------------------
 ! Name  Definition              Value          Derivative Info.                !
 --------------------------------------------------------------------------------
 ! R1    R(1,48)                 2.0444         calculate D2E/DX2 analytically  !
 ! R2    R(1,49)                 2.0671         calculate D2E/DX2 analytically  !
 ! R3    R(1,51)                 2.0785         calculate D2E/DX2 analytically  !
 ! R4    R(1,53)                 2.0723         calculate D2E/DX2 analytically  !
 ! R5    R(1,55)                 2.0487         calculate D2E/DX2 analytically  !
 ! R6    R(1,57)                 2.053          calculate D2E/DX2 analytically  !
 ! R7    R(1,59)                 2.0789         calculate D2E/DX2 analytically  !
 ! R8    R(1,61)                 2.0756         calculate D2E/DX2 analytically  !
 ! R9    R(1,63)                 2.052          calculate D2E/DX2 analytically  !
 ! R10   R(1,65)                 2.038          calculate D2E/DX2 analytically  !
 ! R11   R(2,14)                 1.8346         calculate D2E/DX2 analytically  !
 ! R12   R(2,25)                 1.8412         calculate D2E/DX2 analytically  !
 ! R13   R(2,65)                 1.8153         calculate D2E/DX2 analytically  !
 ! R14   R(2,66)                 2.3846         calculate D2E/DX2 analytically  !
 ! R15   R(3,36)                 1.8424         calculate D2E/DX2 analytically  !
 ! R16   R(3,47)                 1.8433         calculate D2E/DX2 analytically  !
 ! R17   R(3,48)                 1.8303         calculate D2E/DX2 analytically  !
 ! R18   R(3,66)                 2.2636         calculate D2E/DX2 analytically  !
 ! R19   R(4,5)                  1.0926         calculate D2E/DX2 analytically  !
 ! R20   R(4,6)                  1.3947         calculate D2E/DX2 analytically  !
 ! R21   R(4,14)                 1.4033         calculate D2E/DX2 analytically  !
 ! R22   R(6,7)                  1.0922         calculate D2E/DX2 analytically  !
 ! R23   R(6,8)                  1.3976         calculate D2E/DX2 analytically  !
 ! R24   R(8,9)                  1.0927         calculate D2E/DX2 analytically  !
 ! R25   R(8,10)                 1.3968         calculate D2E/DX2 analytically  !
 ! R26   R(10,11)                1.0929         calculate D2E/DX2 analytically  !
 ! R27   R(10,12)                1.3969         calculate D2E/DX2 analytically  !
 ! R28   R(12,13)                1.0913         calculate D2E/DX2 analytically  !
 ! R29   R(12,14)                1.4023         calculate D2E/DX2 analytically  !
 ! R30   R(15,16)                1.0909         calculate D2E/DX2 analytically  !
 ! R31   R(15,17)                1.3971         calculate D2E/DX2 analytically  !
 ! R32   R(15,25)                1.4022         calculate D2E/DX2 analytically  !
 ! R33   R(17,18)                1.0924         calculate D2E/DX2 analytically  !
 ! R34   R(17,19)                1.397          calculate D2E/DX2 analytically  !
 ! R35   R(19,20)                1.0927         calculate D2E/DX2 analytically  !
 ! R36   R(19,21)                1.3987         calculate D2E/DX2 analytically  !
 ! R37   R(21,22)                1.0927         calculate D2E/DX2 analytically  !
 ! R38   R(21,23)                1.3963         calculate D2E/DX2 analytically  !
 ! R39   R(23,24)                1.092          calculate D2E/DX2 analytically  !
 ! R40   R(23,25)                1.4037         calculate D2E/DX2 analytically  !
 ! R41   R(26,27)                1.0911         calculate D2E/DX2 analytically  !
 ! R42   R(26,28)                1.3982         calculate D2E/DX2 analytically  !
 ! R43   R(26,36)                1.4021         calculate D2E/DX2 analytically  !
 ! R44   R(28,29)                1.0925         calculate D2E/DX2 analytically  !
 ! R45   R(28,30)                1.3964         calculate D2E/DX2 analytically  !
 ! R46   R(30,31)                1.0928         calculate D2E/DX2 analytically  !
 ! R47   R(30,32)                1.3995         calculate D2E/DX2 analytically  !
 ! R48   R(32,33)                1.0928         calculate D2E/DX2 analytically  !
 ! R49   R(32,34)                1.3952         calculate D2E/DX2 analytically  !
 ! R50   R(34,35)                1.0917         calculate D2E/DX2 analytically  !
 ! R51   R(34,36)                1.405          calculate D2E/DX2 analytically  !
 ! R52   R(37,38)                1.0899         calculate D2E/DX2 analytically  !
 ! R53   R(37,39)                1.3969         calculate D2E/DX2 analytically  !
 ! R54   R(37,47)                1.4046         calculate D2E/DX2 analytically  !
 ! R55   R(39,40)                1.0927         calculate D2E/DX2 analytically  !
 ! R56   R(39,41)                1.3965         calculate D2E/DX2 analytically  !
 ! R57   R(41,42)                1.0925         calculate D2E/DX2 analytically  !
 ! R58   R(41,43)                1.3976         calculate D2E/DX2 analytically  !
 ! R59   R(43,44)                1.0926         calculate D2E/DX2 analytically  !
 ! R60   R(43,45)                1.3957         calculate D2E/DX2 analytically  !
 ! R61   R(45,46)                1.0902         calculate D2E/DX2 analytically  !
 ! R62   R(45,47)                1.4027         calculate D2E/DX2 analytically  !
 ! R63   R(48,49)                1.4365         calculate D2E/DX2 analytically  !
 ! R64   R(48,55)                1.4371         calculate D2E/DX2 analytically  !
 ! R65   R(49,50)                1.0857         calculate D2E/DX2 analytically  !
 ! R66   R(49,51)                1.4246         calculate D2E/DX2 analytically  !
 ! R67   R(51,52)                1.0886         calculate D2E/DX2 analytically  !
 ! R68   R(51,53)                1.4263         calculate D2E/DX2 analytically  !
 ! R69   R(53,54)                1.0885         calculate D2E/DX2 analytically  !
 ! R70   R(53,55)                1.4241         calculate D2E/DX2 analytically  !
 ! R71   R(55,56)                1.0858         calculate D2E/DX2 analytically  !
 ! R72   R(57,58)                1.0864         calculate D2E/DX2 analytically  !
 ! R73   R(57,59)                1.4251         calculate D2E/DX2 analytically  !
 ! R74   R(57,65)                1.4359         calculate D2E/DX2 analytically  !
 ! R75   R(59,60)                1.0885         calculate D2E/DX2 analytically  !
 ! R76   R(59,61)                1.4275         calculate D2E/DX2 analytically  !
 ! R77   R(61,62)                1.0886         calculate D2E/DX2 analytically  !
 ! R78   R(61,63)                1.4255         calculate D2E/DX2 analytically  !
 ! R79   R(63,64)                1.0869         calculate D2E/DX2 analytically  !
 ! R80   R(63,65)                1.4363         calculate D2E/DX2 analytically  !
 ! R81   R(66,74)                2.3942         calculate D2E/DX2 analytically  !
 ! R82   R(66,75)                2.0768         calculate D2E/DX2 analytically  !
 ! R83   R(66,77)                1.9476         calculate D2E/DX2 analytically  !
 ! R84   R(67,68)                1.0925         calculate D2E/DX2 analytically  !
 ! R85   R(67,69)                1.0939         calculate D2E/DX2 analytically  !
 ! R86   R(67,70)                1.4944         calculate D2E/DX2 analytically  !
 ! R87   R(67,78)                2.326          calculate D2E/DX2 analytically  !
 ! R88   R(68,85)                2.276          calculate D2E/DX2 analytically  !
 ! R89   R(69,85)                2.3622         calculate D2E/DX2 analytically  !
 ! R90   R(70,71)                1.1022         calculate D2E/DX2 analytically  !
 ! R91   R(70,72)                1.1091         calculate D2E/DX2 analytically  !
 ! R92   R(70,73)                1.1057         calculate D2E/DX2 analytically  !
 ! R93   R(75,76)                1.0957         calculate D2E/DX2 analytically  !
 ! R94   R(75,77)                1.3995         calculate D2E/DX2 analytically  !
 ! R95   R(75,81)                1.4743         calculate D2E/DX2 analytically  !
 ! R96   R(77,78)                1.3436         calculate D2E/DX2 analytically  !
 ! R97   R(78,79)                1.0954         calculate D2E/DX2 analytically  !
 ! R98   R(78,80)                1.092          calculate D2E/DX2 analytically  !
 ! R99   R(81,82)                1.4091         calculate D2E/DX2 analytically  !
 ! R100  R(81,83)                1.408          calculate D2E/DX2 analytically  !
 ! R101  R(82,84)                1.3941         calculate D2E/DX2 analytically  !
 ! R102  R(82,85)                1.0893         calculate D2E/DX2 analytically  !
 ! R103  R(83,86)                1.3931         calculate D2E/DX2 analytically  !
 ! R104  R(83,87)                1.0932         calculate D2E/DX2 analytically  !
 ! R105  R(84,88)                1.3976         calculate D2E/DX2 analytically  !
 ! R106  R(84,89)                1.093          calculate D2E/DX2 analytically  !
 ! R107  R(86,88)                1.3978         calculate D2E/DX2 analytically  !
 ! R108  R(86,90)                1.0926         calculate D2E/DX2 analytically  !
 ! R109  R(88,91)                1.0923         calculate D2E/DX2 analytically  !
 ! A1    A(48,1,51)             68.4592         calculate D2E/DX2 analytically  !
 ! A2    A(48,1,53)             68.5975         calculate D2E/DX2 analytically  !
 ! A3    A(48,1,57)            110.8872         calculate D2E/DX2 analytically  !
 ! A4    A(48,1,59)            138.5115         calculate D2E/DX2 analytically  !
 ! A5    A(48,1,63)            140.063          calculate D2E/DX2 analytically  !
 ! A6    A(48,1,65)            111.0307         calculate D2E/DX2 analytically  !
 ! A7    A(49,1,53)             67.7866         calculate D2E/DX2 analytically  !
 ! A8    A(49,1,55)             68.3404         calculate D2E/DX2 analytically  !
 ! A9    A(49,1,57)            113.8668         calculate D2E/DX2 analytically  !
 ! A10   A(49,1,59)            112.8916         calculate D2E/DX2 analytically  !
 ! A11   A(49,1,61)            138.7246         calculate D2E/DX2 analytically  !
 ! A12   A(49,1,65)            141.5607         calculate D2E/DX2 analytically  !
 ! A13   A(51,1,55)             67.9736         calculate D2E/DX2 analytically  !
 ! A14   A(51,1,57)            142.5964         calculate D2E/DX2 analytically  !
 ! A15   A(51,1,59)            114.3608         calculate D2E/DX2 analytically  !
 ! A16   A(51,1,61)            112.0023         calculate D2E/DX2 analytically  !
 ! A17   A(51,1,63)            137.0824         calculate D2E/DX2 analytically  !
 ! A18   A(53,1,59)            141.8175         calculate D2E/DX2 analytically  !
 ! A19   A(53,1,61)            112.5797         calculate D2E/DX2 analytically  !
 ! A20   A(53,1,63)            109.8178         calculate D2E/DX2 analytically  !
 ! A21   A(53,1,65)            136.1151         calculate D2E/DX2 analytically  !
 ! A22   A(55,1,57)            137.3628         calculate D2E/DX2 analytically  !
 ! A23   A(55,1,61)            140.1709         calculate D2E/DX2 analytically  !
 ! A24   A(55,1,63)            110.8429         calculate D2E/DX2 analytically  !
 ! A25   A(55,1,65)            109.114          calculate D2E/DX2 analytically  !
 ! A26   A(57,1,61)             67.9683         calculate D2E/DX2 analytically  !
 ! A27   A(57,1,63)             68.5881         calculate D2E/DX2 analytically  !
 ! A28   A(59,1,63)             68.0288         calculate D2E/DX2 analytically  !
 ! A29   A(59,1,65)             68.5814         calculate D2E/DX2 analytically  !
 ! A30   A(61,1,65)             68.5926         calculate D2E/DX2 analytically  !
 ! A31   A(14,2,25)            101.5752         calculate D2E/DX2 analytically  !
 ! A32   A(14,2,65)            103.1426         calculate D2E/DX2 analytically  !
 ! A33   A(14,2,66)            117.0711         calculate D2E/DX2 analytically  !
 ! A34   A(25,2,65)            102.935          calculate D2E/DX2 analytically  !
 ! A35   A(25,2,66)            112.1024         calculate D2E/DX2 analytically  !
 ! A36   A(65,2,66)            117.8694         calculate D2E/DX2 analytically  !
 ! A37   A(36,3,47)            102.5171         calculate D2E/DX2 analytically  !
 ! A38   A(36,3,48)            100.6327         calculate D2E/DX2 analytically  !
 ! A39   A(36,3,66)            109.933          calculate D2E/DX2 analytically  !
 ! A40   A(47,3,48)            101.5347         calculate D2E/DX2 analytically  !
 ! A41   A(47,3,66)            116.2776         calculate D2E/DX2 analytically  !
 ! A42   A(48,3,66)            123.1219         calculate D2E/DX2 analytically  !
 ! A43   A(5,4,6)              120.2501         calculate D2E/DX2 analytically  !
 ! A44   A(5,4,14)             119.8354         calculate D2E/DX2 analytically  !
 ! A45   A(6,4,14)             119.9141         calculate D2E/DX2 analytically  !
 ! A46   A(4,6,7)              119.4765         calculate D2E/DX2 analytically  !
 ! A47   A(4,6,8)              120.3792         calculate D2E/DX2 analytically  !
 ! A48   A(7,6,8)              120.1388         calculate D2E/DX2 analytically  !
 ! A49   A(6,8,9)              120.0915         calculate D2E/DX2 analytically  !
 ! A50   A(6,8,10)             119.8252         calculate D2E/DX2 analytically  !
 ! A51   A(9,8,10)             120.0802         calculate D2E/DX2 analytically  !
 ! A52   A(8,10,11)            120.1772         calculate D2E/DX2 analytically  !
 ! A53   A(8,10,12)            120.1006         calculate D2E/DX2 analytically  !
 ! A54   A(11,10,12)           119.7222         calculate D2E/DX2 analytically  !
 ! A55   A(10,12,13)           119.8196         calculate D2E/DX2 analytically  !
 ! A56   A(10,12,14)           120.1327         calculate D2E/DX2 analytically  !
 ! A57   A(13,12,14)           120.0477         calculate D2E/DX2 analytically  !
 ! A58   A(2,14,4)             117.8816         calculate D2E/DX2 analytically  !
 ! A59   A(2,14,12)            122.4622         calculate D2E/DX2 analytically  !
 ! A60   A(4,14,12)            119.6396         calculate D2E/DX2 analytically  !
 ! A61   A(16,15,17)           119.7872         calculate D2E/DX2 analytically  !
 ! A62   A(16,15,25)           119.7996         calculate D2E/DX2 analytically  !
 ! A63   A(17,15,25)           120.3904         calculate D2E/DX2 analytically  !
 ! A64   A(15,17,18)           119.5915         calculate D2E/DX2 analytically  !
 ! A65   A(15,17,19)           120.0974         calculate D2E/DX2 analytically  !
 ! A66   A(18,17,19)           120.3052         calculate D2E/DX2 analytically  !
 ! A67   A(17,19,20)           120.11           calculate D2E/DX2 analytically  !
 ! A68   A(17,19,21)           119.8332         calculate D2E/DX2 analytically  !
 ! A69   A(20,19,21)           120.0492         calculate D2E/DX2 analytically  !
 ! A70   A(19,21,22)           120.1164         calculate D2E/DX2 analytically  !
 ! A71   A(19,21,23)           120.1048         calculate D2E/DX2 analytically  !
 ! A72   A(22,21,23)           119.7758         calculate D2E/DX2 analytically  !
 ! A73   A(21,23,24)           119.8248         calculate D2E/DX2 analytically  !
 ! A74   A(21,23,25)           120.3439         calculate D2E/DX2 analytically  !
 ! A75   A(24,23,25)           119.8269         calculate D2E/DX2 analytically  !
 ! A76   A(2,25,15)            119.485          calculate D2E/DX2 analytically  !
 ! A77   A(2,25,23)            121.3127         calculate D2E/DX2 analytically  !
 ! A78   A(15,25,23)           119.1981         calculate D2E/DX2 analytically  !
 ! A79   A(27,26,28)           119.7545         calculate D2E/DX2 analytically  !
 ! A80   A(27,26,36)           120.0814         calculate D2E/DX2 analytically  !
 ! A81   A(28,26,36)           120.1445         calculate D2E/DX2 analytically  !
 ! A82   A(26,28,29)           119.4413         calculate D2E/DX2 analytically  !
 ! A83   A(26,28,30)           120.2262         calculate D2E/DX2 analytically  !
 ! A84   A(29,28,30)           120.3304         calculate D2E/DX2 analytically  !
 ! A85   A(28,30,31)           120.1398         calculate D2E/DX2 analytically  !
 ! A86   A(28,30,32)           119.8437         calculate D2E/DX2 analytically  !
 ! A87   A(31,30,32)           120.0157         calculate D2E/DX2 analytically  !
 ! A88   A(30,32,33)           120.116          calculate D2E/DX2 analytically  !
 ! A89   A(30,32,34)           120.1095         calculate D2E/DX2 analytically  !
 ! A90   A(33,32,34)           119.7745         calculate D2E/DX2 analytically  !
 ! A91   A(32,34,35)           119.8362         calculate D2E/DX2 analytically  !
 ! A92   A(32,34,36)           120.2601         calculate D2E/DX2 analytically  !
 ! A93   A(35,34,36)           119.9031         calculate D2E/DX2 analytically  !
 ! A94   A(3,36,26)            119.6016         calculate D2E/DX2 analytically  !
 ! A95   A(3,36,34)            120.9615         calculate D2E/DX2 analytically  !
 ! A96   A(26,36,34)           119.4147         calculate D2E/DX2 analytically  !
 ! A97   A(38,37,39)           119.3159         calculate D2E/DX2 analytically  !
 ! A98   A(38,37,47)           119.9802         calculate D2E/DX2 analytically  !
 ! A99   A(39,37,47)           120.6997         calculate D2E/DX2 analytically  !
 ! A100  A(37,39,40)           119.6667         calculate D2E/DX2 analytically  !
 ! A101  A(37,39,41)           120.1127         calculate D2E/DX2 analytically  !
 ! A102  A(40,39,41)           120.2204         calculate D2E/DX2 analytically  !
 ! A103  A(39,41,42)           120.1951         calculate D2E/DX2 analytically  !
 ! A104  A(39,41,43)           119.5617         calculate D2E/DX2 analytically  !
 ! A105  A(42,41,43)           120.2432         calculate D2E/DX2 analytically  !
 ! A106  A(41,43,44)           120.0936         calculate D2E/DX2 analytically  !
 ! A107  A(41,43,45)           120.3732         calculate D2E/DX2 analytically  !
 ! A108  A(44,43,45)           119.5327         calculate D2E/DX2 analytically  !
 ! A109  A(43,45,46)           119.5885         calculate D2E/DX2 analytically  !
 ! A110  A(43,45,47)           120.5156         calculate D2E/DX2 analytically  !
 ! A111  A(46,45,47)           119.8935         calculate D2E/DX2 analytically  !
 ! A112  A(3,47,37)            119.9533         calculate D2E/DX2 analytically  !
 ! A113  A(3,47,45)            121.1916         calculate D2E/DX2 analytically  !
 ! A114  A(37,47,45)           118.7367         calculate D2E/DX2 analytically  !
 ! A115  A(1,48,3)             124.408          calculate D2E/DX2 analytically  !
 ! A116  A(3,48,49)            128.8979         calculate D2E/DX2 analytically  !
 ! A117  A(3,48,55)            123.9826         calculate D2E/DX2 analytically  !
 ! A118  A(49,48,55)           107.1136         calculate D2E/DX2 analytically  !
 ! A119  A(1,49,50)            126.0327         calculate D2E/DX2 analytically  !
 ! A120  A(48,49,50)           125.628          calculate D2E/DX2 analytically  !
 ! A121  A(48,49,51)           108.3148         calculate D2E/DX2 analytically  !
 ! A122  A(50,49,51)           126.0518         calculate D2E/DX2 analytically  !
 ! A123  A(1,51,52)            125.3458         calculate D2E/DX2 analytically  !
 ! A124  A(49,51,52)           125.5061         calculate D2E/DX2 analytically  !
 ! A125  A(49,51,53)           108.1275         calculate D2E/DX2 analytically  !
 ! A126  A(52,51,53)           126.3496         calculate D2E/DX2 analytically  !
 ! A127  A(1,53,54)            124.9555         calculate D2E/DX2 analytically  !
 ! A128  A(51,53,54)           126.1049         calculate D2E/DX2 analytically  !
 ! A129  A(51,53,55)           108.0864         calculate D2E/DX2 analytically  !
 ! A130  A(54,53,55)           125.7754         calculate D2E/DX2 analytically  !
 ! A131  A(1,55,56)            124.6005         calculate D2E/DX2 analytically  !
 ! A132  A(48,55,53)           108.3507         calculate D2E/DX2 analytically  !
 ! A133  A(48,55,56)           125.9666         calculate D2E/DX2 analytically  !
 ! A134  A(53,55,56)           125.6647         calculate D2E/DX2 analytically  !
 ! A135  A(1,57,58)            125.2392         calculate D2E/DX2 analytically  !
 ! A136  A(58,57,59)           126.6857         calculate D2E/DX2 analytically  !
 ! A137  A(58,57,65)           124.9626         calculate D2E/DX2 analytically  !
 ! A138  A(59,57,65)           108.344          calculate D2E/DX2 analytically  !
 ! A139  A(1,59,60)            125.4742         calculate D2E/DX2 analytically  !
 ! A140  A(57,59,60)           126.0097         calculate D2E/DX2 analytically  !
 ! A141  A(57,59,61)           107.9973         calculate D2E/DX2 analytically  !
 ! A142  A(60,59,61)           125.9658         calculate D2E/DX2 analytically  !
 ! A143  A(1,61,62)            125.0284         calculate D2E/DX2 analytically  !
 ! A144  A(59,61,62)           126.1716         calculate D2E/DX2 analytically  !
 ! A145  A(59,61,63)           108.1934         calculate D2E/DX2 analytically  !
 ! A146  A(62,61,63)           125.5987         calculate D2E/DX2 analytically  !
 ! A147  A(1,63,64)            123.8312         calculate D2E/DX2 analytically  !
 ! A148  A(61,63,64)           126.4555         calculate D2E/DX2 analytically  !
 ! A149  A(61,63,65)           108.1952         calculate D2E/DX2 analytically  !
 ! A150  A(64,63,65)           125.2874         calculate D2E/DX2 analytically  !
 ! A151  A(1,65,2)             122.8093         calculate D2E/DX2 analytically  !
 ! A152  A(2,65,57)            123.5496         calculate D2E/DX2 analytically  !
 ! A153  A(2,65,63)            129.1071         calculate D2E/DX2 analytically  !
 ! A154  A(57,65,63)           107.269          calculate D2E/DX2 analytically  !
 ! A155  A(2,66,3)             101.3134         calculate D2E/DX2 analytically  !
 ! A156  A(2,66,74)            101.2907         calculate D2E/DX2 analytically  !
 ! A157  A(2,66,75)            102.9197         calculate D2E/DX2 analytically  !
 ! A158  A(2,66,77)            143.3423         calculate D2E/DX2 analytically  !
 ! A159  A(3,66,74)            128.0632         calculate D2E/DX2 analytically  !
 ! A160  A(3,66,75)             94.9913         calculate D2E/DX2 analytically  !
 ! A161  A(3,66,77)             87.8135         calculate D2E/DX2 analytically  !
 ! A162  A(74,66,75)           124.0791         calculate D2E/DX2 analytically  !
 ! A163  A(74,66,77)           100.4529         calculate D2E/DX2 analytically  !
 ! A164  A(68,67,69)           114.8311         calculate D2E/DX2 analytically  !
 ! A165  A(68,67,70)           118.4024         calculate D2E/DX2 analytically  !
 ! A166  A(68,67,78)            96.2289         calculate D2E/DX2 analytically  !
 ! A167  A(69,67,70)           118.0263         calculate D2E/DX2 analytically  !
 ! A168  A(69,67,78)           100.1319         calculate D2E/DX2 analytically  !
 ! A169  A(70,67,78)           103.2867         calculate D2E/DX2 analytically  !
 ! A170  A(67,68,85)            96.2228         calculate D2E/DX2 analytically  !
 ! A171  A(67,69,85)            91.5078         calculate D2E/DX2 analytically  !
 ! A172  A(67,70,71)           111.6016         calculate D2E/DX2 analytically  !
 ! A173  A(67,70,72)           112.3801         calculate D2E/DX2 analytically  !
 ! A174  A(67,70,73)           111.9223         calculate D2E/DX2 analytically  !
 ! A175  A(71,70,72)           107.0873         calculate D2E/DX2 analytically  !
 ! A176  A(71,70,73)           107.5298         calculate D2E/DX2 analytically  !
 ! A177  A(72,70,73)           105.9745         calculate D2E/DX2 analytically  !
 ! A178  A(66,75,76)           112.0609         calculate D2E/DX2 analytically  !
 ! A179  A(66,75,81)           109.0679         calculate D2E/DX2 analytically  !
 ! A180  A(76,75,77)           119.1028         calculate D2E/DX2 analytically  !
 ! A181  A(76,75,81)           114.58           calculate D2E/DX2 analytically  !
 ! A182  A(77,75,81)           123.7606         calculate D2E/DX2 analytically  !
 ! A183  A(66,77,78)           138.3473         calculate D2E/DX2 analytically  !
 ! A184  A(75,77,78)           146.5249         calculate D2E/DX2 analytically  !
 ! A185  A(67,78,77)           114.4525         calculate D2E/DX2 analytically  !
 ! A186  A(67,78,79)            88.4138         calculate D2E/DX2 analytically  !
 ! A187  A(67,78,80)            85.8466         calculate D2E/DX2 analytically  !
 ! A188  A(77,78,79)           119.7214         calculate D2E/DX2 analytically  !
 ! A189  A(77,78,80)           120.4226         calculate D2E/DX2 analytically  !
 ! A190  A(79,78,80)           115.9808         calculate D2E/DX2 analytically  !
 ! A191  A(75,81,82)           122.1207         calculate D2E/DX2 analytically  !
 ! A192  A(75,81,83)           119.8375         calculate D2E/DX2 analytically  !
 ! A193  A(82,81,83)           118.0297         calculate D2E/DX2 analytically  !
 ! A194  A(81,82,84)           120.6039         calculate D2E/DX2 analytically  !
 ! A195  A(81,82,85)           119.9468         calculate D2E/DX2 analytically  !
 ! A196  A(84,82,85)           119.4449         calculate D2E/DX2 analytically  !
 ! A197  A(81,83,86)           121.2584         calculate D2E/DX2 analytically  !
 ! A198  A(81,83,87)           119.1624         calculate D2E/DX2 analytically  !
 ! A199  A(86,83,87)           119.5774         calculate D2E/DX2 analytically  !
 ! A200  A(82,84,88)           120.691          calculate D2E/DX2 analytically  !
 ! A201  A(82,84,89)           119.3102         calculate D2E/DX2 analytically  !
 ! A202  A(88,84,89)           119.9966         calculate D2E/DX2 analytically  !
 ! A203  A(68,85,69)            46.7601         calculate D2E/DX2 analytically  !
 ! A204  A(69,85,82)           130.5052         calculate D2E/DX2 analytically  !
 ! A205  A(83,86,88)           120.1008         calculate D2E/DX2 analytically  !
 ! A206  A(83,86,90)           119.7944         calculate D2E/DX2 analytically  !
 ! A207  A(88,86,90)           120.1016         calculate D2E/DX2 analytically  !
 ! A208  A(84,88,86)           119.3146         calculate D2E/DX2 analytically  !
 ! A209  A(84,88,91)           120.4279         calculate D2E/DX2 analytically  !
 ! A210  A(86,88,91)           120.2524         calculate D2E/DX2 analytically  !
 ! A211  L(48,1,61,51,-1)      180.4615         calculate D2E/DX2 analytically  !
 ! A212  L(49,1,63,53,-1)      177.6044         calculate D2E/DX2 analytically  !
 ! A213  L(51,1,65,48,-1)      179.49           calculate D2E/DX2 analytically  !
 ! A214  L(53,1,57,48,-1)      179.4847         calculate D2E/DX2 analytically  !
 ! A215  L(55,1,59,49,-1)      181.232          calculate D2E/DX2 analytically  !
 ! A216  L(68,85,82,69,-1)     177.2653         calculate D2E/DX2 analytically  !
 ! A217  L(48,1,61,51,-2)      178.6815         calculate D2E/DX2 analytically  !
 ! A218  L(49,1,63,53,-2)      178.5655         calculate D2E/DX2 analytically  !
 ! A219  L(51,1,65,48,-2)      176.0766         calculate D2E/DX2 analytically  !
 ! A220  L(53,1,57,48,-2)      176.8926         calculate D2E/DX2 analytically  !
 ! A221  L(55,1,59,49,-2)      177.7425         calculate D2E/DX2 analytically  !
 ! A222  L(68,85,82,69,-2)     188.3413         calculate D2E/DX2 analytically  !
 ! D1    D(51,1,48,3)         -161.3436         calculate D2E/DX2 analytically  !
 ! D2    D(53,1,48,3)          155.3194         calculate D2E/DX2 analytically  !
 ! D3    D(57,1,48,3)          -21.5731         calculate D2E/DX2 analytically  !
 ! D4    D(59,1,48,3)          -58.4553         calculate D2E/DX2 analytically  !
 ! D5    D(63,1,48,3)           59.632          calculate D2E/DX2 analytically  !
 ! D6    D(65,1,48,3)           22.5799         calculate D2E/DX2 analytically  !
 ! D7    D(3,48,61,62)        -178.7744         calculate D2E/DX2 analytically  !
 ! D8    D(53,1,49,50)        -158.1906         calculate D2E/DX2 analytically  !
 ! D9    D(55,1,49,50)         158.0745         calculate D2E/DX2 analytically  !
 ! D10   D(57,1,49,50)          24.4561         calculate D2E/DX2 analytically  !
 ! D11   D(59,1,49,50)         -19.6679         calculate D2E/DX2 analytically  !
 ! D12   D(61,1,49,50)         -58.7816         calculate D2E/DX2 analytically  !
 ! D13   D(65,1,49,50)          64.2686         calculate D2E/DX2 analytically  !
 ! D14   D(50,49,63,64)       -175.8425         calculate D2E/DX2 analytically  !
 ! D15   D(48,1,51,52)         157.2818         calculate D2E/DX2 analytically  !
 ! D16   D(55,1,51,52)        -158.2883         calculate D2E/DX2 analytically  !
 ! D17   D(57,1,51,52)          60.6896         calculate D2E/DX2 analytically  !
 ! D18   D(59,1,51,52)          22.4269         calculate D2E/DX2 analytically  !
 ! D19   D(61,1,51,52)         -21.3997         calculate D2E/DX2 analytically  !
 ! D20   D(63,1,51,52)         -60.9015         calculate D2E/DX2 analytically  !
 ! D21   D(52,51,65,2)        -179.4525         calculate D2E/DX2 analytically  !
 ! D22   D(48,1,53,54)        -157.6707         calculate D2E/DX2 analytically  !
 ! D23   D(49,1,53,54)         158.1293         calculate D2E/DX2 analytically  !
 ! D24   D(59,1,53,54)          58.8968         calculate D2E/DX2 analytically  !
 ! D25   D(61,1,53,54)          22.9453         calculate D2E/DX2 analytically  !
 ! D26   D(63,1,53,54)         -20.4361         calculate D2E/DX2 analytically  !
 ! D27   D(65,1,53,54)         -59.1291         calculate D2E/DX2 analytically  !
 ! D28   D(54,53,57,58)       -174.7244         calculate D2E/DX2 analytically  !
 ! D29   D(49,1,55,56)        -158.6926         calculate D2E/DX2 analytically  !
 ! D30   D(51,1,55,56)         157.8508         calculate D2E/DX2 analytically  !
 ! D31   D(57,1,55,56)         -56.4878         calculate D2E/DX2 analytically  !
 ! D32   D(61,1,55,56)          59.4608         calculate D2E/DX2 analytically  !
 ! D33   D(63,1,55,56)          24.1187         calculate D2E/DX2 analytically  !
 ! D34   D(65,1,55,56)         -19.7267         calculate D2E/DX2 analytically  !
 ! D35   D(56,55,59,60)       -176.2086         calculate D2E/DX2 analytically  !
 ! D36   D(48,1,57,58)         -20.2014         calculate D2E/DX2 analytically  !
 ! D37   D(49,1,57,58)          24.0836         calculate D2E/DX2 analytically  !
 ! D38   D(51,1,57,58)          61.2923         calculate D2E/DX2 analytically  !
 ! D39   D(55,1,57,58)         -59.294          calculate D2E/DX2 analytically  !
 ! D40   D(61,1,57,58)         159.117          calculate D2E/DX2 analytically  !
 ! D41   D(63,1,57,58)        -157.2459         calculate D2E/DX2 analytically  !
 ! D42   D(48,1,59,60)         -59.8821         calculate D2E/DX2 analytically  !
 ! D43   D(49,1,59,60)         -19.4449         calculate D2E/DX2 analytically  !
 ! D44   D(51,1,59,60)          24.5859         calculate D2E/DX2 analytically  !
 ! D45   D(53,1,59,60)          63.2619         calculate D2E/DX2 analytically  !
 ! D46   D(63,1,59,60)         157.7579         calculate D2E/DX2 analytically  !
 ! D47   D(65,1,59,60)        -157.8339         calculate D2E/DX2 analytically  !
 ! D48   D(49,1,61,62)         -56.5781         calculate D2E/DX2 analytically  !
 ! D49   D(51,1,61,62)         -18.6216         calculate D2E/DX2 analytically  !
 ! D50   D(53,1,61,62)          24.9738         calculate D2E/DX2 analytically  !
 ! D51   D(55,1,61,62)          62.9228         calculate D2E/DX2 analytically  !
 ! D52   D(57,1,61,62)        -158.1523         calculate D2E/DX2 analytically  !
 ! D53   D(65,1,61,62)         157.4575         calculate D2E/DX2 analytically  !
 ! D54   D(48,1,63,64)          60.3553         calculate D2E/DX2 analytically  !
 ! D55   D(51,1,63,64)         -56.0434         calculate D2E/DX2 analytically  !
 ! D56   D(53,1,63,64)         -19.6357         calculate D2E/DX2 analytically  !
 ! D57   D(55,1,63,64)          23.5946         calculate D2E/DX2 analytically  !
 ! D58   D(57,1,63,64)         157.7203         calculate D2E/DX2 analytically  !
 ! D59   D(59,1,63,64)        -158.7113         calculate D2E/DX2 analytically  !
 ! D60   D(48,1,65,2)           19.6578         calculate D2E/DX2 analytically  !
 ! D61   D(49,1,65,2)           54.7487         calculate D2E/DX2 analytically  !
 ! D62   D(53,1,65,2)          -60.8892         calculate D2E/DX2 analytically  !
 ! D63   D(55,1,65,2)          -24.1988         calculate D2E/DX2 analytically  !
 ! D64   D(59,1,65,2)          154.9958         calculate D2E/DX2 analytically  !
 ! D65   D(61,1,65,2)         -161.6865         calculate D2E/DX2 analytically  !
 ! D66   D(25,2,14,4)          -78.0465         calculate D2E/DX2 analytically  !
 ! D67   D(25,2,14,12)         100.4634         calculate D2E/DX2 analytically  !
 ! D68   D(65,2,14,4)          175.5462         calculate D2E/DX2 analytically  !
 ! D69   D(65,2,14,12)          -5.9439         calculate D2E/DX2 analytically  !
 ! D70   D(66,2,14,4)           44.366          calculate D2E/DX2 analytically  !
 ! D71   D(66,2,14,12)        -137.124          calculate D2E/DX2 analytically  !
 ! D72   D(14,2,25,15)         140.9286         calculate D2E/DX2 analytically  !
 ! D73   D(14,2,25,23)         -38.3159         calculate D2E/DX2 analytically  !
 ! D74   D(65,2,25,15)        -112.5017         calculate D2E/DX2 analytically  !
 ! D75   D(65,2,25,23)          68.2538         calculate D2E/DX2 analytically  !
 ! D76   D(66,2,25,15)          15.156          calculate D2E/DX2 analytically  !
 ! D77   D(66,2,25,23)        -164.0884         calculate D2E/DX2 analytically  !
 ! D78   D(14,2,65,1)         -178.8953         calculate D2E/DX2 analytically  !
 ! D79   D(14,2,65,57)         -92.3646         calculate D2E/DX2 analytically  !
 ! D80   D(14,2,65,63)          91.1808         calculate D2E/DX2 analytically  !
 ! D81   D(25,2,65,1)           75.7351         calculate D2E/DX2 analytically  !
 ! D82   D(25,2,65,57)         162.2658         calculate D2E/DX2 analytically  !
 ! D83   D(25,2,65,63)         -14.1888         calculate D2E/DX2 analytically  !
 ! D84   D(66,2,65,1)          -48.1936         calculate D2E/DX2 analytically  !
 ! D85   D(66,2,65,57)          38.3371         calculate D2E/DX2 analytically  !
 ! D86   D(66,2,65,63)        -138.1175         calculate D2E/DX2 analytically  !
 ! D87   D(14,2,66,3)          157.8812         calculate D2E/DX2 analytically  !
 ! D88   D(14,2,66,74)         -69.1892         calculate D2E/DX2 analytically  !
 ! D89   D(14,2,66,75)          60.0112         calculate D2E/DX2 analytically  !
 ! D90   D(14,2,66,77)          56.1308         calculate D2E/DX2 analytically  !
 ! D91   D(25,2,66,3)          -85.3254         calculate D2E/DX2 analytically  !
 ! D92   D(25,2,66,74)          47.6041         calculate D2E/DX2 analytically  !
 ! D93   D(25,2,66,75)         176.8045         calculate D2E/DX2 analytically  !
 ! D94   D(25,2,66,77)         172.9241         calculate D2E/DX2 analytically  !
 ! D95   D(65,2,66,3)           33.8867         calculate D2E/DX2 analytically  !
 ! D96   D(65,2,66,74)         166.8163         calculate D2E/DX2 analytically  !
 ! D97   D(65,2,66,75)         -63.9833         calculate D2E/DX2 analytically  !
 ! D98   D(65,2,66,77)         -67.8638         calculate D2E/DX2 analytically  !
 ! D99   D(47,3,36,26)        -104.037          calculate D2E/DX2 analytically  !
 ! D100  D(47,3,36,34)          74.2398         calculate D2E/DX2 analytically  !
 ! D101  D(48,3,36,26)         151.4804         calculate D2E/DX2 analytically  !
 ! D102  D(48,3,36,34)         -30.2428         calculate D2E/DX2 analytically  !
 ! D103  D(66,3,36,26)          20.2203         calculate D2E/DX2 analytically  !
 ! D104  D(66,3,36,34)        -161.503          calculate D2E/DX2 analytically  !
 ! D105  D(36,3,47,37)        -165.8378         calculate D2E/DX2 analytically  !
 ! D106  D(36,3,47,45)          18.167          calculate D2E/DX2 analytically  !
 ! D107  D(48,3,47,37)         -62.057          calculate D2E/DX2 analytically  !
 ! D108  D(48,3,47,45)         121.9478         calculate D2E/DX2 analytically  !
 ! D109  D(66,3,47,37)          74.2228         calculate D2E/DX2 analytically  !
 ! D110  D(66,3,47,45)        -101.7724         calculate D2E/DX2 analytically  !
 ! D111  D(36,3,48,1)         -154.3794         calculate D2E/DX2 analytically  !
 ! D112  D(36,3,48,49)         113.8909         calculate D2E/DX2 analytically  !
 ! D113  D(36,3,48,55)         -67.1108         calculate D2E/DX2 analytically  !
 ! D114  D(47,3,48,1)          100.3502         calculate D2E/DX2 analytically  !
 ! D115  D(47,3,48,49)           8.6205         calculate D2E/DX2 analytically  !
 ! D116  D(47,3,48,55)        -172.3813         calculate D2E/DX2 analytically  !
 ! D117  D(66,3,48,1)          -31.9227         calculate D2E/DX2 analytically  !
 ! D118  D(66,3,48,49)        -123.6524         calculate D2E/DX2 analytically  !
 ! D119  D(66,3,48,55)          55.3458         calculate D2E/DX2 analytically  !
 ! D120  D(36,3,66,2)          121.8213         calculate D2E/DX2 analytically  !
 ! D121  D(36,3,66,74)           7.6001         calculate D2E/DX2 analytically  !
 ! D122  D(36,3,66,75)        -133.9166         calculate D2E/DX2 analytically  !
 ! D123  D(36,3,66,77)         -93.978          calculate D2E/DX2 analytically  !
 ! D124  D(47,3,66,2)         -122.3191         calculate D2E/DX2 analytically  !
 ! D125  D(47,3,66,74)         123.4597         calculate D2E/DX2 analytically  !
 ! D126  D(47,3,66,75)         -18.0571         calculate D2E/DX2 analytically  !
 ! D127  D(47,3,66,77)          21.8816         calculate D2E/DX2 analytically  !
 ! D128  D(48,3,66,2)            3.7252         calculate D2E/DX2 analytically  !
 ! D129  D(48,3,66,74)        -110.4961         calculate D2E/DX2 analytically  !
 ! D130  D(48,3,66,75)         107.9872         calculate D2E/DX2 analytically  !
 ! D131  D(48,3,66,77)         147.9259         calculate D2E/DX2 analytically  !
 ! D132  D(5,4,6,7)             -0.1365         calculate D2E/DX2 analytically  !
 ! D133  D(5,4,6,8)           -179.2877         calculate D2E/DX2 analytically  !
 ! D134  D(14,4,6,7)           179.6375         calculate D2E/DX2 analytically  !
 ! D135  D(14,4,6,8)             0.4862         calculate D2E/DX2 analytically  !
 ! D136  D(5,4,14,2)            -2.726          calculate D2E/DX2 analytically  !
 ! D137  D(5,4,14,12)          178.7205         calculate D2E/DX2 analytically  !
 ! D138  D(6,4,14,2)           177.4991         calculate D2E/DX2 analytically  !
 ! D139  D(6,4,14,12)           -1.0544         calculate D2E/DX2 analytically  !
 ! D140  D(4,6,8,9)            179.651          calculate D2E/DX2 analytically  !
 ! D141  D(4,6,8,10)             0.295          calculate D2E/DX2 analytically  !
 ! D142  D(7,6,8,9)              0.5054         calculate D2E/DX2 analytically  !
 ! D143  D(7,6,8,10)          -178.8506         calculate D2E/DX2 analytically  !
 ! D144  D(6,8,10,11)          179.4174         calculate D2E/DX2 analytically  !
 ! D145  D(6,8,10,12)           -0.5033         calculate D2E/DX2 analytically  !
 ! D146  D(9,8,10,11)            0.0613         calculate D2E/DX2 analytically  !
 ! D147  D(9,8,10,12)         -179.8594         calculate D2E/DX2 analytically  !
 ! D148  D(8,10,12,13)         179.9125         calculate D2E/DX2 analytically  !
 ! D149  D(8,10,12,14)          -0.0701         calculate D2E/DX2 analytically  !
 ! D150  D(11,10,12,13)         -0.0086         calculate D2E/DX2 analytically  !
 ! D151  D(11,10,12,14)       -179.9911         calculate D2E/DX2 analytically  !
 ! D152  D(10,12,14,2)        -177.6365         calculate D2E/DX2 analytically  !
 ! D153  D(10,12,14,4)           0.8481         calculate D2E/DX2 analytically  !
 ! D154  D(13,12,14,2)           2.381          calculate D2E/DX2 analytically  !
 ! D155  D(13,12,14,4)        -179.1344         calculate D2E/DX2 analytically  !
 ! D156  D(16,15,17,18)          1.4593         calculate D2E/DX2 analytically  !
 ! D157  D(16,15,17,19)       -177.6575         calculate D2E/DX2 analytically  !
 ! D158  D(25,15,17,18)        179.7188         calculate D2E/DX2 analytically  !
 ! D159  D(25,15,17,19)          0.6019         calculate D2E/DX2 analytically  !
 ! D160  D(16,15,25,2)          -2.9217         calculate D2E/DX2 analytically  !
 ! D161  D(16,15,25,23)        176.3388         calculate D2E/DX2 analytically  !
 ! D162  D(17,15,25,2)         178.8191         calculate D2E/DX2 analytically  !
 ! D163  D(17,15,25,23)         -1.9204         calculate D2E/DX2 analytically  !
 ! D164  D(15,17,19,20)        179.6664         calculate D2E/DX2 analytically  !
 ! D165  D(15,17,19,21)          0.6715         calculate D2E/DX2 analytically  !
 ! D166  D(18,17,19,20)          0.556          calculate D2E/DX2 analytically  !
 ! D167  D(18,17,19,21)       -178.439          calculate D2E/DX2 analytically  !
 ! D168  D(17,19,21,22)        178.7664         calculate D2E/DX2 analytically  !
 ! D169  D(17,19,21,23)         -0.6045         calculate D2E/DX2 analytically  !
 ! D170  D(20,19,21,22)         -0.2292         calculate D2E/DX2 analytically  !
 ! D171  D(20,19,21,23)       -179.6001         calculate D2E/DX2 analytically  !
 ! D172  D(19,21,23,24)        178.4989         calculate D2E/DX2 analytically  !
 ! D173  D(19,21,23,25)         -0.7353         calculate D2E/DX2 analytically  !
 ! D174  D(22,21,23,24)         -0.8742         calculate D2E/DX2 analytically  !
 ! D175  D(22,21,23,25)        179.8916         calculate D2E/DX2 analytically  !
 ! D176  D(21,23,25,2)        -178.7668         calculate D2E/DX2 analytically  !
 ! D177  D(21,23,25,15)          1.9867         calculate D2E/DX2 analytically  !
 ! D178  D(24,23,25,2)           1.9991         calculate D2E/DX2 analytically  !
 ! D179  D(24,23,25,15)       -177.2475         calculate D2E/DX2 analytically  !
 ! D180  D(27,26,28,29)          1.3055         calculate D2E/DX2 analytically  !
 ! D181  D(27,26,28,30)       -178.1788         calculate D2E/DX2 analytically  !
 ! D182  D(36,26,28,29)        179.6988         calculate D2E/DX2 analytically  !
 ! D183  D(36,26,28,30)          0.2145         calculate D2E/DX2 analytically  !
 ! D184  D(27,26,36,3)          -3.7137         calculate D2E/DX2 analytically  !
 ! D185  D(27,26,36,34)        177.9827         calculate D2E/DX2 analytically  !
 ! D186  D(28,26,36,3)         177.8983         calculate D2E/DX2 analytically  !
 ! D187  D(28,26,36,34)         -0.4053         calculate D2E/DX2 analytically  !
 ! D188  D(26,28,30,31)        179.7684         calculate D2E/DX2 analytically  !
 ! D189  D(26,28,30,32)          0.0837         calculate D2E/DX2 analytically  !
 ! D190  D(29,28,30,31)          0.2887         calculate D2E/DX2 analytically  !
 ! D191  D(29,28,30,32)       -179.396          calculate D2E/DX2 analytically  !
 ! D192  D(28,30,32,33)        179.759          calculate D2E/DX2 analytically  !
 ! D193  D(28,30,32,34)         -0.1877         calculate D2E/DX2 analytically  !
 ! D194  D(31,30,32,33)          0.0739         calculate D2E/DX2 analytically  !
 ! D195  D(31,30,32,34)       -179.8727         calculate D2E/DX2 analytically  !
 ! D196  D(30,32,34,35)       -179.7424         calculate D2E/DX2 analytically  !
 ! D197  D(30,32,34,36)         -0.0062         calculate D2E/DX2 analytically  !
 ! D198  D(33,32,34,35)          0.3108         calculate D2E/DX2 analytically  !
 ! D199  D(33,32,34,36)       -179.953          calculate D2E/DX2 analytically  !
 ! D200  D(32,34,36,3)        -177.9781         calculate D2E/DX2 analytically  !
 ! D201  D(32,34,36,26)          0.3018         calculate D2E/DX2 analytically  !
 ! D202  D(35,34,36,3)           1.7579         calculate D2E/DX2 analytically  !
 ! D203  D(35,34,36,26)       -179.9622         calculate D2E/DX2 analytically  !
 ! D204  D(38,37,39,40)         -0.736          calculate D2E/DX2 analytically  !
 ! D205  D(38,37,39,41)        179.409          calculate D2E/DX2 analytically  !
 ! D206  D(47,37,39,40)       -179.9904         calculate D2E/DX2 analytically  !
 ! D207  D(47,37,39,41)          0.1546         calculate D2E/DX2 analytically  !
 ! D208  D(38,37,47,3)           4.6367         calculate D2E/DX2 analytically  !
 ! D209  D(38,37,47,45)       -179.2703         calculate D2E/DX2 analytically  !
 ! D210  D(39,37,47,3)        -176.1139         calculate D2E/DX2 analytically  !
 ! D211  D(39,37,47,45)         -0.0208         calculate D2E/DX2 analytically  !
 ! D212  D(37,39,41,42)        179.7218         calculate D2E/DX2 analytically  !
 ! D213  D(37,39,41,43)         -0.26           calculate D2E/DX2 analytically  !
 ! D214  D(40,39,41,42)         -0.1324         calculate D2E/DX2 analytically  !
 ! D215  D(40,39,41,43)        179.8858         calculate D2E/DX2 analytically  !
 ! D216  D(39,41,43,44)        179.9661         calculate D2E/DX2 analytically  !
 ! D217  D(39,41,43,45)          0.2344         calculate D2E/DX2 analytically  !
 ! D218  D(42,41,43,44)         -0.0157         calculate D2E/DX2 analytically  !
 ! D219  D(42,41,43,45)       -179.7474         calculate D2E/DX2 analytically  !
 ! D220  D(41,43,45,46)        179.336          calculate D2E/DX2 analytically  !
 ! D221  D(41,43,45,47)         -0.102          calculate D2E/DX2 analytically  !
 ! D222  D(44,43,45,46)         -0.3972         calculate D2E/DX2 analytically  !
 ! D223  D(44,43,45,47)       -179.8352         calculate D2E/DX2 analytically  !
 ! D224  D(43,45,47,3)         176.0373         calculate D2E/DX2 analytically  !
 ! D225  D(43,45,47,37)         -0.0055         calculate D2E/DX2 analytically  !
 ! D226  D(46,45,47,3)          -3.399          calculate D2E/DX2 analytically  !
 ! D227  D(46,45,47,37)       -179.4418         calculate D2E/DX2 analytically  !
 ! D228  D(3,48,49,50)          -0.9177         calculate D2E/DX2 analytically  !
 ! D229  D(3,48,49,51)         178.2805         calculate D2E/DX2 analytically  !
 ! D230  D(55,48,49,50)        179.9515         calculate D2E/DX2 analytically  !
 ! D231  D(55,48,49,51)         -0.8504         calculate D2E/DX2 analytically  !
 ! D232  D(3,48,55,53)        -178.5759         calculate D2E/DX2 analytically  !
 ! D233  D(3,48,55,56)          -0.0521         calculate D2E/DX2 analytically  !
 ! D234  D(49,48,55,53)          0.6084         calculate D2E/DX2 analytically  !
 ! D235  D(49,48,55,56)        179.1322         calculate D2E/DX2 analytically  !
 ! D236  D(48,49,51,52)       -177.8107         calculate D2E/DX2 analytically  !
 ! D237  D(48,49,51,53)          0.7733         calculate D2E/DX2 analytically  !
 ! D238  D(50,49,51,52)          1.3832         calculate D2E/DX2 analytically  !
 ! D239  D(50,49,51,53)        179.9672         calculate D2E/DX2 analytically  !
 ! D240  D(49,51,53,54)       -178.3841         calculate D2E/DX2 analytically  !
 ! D241  D(49,51,53,55)         -0.3922         calculate D2E/DX2 analytically  !
 ! D242  D(52,51,53,54)          0.1847         calculate D2E/DX2 analytically  !
 ! D243  D(52,51,53,55)        178.1766         calculate D2E/DX2 analytically  !
 ! D244  D(51,53,55,48)         -0.1384         calculate D2E/DX2 analytically  !
 ! D245  D(51,53,55,56)       -178.6678         calculate D2E/DX2 analytically  !
 ! D246  D(54,53,55,48)        177.8618         calculate D2E/DX2 analytically  !
 ! D247  D(54,53,55,56)         -0.6676         calculate D2E/DX2 analytically  !
 ! D248  D(58,57,59,60)         -0.9538         calculate D2E/DX2 analytically  !
 ! D249  D(58,57,59,61)       -179.1426         calculate D2E/DX2 analytically  !
 ! D250  D(65,57,59,60)        178.0726         calculate D2E/DX2 analytically  !
 ! D251  D(65,57,59,61)         -0.1162         calculate D2E/DX2 analytically  !
 ! D252  D(58,57,65,2)           2.2157         calculate D2E/DX2 analytically  !
 ! D253  D(58,57,65,63)        179.3353         calculate D2E/DX2 analytically  !
 ! D254  D(59,57,65,2)        -176.8317         calculate D2E/DX2 analytically  !
 ! D255  D(59,57,65,63)          0.288          calculate D2E/DX2 analytically  !
 ! D256  D(57,59,61,62)        177.7946         calculate D2E/DX2 analytically  !
 ! D257  D(57,59,61,63)         -0.103          calculate D2E/DX2 analytically  !
 ! D258  D(60,59,61,62)         -0.3952         calculate D2E/DX2 analytically  !
 ! D259  D(60,59,61,63)       -178.2928         calculate D2E/DX2 analytically  !
 ! D260  D(59,61,63,64)        177.5298         calculate D2E/DX2 analytically  !
 ! D261  D(59,61,63,65)          0.2826         calculate D2E/DX2 analytically  !
 ! D262  D(62,61,63,64)         -0.383          calculate D2E/DX2 analytically  !
 ! D263  D(62,61,63,65)       -177.6302         calculate D2E/DX2 analytically  !
 ! D264  D(61,63,65,2)         176.5551         calculate D2E/DX2 analytically  !
 ! D265  D(61,63,65,57)         -0.3511         calculate D2E/DX2 analytically  !
 ! D266  D(64,63,65,2)          -0.7324         calculate D2E/DX2 analytically  !
 ! D267  D(64,63,65,57)       -177.6386         calculate D2E/DX2 analytically  !
 ! D268  D(2,66,75,76)          70.6629         calculate D2E/DX2 analytically  !
 ! D269  D(2,66,75,81)         -57.2862         calculate D2E/DX2 analytically  !
 ! D270  D(3,66,75,76)         -32.1678         calculate D2E/DX2 analytically  !
 ! D271  D(3,66,75,81)        -160.1169         calculate D2E/DX2 analytically  !
 ! D272  D(74,66,75,76)       -175.902          calculate D2E/DX2 analytically  !
 ! D273  D(74,66,75,81)         56.1489         calculate D2E/DX2 analytically  !
 ! D274  D(2,66,77,78)        -167.7024         calculate D2E/DX2 analytically  !
 ! D275  D(3,66,77,78)          86.1853         calculate D2E/DX2 analytically  !
 ! D276  D(74,66,77,78)        -42.1563         calculate D2E/DX2 analytically  !
 ! D277  D(69,67,68,85)        -33.1867         calculate D2E/DX2 analytically  !
 ! D278  D(70,67,68,85)        179.7986         calculate D2E/DX2 analytically  !
 ! D279  D(78,67,68,85)         71.0241         calculate D2E/DX2 analytically  !
 ! D280  D(68,67,69,85)         31.6324         calculate D2E/DX2 analytically  !
 ! D281  D(70,67,69,85)        178.7778         calculate D2E/DX2 analytically  !
 ! D282  D(78,67,69,85)        -70.1465         calculate D2E/DX2 analytically  !
 ! D283  D(68,67,70,71)        -32.7376         calculate D2E/DX2 analytically  !
 ! D284  D(68,67,70,72)         87.581          calculate D2E/DX2 analytically  !
 ! D285  D(68,67,70,73)       -153.3056         calculate D2E/DX2 analytically  !
 ! D286  D(69,67,70,71)       -178.7005         calculate D2E/DX2 analytically  !
 ! D287  D(69,67,70,72)        -58.3819         calculate D2E/DX2 analytically  !
 ! D288  D(69,67,70,73)         60.7316         calculate D2E/DX2 analytically  !
 ! D289  D(78,67,70,71)         72.0025         calculate D2E/DX2 analytically  !
 ! D290  D(78,67,70,72)       -167.6788         calculate D2E/DX2 analytically  !
 ! D291  D(78,67,70,73)        -48.5654         calculate D2E/DX2 analytically  !
 ! D292  D(68,67,78,77)        -44.2847         calculate D2E/DX2 analytically  !
 ! D293  D(68,67,78,79)       -166.4424         calculate D2E/DX2 analytically  !
 ! D294  D(68,67,78,80)         77.3642         calculate D2E/DX2 analytically  !
 ! D295  D(69,67,78,77)         72.3714         calculate D2E/DX2 analytically  !
 ! D296  D(69,67,78,79)        -49.7862         calculate D2E/DX2 analytically  !
 ! D297  D(69,67,78,80)       -165.9797         calculate D2E/DX2 analytically  !
 ! D298  D(70,67,78,77)       -165.444          calculate D2E/DX2 analytically  !
 ! D299  D(70,67,78,79)         72.3983         calculate D2E/DX2 analytically  !
 ! D300  D(70,67,78,80)        -43.7951         calculate D2E/DX2 analytically  !
 ! D301  D(67,68,85,69)         18.4087         calculate D2E/DX2 analytically  !
 ! D302  D(67,69,85,68)        -18.2775         calculate D2E/DX2 analytically  !
 ! D303  D(67,69,85,82)        153.3812         calculate D2E/DX2 analytically  !
 ! D304  D(76,75,77,78)        -85.5203         calculate D2E/DX2 analytically  !
 ! D305  D(81,75,77,78)         75.3412         calculate D2E/DX2 analytically  !
 ! D306  D(66,75,81,82)        -66.4454         calculate D2E/DX2 analytically  !
 ! D307  D(66,75,81,83)        112.266          calculate D2E/DX2 analytically  !
 ! D308  D(76,75,81,82)        167.0346         calculate D2E/DX2 analytically  !
 ! D309  D(76,75,81,83)        -14.254          calculate D2E/DX2 analytically  !
 ! D310  D(77,75,81,82)          5.3957         calculate D2E/DX2 analytically  !
 ! D311  D(77,75,81,83)       -175.8929         calculate D2E/DX2 analytically  !
 ! D312  D(66,77,78,67)         82.0618         calculate D2E/DX2 analytically  !
 ! D313  D(66,77,78,79)       -174.9599         calculate D2E/DX2 analytically  !
 ! D314  D(66,77,78,80)        -18.0029         calculate D2E/DX2 analytically  !
 ! D315  D(75,77,78,67)        -86.568          calculate D2E/DX2 analytically  !
 ! D316  D(75,77,78,79)         16.4103         calculate D2E/DX2 analytically  !
 ! D317  D(75,77,78,80)        173.3673         calculate D2E/DX2 analytically  !
 ! D318  D(75,81,82,84)        179.1818         calculate D2E/DX2 analytically  !
 ! D319  D(75,81,82,85)         -0.0459         calculate D2E/DX2 analytically  !
 ! D320  D(83,81,82,84)          0.4481         calculate D2E/DX2 analytically  !
 ! D321  D(83,81,82,85)       -178.7796         calculate D2E/DX2 analytically  !
 ! D322  D(75,81,83,86)       -178.9703         calculate D2E/DX2 analytically  !
 ! D323  D(75,81,83,87)          0.5436         calculate D2E/DX2 analytically  !
 ! D324  D(82,81,83,86)         -0.2067         calculate D2E/DX2 analytically  !
 ! D325  D(82,81,83,87)        179.3072         calculate D2E/DX2 analytically  !
 ! D326  D(81,82,84,88)         -0.3434         calculate D2E/DX2 analytically  !
 ! D327  D(81,82,84,89)       -179.7922         calculate D2E/DX2 analytically  !
 ! D328  D(85,82,84,88)        178.8882         calculate D2E/DX2 analytically  !
 ! D329  D(85,82,84,89)         -0.5606         calculate D2E/DX2 analytically  !
 ! D330  D(81,82,85,69)        -88.697          calculate D2E/DX2 analytically  !
 ! D331  D(84,82,85,69)         92.0663         calculate D2E/DX2 analytically  !
 ! D332  D(81,83,86,88)         -0.1444         calculate D2E/DX2 analytically  !
 ! D333  D(81,83,86,90)        179.2034         calculate D2E/DX2 analytically  !
 ! D334  D(87,83,86,88)       -179.6563         calculate D2E/DX2 analytically  !
 ! D335  D(87,83,86,90)         -0.3085         calculate D2E/DX2 analytically  !
 ! D336  D(82,84,88,86)         -0.0157         calculate D2E/DX2 analytically  !
 ! D337  D(82,84,88,91)       -179.1935         calculate D2E/DX2 analytically  !
 ! D338  D(89,84,88,86)        179.4293         calculate D2E/DX2 analytically  !
 ! D339  D(89,84,88,91)          0.2515         calculate D2E/DX2 analytically  !
 ! D340  D(83,86,88,84)          0.2574         calculate D2E/DX2 analytically  !
 ! D341  D(83,86,88,91)        179.4368         calculate D2E/DX2 analytically  !
 ! D342  D(90,86,88,84)       -179.0884         calculate D2E/DX2 analytically  !
 ! D343  D(90,86,88,91)          0.0909         calculate D2E/DX2 analytically  !
 --------------------------------------------------------------------------------
 Trust Radius=3.00D-01 FncErr=1.00D-07 GrdErr=1.00D-06 EigMax=2.50D+02 EigMin=1.00D-04
 Number of steps in this run=    546 maximum allowed number of steps=    546.
 Search for a saddle point of order  1.
 GradGradGradGradGradGradGradGradGradGradGradGradGradGradGradGradGradGrad

 Stoichiometry    C45H41BrFe2P2(3)
 Framework group  C1[X(C45H41BrFe2P2)]
 Deg. of freedom   267
 Full point group                 C1      NOp   1
 Largest Abelian subgroup         C1      NOp   1
 Largest concise Abelian subgroup C1      NOp   1
                         Standard orientation:                         
 ---------------------------------------------------------------------
 Center     Atomic      Atomic             Coordinates (Angstroms)
 Number     Number       Type             X           Y           Z
 ---------------------------------------------------------------------
      1         26           0       -0.301348   -3.112528   -1.200083
      2         15           0        1.605845   -0.729588    0.263700
      3         15           0       -1.935255   -0.279894   -0.168258
      4          6           0        3.764590    0.961183    0.737013
      5          1           0        3.071381    1.478331    1.404724
      6          6           0        5.080676    1.405041    0.609823
      7          1           0        5.412098    2.274897    1.181210
      8          6           0        5.965502    0.754651   -0.254656
      9          1           0        6.994003    1.109882   -0.354944
     10          6           0        5.527906   -0.342399   -1.000280
     11          1           0        6.212260   -0.849365   -1.685110
     12          6           0        4.212352   -0.795052   -0.874594
     13          1           0        3.874917   -1.651691   -1.460409
     14          6           0        3.326890   -0.150850    0.001429
     15          6           0        0.738372   -1.550054    2.807761
     16          1           0       -0.117726   -0.899996    2.621815
     17          6           0        0.825810   -2.255593    4.010424
     18          1           0        0.022990   -2.169040    4.746236
     19          6           0        1.942710   -3.051637    4.276048
     20          1           0        2.013828   -3.599256    5.218971
     21          6           0        2.979970   -3.129524    3.340893
     22          1           0        3.864801   -3.734770    3.552642
     23          6           0        2.894054   -2.423615    2.139253
     24          1           0        3.717321   -2.468110    1.423144
     25          6           0        1.761955   -1.644293    1.854015
     26          6           0       -3.100538    0.905659    2.100924
     27          1           0       -2.279992    1.622302    2.040010
     28          6           0       -4.059814    1.033292    3.110083
     29          1           0       -3.989350    1.864090    3.815963
     30          6           0       -5.092583    0.099920    3.220375
     31          1           0       -5.839426    0.198916    4.011988
     32          6           0       -5.165843   -0.967587    2.318277
     33          1           0       -5.969894   -1.702779    2.402915
     34          6           0       -4.211871   -1.097349    1.308520
     35          1           0       -4.275708   -1.929422    0.604674
     36          6           0       -3.173191   -0.158543    1.190907
     37          6           0       -2.399604    0.054879   -2.930150
     38          1           0       -1.483021   -0.518401   -3.068074
     39          6           0       -3.075398    0.544153   -4.050470
     40          1           0       -2.672745    0.357882   -5.049025
     41          6           0       -4.258004    1.270201   -3.893607
     42          1           0       -4.785232    1.657382   -4.768643
     43          6           0       -4.761958    1.498307   -2.610178
     44          1           0       -5.686205    2.065714   -2.477364
     45          6           0       -4.087851    1.009446   -1.490150
     46          1           0       -4.486642    1.204168   -0.494354
     47          6           0       -2.897798    0.281442   -1.636601
     48          6           0       -1.895018   -2.091249   -0.427668
     49          6           0       -2.317128   -2.848008   -1.573420
     50          1           0       -2.750072   -2.435250   -2.479507
     51          6           0       -2.052717   -4.225220   -1.322486
     52          1           0       -2.233061   -5.041018   -2.020342
     53          6           0       -1.484212   -4.337663   -0.019217
     54          1           0       -1.148898   -5.257159    0.457152
     55          6           0       -1.387238   -3.029514    0.535194
     56          1           0       -0.975185   -2.783697    1.509223
     57          6           0        0.914961   -1.861519   -2.281886
     58          1           0        0.617960   -0.901951   -2.695742
     59          6           0        0.846906   -3.127373   -2.933047
     60          1           0        0.471326   -3.310649   -3.938154
     61          6           0        1.318125   -4.118732   -2.020404
     62          1           0        1.360481   -5.191243   -2.202289
     63          6           0        1.680528   -3.468304   -0.804843
     64          1           0        2.040160   -3.947772    0.101841
     65          6           0        1.428175   -2.062402   -0.955929
     66         26           0       -0.098005    0.936458    0.350411
     67          6           0       -0.780253    5.299567    0.573451
     68          1           0       -0.199869    4.752429    1.319970
     69          1           0       -0.198118    5.685725   -0.268399
     70          6           0       -1.961751    6.091344    1.032088
     71          1           0       -2.455421    5.619424    1.897170
     72          1           0       -1.687204    7.122081    1.335857
     73          1           0       -2.719985    6.200846    0.234818
     74         35           0        0.415701    2.025030    2.420033
     75          6           0        0.047417    1.846664   -1.510668
     76          1           0       -0.303011    1.192877   -2.317026
     77          6           0       -0.889028    2.415225   -0.639797
     78          6           0       -1.742871    3.428829   -0.418591
     79          1           0       -2.054052    4.068433   -1.251675
     80          1           0       -2.409472    3.411588    0.446193
     81          6           0        1.417570    2.360771   -1.689654
     82          6           0        1.931599    3.412435   -0.905290
     83          6           0        2.264330    1.778077   -2.651980
     84          6           0        3.237989    3.862587   -1.090019
     85          1           0        1.310178    3.872433   -0.137951
     86          6           0        3.571123    2.226335   -2.831253
     87          1           0        1.888228    0.953165   -3.262875
     88          6           0        4.065588    3.275543   -2.051154
     89          1           0        3.616193    4.677490   -0.467492
     90          1           0        4.211696    1.748203   -3.576052
     91          1           0        5.092696    3.622864   -2.183282
 ---------------------------------------------------------------------
 Rotational constants (GHZ):           0.0622728           0.0553873           0.0469411
 Standard basis: def2SVP (5D, 7F)
 There are  1025 symmetry adapted cartesian basis functions of A   symmetry.
 There are   965 symmetry adapted basis functions of A   symmetry.
   965 basis functions,  1728 primitive gaussians,  1025 cartesian basis functions
   215 alpha electrons      213 beta electrons
       nuclear repulsion energy     10210.7472183185 Hartrees.
 NAtoms=   91 NActive=   91 NUniq=   91 SFac= 1.00D+00 NAtFMM=   60 NAOKFM=T Big=T
 Integral buffers will be    131072 words long.
 Raffenetti 2 integral format.
 Two-electron integral symmetry is turned on.
 Nuclear repulsion after empirical dispersion term =    10210.4328518978 Hartrees.
 One-electron integrals computed using PRISM.
   1 Symmetry operations used in ECPInt.
 ECPInt:  NShTT=   98346 NPrTT=  378889 LenC2=   81755 LenP2D=  196499.
 LDataN:  DoStor=T MaxTD1= 6 Len=  172
 Number of processors reduced to  63 by ecpmxn.
 NBasis=   965 RedAO= T EigKep=  2.49D-04  NBF=   965
 NBsUse=   965 1.00D-06 EigRej= -1.00D+00 NBFU=   965
 ExpMin= 3.37D-02 ExpMax= 1.13D+05 ExpMxC= 1.70D+04 IAcc=3 IRadAn=         5 AccDes= 0.00D+00
 Harris functional with IExCor=  402 and IRadAn=       5 diagonalized for initial guess.
 HarFok:  IExCor=  402 AccDes= 0.00D+00 IRadAn=         5 IDoV= 1 UseB2=F ITyADJ=14
 ICtDFT=  3500011 ScaDFX=  1.000000  1.000000  1.000000  1.000000
 FoFCou: FMM=F IPFlag=           0 FMFlag=      100000 FMFlg1=        2001
         NFxFlg=           0 DoJE=T BraDBF=F KetDBF=T FulRan=T
         wScrn=  0.000000 ICntrl=       500 IOpCl=  0 I1Cent=   200000004 NGrid=           0
         NMat0=    1 NMatS0=      1 NMatT0=    0 NMatD0=    1 NMtDS0=    0 NMtDT0=    0
 Petite list used in FoFCou.
 Initial guess <Sx>= 0.0000 <Sy>= 0.0000 <Sz>= 1.0000 <S**2>= 2.0000 S= 1.0000
 Gradient too large for Newton-Raphson -- use scaled steepest descent instead.
     Accept linear search using points  2 and  3.
 Gradient too large for Newton-Raphson -- use scaled steepest descent instead.
 Gradient too large for Newton-Raphson -- use scaled steepest descent instead.
 Gradient too large for Newton-Raphson -- use scaled steepest descent instead.
     Accept linear search using points  1 and  2.
 Gradient too large for Newton-Raphson -- use scaled steepest descent instead.
 Gradient too large for Newton-Raphson -- use scaled steepest descent instead.
 Gradient too large for Newton-Raphson -- use scaled steepest descent instead.
 Restarting incremental Fock formation.
 Gradient too large for Newton-Raphson -- use scaled steepest descent instead.
     Accept linear search using points  1 and  2.
 Gradient too large for Newton-Raphson -- use scaled steepest descent instead.
     Minimum is close to point  3 DX=  4.58D-02 DF= -4.41D-06 DXR=  4.85D-02 DFR=  2.35D-03 which will be used.
 Gradient too large for Newton-Raphson -- use scaled steepest descent instead.
 Gradient too large for Newton-Raphson -- use scaled steepest descent instead.
     Accept linear search using points  1 and  2.
 Gradient too large for Newton-Raphson -- use scaled steepest descent instead.
     Accept linear search using points  1 and  2.
 LinEq1:  Iter=  0 NonCon=     1 RMS=6.02D-05 Max=1.43D-02 NDo=     1
 AX will form     1 AO Fock derivatives at one time.
 LinEq1:  Iter=  1 NonCon=     1 RMS=1.14D-04 Max=1.45D-02 NDo=     1
 LinEq1:  Iter=  2 NonCon=     1 RMS=1.34D-04 Max=2.32D-02 NDo=     1
 LinEq1:  Iter=  3 NonCon=     1 RMS=2.27D-04 Max=5.26D-02 NDo=     1
 LinEq1:  Iter=  4 NonCon=     1 RMS=3.89D-04 Max=3.49D-02 NDo=     1
 LinEq1:  Iter=  5 NonCon=     1 RMS=5.26D-04 Max=7.23D-02 NDo=     1
 LinEq1:  Iter=  6 NonCon=     1 RMS=4.57D-04 Max=6.02D-02 NDo=     1
 LinEq1:  Iter=  7 NonCon=     1 RMS=4.61D-04 Max=8.80D-02 NDo=     1
 LinEq1:  Iter=  8 NonCon=     1 RMS=4.15D-04 Max=8.20D-02 NDo=     1
 LinEq1:  Iter=  9 NonCon=     1 RMS=2.50D-04 Max=2.33D-02 NDo=     1
 LinEq1:  Iter= 10 NonCon=     1 RMS=2.02D-04 Max=2.07D-02 NDo=     1
 LinEq1:  Iter= 11 NonCon=     1 RMS=1.61D-04 Max=1.86D-02 NDo=     1
 LinEq1:  Iter= 12 NonCon=     1 RMS=1.58D-04 Max=2.11D-02 NDo=     1
 LinEq1:  Iter= 13 NonCon=     1 RMS=1.28D-04 Max=1.25D-02 NDo=     1
 LinEq1:  Iter= 14 NonCon=     1 RMS=1.03D-04 Max=9.25D-03 NDo=     1
 LinEq1:  Iter= 15 NonCon=     1 RMS=8.63D-05 Max=7.21D-03 NDo=     1
 LinEq1:  Iter= 16 NonCon=     1 RMS=6.27D-05 Max=6.18D-03 NDo=     1
 LinEq1:  Iter= 17 NonCon=     1 RMS=4.63D-05 Max=6.99D-03 NDo=     1
 LinEq1:  Iter= 18 NonCon=     1 RMS=4.58D-05 Max=4.51D-03 NDo=     1
 LinEq1:  Iter= 19 NonCon=     1 RMS=4.03D-05 Max=4.20D-03 NDo=     1
 LinEq1:  Iter= 20 NonCon=     1 RMS=3.81D-05 Max=3.27D-03 NDo=     1
 LinEq1:  Iter= 21 NonCon=     1 RMS=2.96D-05 Max=2.94D-03 NDo=     1
 LinEq1:  Iter= 22 NonCon=     1 RMS=2.24D-05 Max=2.12D-03 NDo=     1
 LinEq1:  Iter= 23 NonCon=     1 RMS=1.66D-05 Max=1.56D-03 NDo=     1
 LinEq1:  Iter= 24 NonCon=     1 RMS=1.21D-05 Max=1.22D-03 NDo=     1
 LinEq1:  Iter= 25 NonCon=     1 RMS=8.61D-06 Max=8.38D-04 NDo=     1
 LinEq1:  Iter= 26 NonCon=     1 RMS=6.90D-06 Max=7.64D-04 NDo=     1
 LinEq1:  Iter= 27 NonCon=     1 RMS=5.39D-06 Max=5.75D-04 NDo=     1
 LinEq1:  Iter= 28 NonCon=     1 RMS=3.65D-06 Max=4.33D-04 NDo=     1
 LinEq1:  Iter= 29 NonCon=     1 RMS=2.48D-06 Max=2.62D-04 NDo=     1
 LinEq1:  Iter= 30 NonCon=     1 RMS=1.65D-06 Max=1.25D-04 NDo=     1
 LinEq1:  Iter= 31 NonCon=     1 RMS=1.20D-06 Max=1.05D-04 NDo=     1
 LinEq1:  Iter= 32 NonCon=     1 RMS=8.88D-07 Max=1.00D-04 NDo=     1
 LinEq1:  Iter= 33 NonCon=     1 RMS=6.15D-07 Max=5.11D-05 NDo=     1
 LinEq1:  Iter= 34 NonCon=     1 RMS=4.58D-07 Max=4.00D-05 NDo=     1
 LinEq1:  Iter= 35 NonCon=     1 RMS=3.78D-07 Max=2.88D-05 NDo=     1
 LinEq1:  Iter= 36 NonCon=     1 RMS=2.42D-07 Max=2.12D-05 NDo=     1
 LinEq1:  Iter= 37 NonCon=     1 RMS=1.63D-07 Max=1.46D-05 NDo=     1
 LinEq1:  Iter= 38 NonCon=     1 RMS=1.19D-07 Max=7.39D-06 NDo=     1
 LinEq1:  Iter= 39 NonCon=     1 RMS=8.63D-08 Max=5.45D-06 NDo=     1
 LinEq1:  Iter= 40 NonCon=     1 RMS=5.76D-08 Max=3.35D-06 NDo=     1
 LinEq1:  Iter= 41 NonCon=     1 RMS=4.18D-08 Max=3.38D-06 NDo=     1
 LinEq1:  Iter= 42 NonCon=     1 RMS=3.40D-08 Max=3.38D-06 NDo=     1
 LinEq1:  Iter= 43 NonCon=     1 RMS=2.61D-08 Max=2.19D-06 NDo=     1
 LinEq1:  Iter= 44 NonCon=     1 RMS=1.96D-08 Max=1.40D-06 NDo=     1
 LinEq1:  Iter= 45 NonCon=     1 RMS=1.42D-08 Max=1.24D-06 NDo=     1
 LinEq1:  Iter= 46 NonCon=     0 RMS=9.01D-09 Max=5.49D-07 NDo=     1
[...]
 000532,-0.00019263,0.00000498,-0.00000739,0.00000053,-0.00000609,0.000
 00637,0.00004442,0.00002577,-0.00329860,-0.00459179,0.00118986,-0.0004
 1212,-0.00049904,-0.00070731,-0.01166279,0.01366462,0.02084705,0.00092
 723,-0.00302134,-0.00010069,-0.00009720,0.00027637,-0.00016045,-0.1530
 9968,0.06424701,0.11846320,0.00051131,0.00104065,-0.00133840,0.0096080
 2,-0.00578030,-0.00833134,0.00030373,-0.00032143,-0.00039974,0.1576331
 3,0.00001096,0.00001974,0.00000085,-0.00005697,-0.00000595,0.00001789,
 -0.00005684,-0.00000129,-0.00000332,-0.00004044,0.00000091,0.00002759,
 -0.00001087,-0.00001769,0.00000707,0.00000460,-0.00003279,-0.00002528,
 0.00001756,-0.00000600,0.00000079,0.00005267,0.00007801,-0.00000362,-0
 .00003013,-0.00000525,-0.00001707,-0.00000220,-0.00000263,-0.00003450,
 0.00002887,0.00000087,0.00001524,-0.00003547,-0.00001705,0.00001301,-0
 .00001395,-0.00003096,0.00001143,-0.00001979,0.00001154,-0.00001504,-0
 .00000485,0.00000737,-0.00000334,-0.00000101,-0.00000064,0.00000148,-0
 .00000099,0.00000017,-0.00000206,0.00000086,0.00000007,-0.00000173,0.0
 0000021,0.00000047,-0.00000148,0.00000013,0.00000100,-0.00000200,0.000
 00466,-0.00000203,-0.00000053,-0.00000130,0.00000110,-0.00000010,-0.00
 000057,0.00000299,-0.00000222,0.00000186,-0.00000625,0.00000305,0.0000
 1560,0.00000736,-0.00000225,0.00000147,-0.00000015,-0.00000021,-0.0000
 0460,0.00000007,0.00000076,0.00000133,0.00000222,0.00000025,-0.0000006
 1,-0.00000064,-0.00000021,0.00000009,0.00000009,-0.00000011,0.00000117
 ,-0.00000008,-0.00000101,0.00000029,-0.00000035,-0.00000067,0.00000112
 ,0.00000096,-0.00000039,0.00000124,-0.00000230,-0.00000280,-0.00000193
 ,0.00000024,0.00000062,0.00000955,-0.00000281,0.00000411,-0.00000175,0
 .00000136,0.00000007,-0.00000187,-0.00000048,-0.00000273,0.00000196,-0
 .00000386,-0.00000319,-0.00000104,0.00000301,0.00000104,-0.00000059,-0
 .00000052,0.00000035,0.00000276,-0.00000040,0.00000166,0.00000082,-0.0
 0000110,0.00000005,0.00000119,-0.00000104,-0.00000008,-0.00000039,-0.0
 0000167,0.00000668,-0.00000107,0.00000035,0.,0.00001055,0.00000278,-0.
 00000497,0.00000744,-0.00000473,0.00000082,0.00000029,-0.00000114,0.00
 000293,0.00000058,0.00000067,-0.00000037,-0.00000004,0.00000350,0.0000
 0174,-0.00000032,0.00000053,0.00000043,0.00000050,0.00000098,-0.000000
 30,-0.00000063,-0.00000026,-0.00000022,-0.00000131,-0.00000291,-0.0000
 0456,-0.00000078,-0.00000100,0.00000027,-0.00000013,0.00001214,-0.0000
 2100,-0.00001361,0.00000140,0.00000593,0.00000107,-0.00001277,-0.00001
 341,-0.00000363,-0.00000184,-0.00000038,0.00000382,-0.00000654,-0.0000
 0022,0.00000021,0.00000090,-0.00000008,0.00000453,-0.00001122,0.000003
 28,-0.00000007,-0.00000060,-0.00000016,0.00001522,0.00001305,0.0000117
 1,-0.00001431,0.00004626,0.00003649,0.00000211,-0.00003152,-0.00001083
 ,-0.00000274,-0.00000015,0.00000893,-0.00000332,0.00000860,-0.00000905
 ,-0.00000700,-0.00000019,-0.00000427,0.00000428,-0.00000039,-0.0000017
 0,0.00000395,-0.00000467,-0.00000415,0.00000658,-0.00000131,0.00000241
 ,0.00000133,-0.00000994,0.00000124,-0.00027545,0.00032589,0.00022345,0
 .00002264,-0.00000907,0.00000019,-0.00002223,-0.00017177,0.00007926,-0
 .00000561,0.00005863,0.00003492,-0.00000919,-0.00001119,-0.00000857,0.
 00000369,0.00000113,0.00000092,-0.00371294,0.00277970,-0.00244241,-0.0
 0050155,-0.00069117,0.00047448,-0.00758447,0.00805389,0.00775241,-0.00
 396289,-0.00016900,-0.00478537,0.00027941,-0.00037467,0.00042107,0.064
 51278,-0.09831842,-0.08983120,0.00141550,-0.00135305,0.00216233,0.0155
 4443,-0.00461271,-0.01602437,0.00066707,-0.00029115,-0.00082905,-0.067
 21607,0.09585906,-0.00003571,0.00001917,-0.00003266,0.00029748,-0.0000
 5281,0.00002602,-0.00010784,-0.00012910,0.00001271,-0.00003602,0.00003
 455,0.00001690,0.00001110,-0.00000516,0.00002022,0.00001391,-0.0000318
 4,-0.00002861,0.00000846,0.00001494,0.00003593,-0.00008045,-0.00027440
 ,-0.00000241,-0.00002195,0.00000726,-0.00003376,-0.00003895,-0.0000737
 8,0.00032056,-0.00008928,0.00011279,-0.00003170,0.00021888,-0.00002049
 ,0.00012330,0.00001818,0.00004315,-0.00003201,-0.00003925,0.00000906,-
 0.00003304,0.00001834,-0.00001998,0.00000536,-0.00000555,-0.00000881,0
 .00000446,-0.00000636,0.00000457,0.00001136,-0.00000038,-0.00000112,0.
 00000442,-0.00000298,-0.00000054,0.00000395,-0.00000131,0.,0.00000169,
 -0.00001676,0.00000712,-0.00000240,0.00000016,0.00000189,-0.00000285,0
 .00001532,-0.00000291,-0.00001992,-0.00000120,0.00002006,-0.00000681,-
 0.00009039,-0.00000914,0.00001998,-0.00000520,0.00000041,0.00000093,-0
 .00000433,-0.00000131,0.00000459,0.00000141,0.00000345,0.00000150,-0.0
 0000030,-0.00000126,0.00000081,0.00000068,0.00000081,-0.00000025,0.000
 00130,-0.00000009,-0.00000042,0.00000230,0.00000336,-0.00000141,0.0000
 0197,0.00000043,-0.00000067,0.00000238,-0.00000646,-0.00000851,0.00000
 202,-0.00000071,0.00000165,0.00001203,0.00002543,0.00000375,0.00000220
 ,-0.00000003,-0.00000219,0.00000007,-0.00000767,0.00000156,0.00000248,
 0.00000182,-0.00000052,-0.00000186,-0.00000260,-0.00000012,-0.00000121
 ,0.00000259,0.,-0.00000079,-0.00000109,0.00000058,-0.00000125,0.000001
 19,-0.00000285,-0.00000046,-0.00000158,-0.00000014,0.00000184,-0.00000
 071,0.00000470,-0.00000131,-0.00000118,0.00000102,0.00001466,0.0000224
 5,-0.00000457,0.00003547,0.00002115,0.00000964,-0.00000223,-0.00000267
 ,-0.00002417,-0.00000169,-0.00000450,-0.00000065,-0.00000556,0.0000023
 5,0.00000250,-0.00000177,0.00000174,0.00000036,-0.00000178,0.00000316,
 0.00000109,-0.00000121,0.00000234,0.00000114,0.00001004,-0.00000047,0.
 00001818,0.00000388,-0.00000076,0.00000205,0.00002966,-0.00003436,0.00
 004055,-0.00001623,-0.00000182,-0.00000641,-0.00000533,-0.00000375,-0.
 00000257,0.00000277,-0.00000273,-0.00000078,-0.00000180,0.00001920,0.0
 0000312,0.00000220,0.00000240,-0.00000173,-0.00001055,0.00003609,-0.00
 000488,0.00000343,0.00000476,-0.00000226,-0.00005752,-0.00001061,-0.00
 000780,0.00008150,0.00002844,-0.00003887,-0.00000059,0.00002108,0.0000
 0660,-0.00000262,-0.00000743,0.00000696,-0.00000627,0.00000719,-0.0000
 0425,-0.00000382,0.00000385,0.00000282,0.00000490,0.00000098,-0.000001
 78,0.00000068,-0.00000565,-0.00000159,0.00000385,-0.00000054,0.0000009
 6,-0.00003376,0.00001269,-0.00005865,0.00009211,-0.00027525,-0.0000708
 5,0.00000567,0.00000352,-0.00000902,-0.00003223,0.00018719,0.00001115,
 0.00000730,-0.00001519,-0.00002746,0.00000419,0.00000016,0.00000377,0.
 00000813,-0.00000427,-0.00000288,0.00175316,-0.00229525,0.00443934,-0.
 00071092,0.00052059,-0.00006586,0.00057000,-0.00297038,0.00089404,-0.0
 0076918,-0.00532171,0.00216273,-0.00019229,0.00044930,-0.00045454,0.11
 809581,-0.08935036,-0.18220080,-0.00108341,0.00239971,-0.00160304,0.01
 218663,-0.00537742,-0.00716236,0.00058870,-0.00031129,-0.00041951,-0.1
 2940472,0.10033006,0.18554874,0.00000985,-0.00004169,0.00001194,-0.000
 08987,0.00007019,-0.00004076,0.00009058,0.00008578,0.00001218,-0.00010
 695,-0.00003312,-0.00000660,-0.00000401,0.00000797,-0.00002388,0.00001
 185,0.00007097,-0.00008624,0.00000113,0.00000170,0.00006412,0.00001748
 ,0.00008872,-0.00005934,0.00006355,-0.00002352,0.00001463,-0.00004540,
 -0.00008088,-0.00003078,0.00000207,-0.00000428,0.00000097,0.00007959,0
 .00003973,-0.00002016,-0.00000102,0.00001162,-0.00000144,0.00007331,0.
 00002737,0.00007929,-0.00000548,0.00000287,0.00000023,0.00000467,0.000
 00661,-0.00000458,0.00000580,-0.00000309,-0.00000369,-0.00000126,0.000
 00045,-0.00000045,0.00000132,-0.00000003,0.00000020,0.00000051,-0.0000
 0178,0.00000166,0.00000436,-0.00000146,0.00000240,0.00000168,-0.000002
 80,0.00000157,-0.00000725,-0.00000275,0.00001391,-0.00000115,-0.000003
 38,-0.00000049,0.00003282,-0.00000581,-0.00000784,0.00000298,0.0000005
 0,-0.00000038,0.00000806,0.00000115,-0.00000479,-0.00000261,-0.0000061
 8,-0.00000230,0.00000104,0.00000170,-0.00000030,-0.00000047,-0.0000004
 9,0.00000023,-0.00000259,0.00000003,0.00000161,-0.00000218,-0.00000224
 ,0.00000189,-0.00000290,-0.00000143,0.00000089,-0.00000308,0.00000784,
 0.00001055,0.00000072,0.00000036,-0.00000193,-0.00002210,-0.00001831,-
 0.00000831,-0.00000283,-0.00000654,0.00000274,0.00000079,0.00000892,0.
 00000125,-0.00000516,0.00000075,0.00000419,0.00000309,0.00000008,-0.00
 000013,0.00000348,-0.00000214,0.00000067,-0.00000185,0.00000138,-0.000
 00254,-0.00000021,-0.00000224,0.00000345,-0.00000116,0.00000226,0.0000
 0065,-0.00000075,-0.00000014,-0.00000899,0.00000308,0.00000166,-0.0000
 0117,-0.00001642,-0.00001390,0.00000128,-0.00002544,-0.00000631,-0.000
 00539,0.00000067,0.00000343,0.00001140,0.00000101,0.00000300,0.0000008
 8,0.00000302,-0.00000443,-0.00000267,0.00000136,-0.00000167,-0.0000008
 1,0.00000065,-0.00000263,-0.00000004,0.00000160,-0.00000117,-0.0000004
 0,-0.00000434,0.00000316,-0.00000620,-0.00000104,0.00000208,-0.0000017
 1,-0.00001605,0.00002206,-0.00001032,0.00002635,0.00000984,0.00000443,
 0.00000311,0.00001313,0.00001528,-0.00000122,0.00000208,0.00000031,-0.
 00000201,-0.00000974,0.00000105,-0.00000132,-0.00000273,0.00000142,0.0
 0000105,-0.00000730,0.00000004,-0.00000153,-0.00000210,0.00000106,0.00
 001890,-0.00000792,-0.00000651,0.00006611,0.00001172,-0.00001860,0.000
 01379,0.00002858,0.00002842,0.00000758,0.00000457,-0.00003244,0.000007
 88,-0.00003005,0.00001234,0.00001007,-0.00000788,-0.00000802,-0.000009
 98,0.00000062,0.00000224,-0.00000945,0.00001530,0.00001093,-0.00001592
 ,0.00000230,-0.00000212,-0.00001407,-0.00003117,0.00007526,-0.00008251
 ,0.00025696,-0.00020430,-0.00001425,-0.00003875,-0.00000451,-0.0000900
 4,0.00004345,-0.00008069,0.00000662,-0.00010892,0.00001610,0.00001908,
 0.00001347,0.00000498,-0.00002067,-0.00000091,-0.00000258,0.00052942,0
 .00054401,-0.00010676,0.00041140,0.00104615,0.00416132,0.00192341,-0.0
 0271273,-0.00027722,-0.01202675,-0.00837238,-0.00059914,-0.00055982,-0
 .00047690,-0.00006171,-0.00574387,-0.00096072,0.00353627,-0.00034987,-
 0.00010347,0.00021425,-0.29887294,-0.09406781,0.03883125,0.00033868,0.
 00112169,-0.00103724,0.00021335,0.00095859,-0.00120068,0.31416086,0.00
 002310,-0.00001446,0.00004214,-0.00021607,-0.00001795,-0.00004814,0.00
 003557,0.00001761,-0.00003012,-0.00002532,-0.00000794,-0.00006008,0.00
 000316,0.00000677,-0.00000410,-0.00005995,0.00017894,0.00000124,-0.000
 00081,0.00001140,0.00004124,0.00001182,0.00013897,-0.00010744,0.000125
 85,-0.00003889,0.00008051,-0.00007230,-0.00004880,-0.00017480,0.000003
 58,-0.00002492,0.00000517,0.00002976,0.00001552,0.00003585,0.00000121,
 0.00001576,0.00000539,0.00010049,0.00000969,0.00002257,-0.00000972,0.0
 0001388,-0.00000243,0.00000222,0.00000217,-0.00000229,0.00000197,-0.00
 000191,-0.00000739,0.00000041,0.00000019,-0.00000310,0.00000262,0.0000
 0008,-0.00000276,0.00000054,0.00000033,-0.00000161,0.00001046,-0.00000
 383,0.00000186,-0.00000069,-0.00000142,0.00000151,-0.00000857,0.000000
 42,0.00001261,0.00000032,-0.00001393,0.00000415,0.00006359,0.00001565,
 -0.00001101,0.00000002,-0.00000248,0.00000047,-0.00000202,0.00000076,-
 0.00000179,0.00000050,0.00000054,0.00000077,-0.00000062,0.00000057,0.,
 -0.00000055,-0.00000032,0.00000036,-0.00000016,0.00000028,-0.00000008,
 0.00000021,-0.00000052,0.00000080,-0.00000054,0.00000011,0.00000012,-0
 .00000068,0.00000199,0.00000226,-0.00000023,0.00000092,-0.00000076,-0.
 00000003,-0.00000624,0.00000096,0.00000397,-0.00000407,0.00000154,0.00
 000258,0.00000831,-0.00000354,-0.00000190,-0.00000234,-0.00000039,0.00
 000282,0.00000230,0.00000317,0.00000019,-0.00000228,0.00000207,0.00000
 087,0.00000088,0.00000024,-0.00000021,0.00000108,0.,0.00000011,0.00000
 065,0.00000020,-0.00000053,0.00000192,0.00000219,-0.00000136,0.0000007
 4,-0.00000010,-0.00000763,-0.00000632,0.00000059,-0.00001959,-0.000007
 04,-0.00000754,-0.00000013,0.00000328,0.00000913,0.00000090,0.00000219
 ,0.00000050,0.00000321,-0.00000150,-0.00000162,0.00000052,-0.00000048,
 0.00000002,0.00000046,-0.00000183,0.00000017,0.00000034,-0.00000137,-0
 .00000062,-0.00000217,-0.00000241,-0.00000909,-0.00000373,-0.00000106,
 -0.00000134,-0.00002482,0.00002377,-0.00003221,0.00003430,0.00001129,-
 0.00000426,0.00000808,0.00001487,0.00001734,0.00000015,0.00000442,0.00
 000130,0.00000011,-0.00001061,-0.00000266,-0.00000053,-0.00000227,0.00
 000285,0.00000438,-0.00002816,0.00001086,-0.00000281,-0.00000589,0.000
 00109,0.00002921,0.00001236,-0.00001415,-0.00011120,-0.00009886,0.0000
 8870,-0.00002235,-0.00001178,-0.00002100,-0.00000667,-0.00000267,0.000
 00799,-0.00000289,-0.00000059,-0.00000393,0.00000681,0.00000852,0.0000
 1151,0.00000069,-0.00000154,0.00000030,-0.00000002,-0.00000053,-0.0000
 0194,0.00000627,-0.00000164,-0.00000056,0.00005622,0.00003582,0.000000
 40,0.00012649,-0.00022839,0.00034461,0.00005329,0.00004291,0.00004468,
 0.00008479,-0.00006069,-0.00000923,-0.00000902,0.00008260,0.00000146,-
 0.00001701,-0.00001612,-0.00000649,0.00001583,0.00000720,0.00000964,0.
 00060617,-0.00081784,-0.00023115,0.00018495,0.00227692,-0.00453370,-0.
 00196939,-0.00018743,-0.00572601,0.01261431,0.00789888,-0.00188591,0.0
 0049924,0.00033858,-0.00015139,-0.02221624,-0.00321121,0.00454086,-0.0
 0110245,-0.00023296,0.00004917,-0.09362021,-0.08125637,0.00236038,0.00
 071742,-0.00130799,0.00236402,0.00138998,-0.00107164,0.00225677,0.1026
 6906,0.07755742,-0.00001039,-0.00002144,-0.00001108,0.00017092,-0.0000
 0978,-0.00001257,-0.00004604,-0.00004512,-0.00001732,0.00007550,-0.000
 03630,0.00003890,0.00001241,-0.00000670,0.00001655,0.00002204,-0.00000
 943,0.00004507,-0.00000388,-0.00002506,-0.00010501,-0.00000898,-0.0001
 3699,0.00003979,-0.00006923,0.00005416,-0.00001356,0.00004949,0.000081
 75,0.00013690,0.00000637,-0.00002483,-0.00001011,-0.00008734,-0.000032
 38,-0.00005368,-0.00000589,-0.00000307,-0.00000167,-0.00004544,-0.0000
 2677,-0.00005100,0.00001150,-0.00001138,0.00000344,-0.00000261,-0.0000
 0403,0.00000210,-0.00000331,0.00000190,0.00000535,-0.00000016,-0.00000
 036,0.00000263,-0.00000151,-0.00000064,0.00000128,-0.00000047,0.000000
 19,0.00000135,-0.00000942,0.00000323,-0.00000168,0.00000066,0.00000132
 ,-0.00000056,0.00000537,-0.00000208,-0.00000666,-0.00000161,0.00001095
 ,-0.00000311,-0.00004243,-0.00000190,0.00000771,-0.00000311,-0.0000001
 0,0.00000043,-0.00000134,-0.00000063,0.00000176,0.00000035,0.00000131,
 0.00000080,0.00000010,-0.00000051,0.00000050,0.00000040,0.00000043,-0.
 00000024,0.00000035,0.00000002,0.00000021,0.00000122,0.00000226,-0.000
 00085,0.00000054,-0.00000008,-0.00000032,0.00000152,-0.00000312,-0.000
 00335,0.00000176,-0.00000027,0.00000062,0.00000798,0.00001268,0.000003
 16,0.00000390,-0.00000426,0.00000035,0.00000252,0.00000212,0.00000097,
 -0.00000091,0.00000045,0.00000259,0.00000087,-0.00000145,0.00000100,0.
 00000073,0.00000043,0.00000181,-0.00000151,0.00000003,-0.00000053,-0.0
 0000178,0.00000091,-0.00000148,-0.00000088,-0.00000023,0.00000022,0.00
 000236,0.00000016,0.00000106,-0.00000039,-0.00000004,0.00000035,0.0000
 0098,0.00000972,-0.00000386,0.00001791,0.00001430,0.00000435,-0.000001
 08,0.00000312,-0.00001280,-0.00000061,-0.00000156,0.00000012,-0.000002
 08,0.00000057,0.00000224,-0.00000103,0.00000067,0.00000003,-0.00000223
 ,0.00000230,0.00000090,-0.00000017,0.00000122,0.00000077,0.00000556,-0
 .00000104,0.00001002,0.00000223,-0.00000024,0.00000101,-0.00001338,0.0
 0000548,0.00001252,0.00002730,0.00000785,-0.00000546,-0.00000149,0.000
 00883,0.00000957,-0.00000116,-0.00000066,-0.00000035,-0.00000134,0.000
 00094,0.00000398,0.00000062,-0.00000061,0.00000097,-0.00000207,0.00001
 430,0.00000413,0.00000083,0.00000115,-0.00000015,-0.00003973,-0.000006
 25,-0.00001199,0.00009821,0.00004150,-0.00003734,0.00005940,0.00000836
 ,0.00000180,0.00000029,0.00000742,0.00003174,-0.00000129,0.00003461,-0
 .00000289,-0.00000294,-0.00000003,-0.00000003,0.00000319,-0.00000081,-
 0.00000393,0.00000195,-0.00000560,-0.00000220,0.00000043,-0.00000410,-
 0.00000071,-0.00002092,0.00000774,-0.00001175,-0.00023353,0.00042143,-
 0.00017171,0.00005677,-0.00000590,-0.00001449,-0.00011865,0.00007795,-
 0.00000343,0.00000785,-0.00009531,-0.00001116,0.00001035,0.00001759,0.
 00000498,-0.00001419,0.00000207,-0.00000247,-0.00023709,-0.00022989,-0
 .00097873,0.00328353,-0.00496265,0.00011863,0.00066219,-0.00526707,0.0
 0133674,0.02044366,0.00855961,0.00152358,0.00088174,0.00033069,0.00006
 983,-0.01717554,-0.00610798,0.00599838,-0.00073057,-0.00042726,0.00023
 059,0.03848337,0.00248973,-0.05251614,-0.00153326,0.00211616,-0.001194
 65,-0.00076968,0.00245326,-0.00136316,-0.04317457,0.00071301,0.0469603
 8\\0.00000004,0.00000002,-0.00000042,-0.00000014,0.00000005,-0.0000001
 5,-0.00000005,0.,-0.00000041,0.00000005,0.00000036,-0.00000047,0.00000
 006,0.00000024,-0.00000021,0.00000003,0.00000021,-0.00000036,-0.000000
 08,0.00000047,-0.00000041,-0.00000006,0.00000064,-0.00000028,-0.000000
 11,0.00000063,-0.00000058,-0.00000004,0.00000045,-0.00000048,-0.000000
 06,0.00000060,-0.00000055,0.00000021,0.00000022,-0.00000021,0.00000005
 ,0.00000036,-0.00000038,0.00000028,0.00000059,-0.00000037,0.00000034,-
 0.00000002,-0.00000017,0.00000031,0.,-0.00000004,0.00000056,-0.0000000
 3,-0.00000016,0.00000064,-0.00000013,-0.00000008,0.00000067,0.00000007
 ,-0.00000027,0.00000079,0.00000005,-0.00000030,0.00000058,0.00000018,-
 0.00000036,0.00000065,0.00000026,-0.00000045,0.00000043,0.00000023,-0.
 00000034,0.00000036,0.00000027,-0.00000039,0.00000046,0.00000010,-0.00
 000027,0.00000022,-0.00000041,0.00000037,0.00000011,-0.00000030,0.0000
 0016,0.00000019,-0.00000047,0.00000039,0.00000019,-0.00000049,0.000000
 39,0.00000030,-0.00000055,0.00000043,0.00000034,-0.00000065,0.00000051
 ,0.00000030,-0.00000054,0.00000042,0.00000036,-0.00000062,0.00000047,0
 .00000019,-0.00000039,0.00000022,0.00000025,-0.00000044,0.00000033,0.0
 0000021,-0.00000016,0.00000029,-0.00000018,-0.00000014,0.00000003,-0.0
 0000013,0.00000004,0.00000014,-0.00000026,-0.00000024,0.00000036,-0.00
 000042,-0.00000009,0.00000022,-0.00000053,-0.00000019,0.00000042,-0.00
 000053,-0.00000027,0.00000044,-0.00000031,-0.00000033,0.00000033,-0.00
 000038,-0.00000042,0.00000053,-0.00000009,-0.00000022,0.00000053,-0.00
 000021,-0.00000037,0.00000047,0.00000007,-0.00000019,0.00000024,0.0000
 0037,-0.00000015,0.00000028,0.00000005,-0.00000019,0.00000020,0.000000
 07,-0.00000018,0.00000015,0.00000031,-0.00000007,0.00000012,0.00000031
 ,-0.00000013,0.00000003,0.00000045,-0.00000012,0.,0.00000053,-0.000000
 13,-0.00000008,0.00000041,-0.00000017,0.00000003,0.00000042,-0.0000001
 3,-0.00000005,0.00000037,0.00000034,-0.00000005,0.00000011,0.00000041,
 -0.00000017,0.00000009,0.00000016,-0.00000018,0.,0.00000017,-0.0000001
 5,0.00000026,0.00000020,-0.00000013,0.00000029,0.00000019,-0.00000029,
 0.00000017,0.00000023,-0.00000019,0.00000038,0.00000016,-0.00000029,0.
 00000005,-0.00000001,-0.00000007,-0.00000080,0.00000117,-0.00000046,-0
 .00000048,-0.00000146,-0.00000143,0.00000002,-0.00000056,0.00000076,-0
 .00000015,-0.00000059,0.00000049,-0.00000163,-0.00000127,0.,0.00000013
 ,-0.00000023,0.00000046,-0.00000034,0.00000008,0.00000009,-0.00000045,
 -0.00000039,0.00000031,-0.00000013,-0.00000040,0.00000015,-0.00000054,
 0.00000068,0.00000078,-0.00000060,-0.00000019,-0.00000008,0.00000169,-
 0.00000134,0.00000058,0.00000160,0.00000402,0.00000218,-0.00000099,-0.
 00000097,-0.00000048,-0.00000110,-0.00000087,0.00000005,-0.00000076,-0
 .00000077,-0.00000053,-0.00000018,0.00000064,-0.00000082,-0.00000049,0
 .00000015,-0.00000017,-0.00000063,0.00000054,-0.00000046,-0.00000094,0
 .00000108,0.00000165,-0.00000059,0.00000067,-0.00000014,-0.00000065,-0
 .00000034,-0.00000028,-0.00000090,0.00000009,-0.00000049,-0.00000046,0
 .00000033,-0.00000019,-0.00000041,0.00000045,-0.00000027,-0.00000051,0
 .00000052,-0.00000038\\\@


 NECESSARY EVIL: ONE WE LIKE TOO MUCH TO RELINQUISH.
 Job cpu time:       4 days 17 hours 48 minutes 30.5 seconds.
 Elapsed time:       0 days  1 hours 47 minutes 27.5 seconds.
 File lengths (MBytes):  RWF=  17796 Int=      0 D2E=      0 Chk=    110 Scr=      1
 Normal termination of Gaussian 16 at Wed Mar 15 05:31:42 2023.
