 Entering Gaussian System, Link 0=g16
 Input=koh.com
 Output=koh.log

 Copyright (c) 1988-2017, Gaussian, Inc.  All Rights Reserved.

 ******************************************
 Gaussian 16:  ES64L-G16RevB.01 20-Dec-2017
                 4-Jul-2026
 ******************************************
 # opt freq b3lyp def2svp

 Gaussian job

 Symbolic Z-matrix:
 Charge =  0 Multiplicity = 1
 K                    0.00000    0.00000   -0.68000
 O                    0.00000    0.00000    1.52000
 H                    0.00000    0.00000    2.49000

 GradGradGradGradGradGradGradGradGradGradGradGradGradGradGradGradGradGrad
 Berny optimization.
 Initialization pass.

 Stoichiometry    HKO
 Framework group  C*V[C*(HKO)]
 Deg. of freedom     2
 Full point group                 C*V     NOp   4
 Largest Abelian subgroup         C2V     NOp   4
 Largest concise Abelian subgroup C1      NOp   1
                         Standard orientation:
 ---------------------------------------------------------------------
 Center     Atomic      Atomic             Coordinates (Angstroms)
 Number     Number       Type             X           Y           Z
 ---------------------------------------------------------------------
      1         19           0        0.000000    0.000000   -0.680000
      2          8           0        0.000000    0.000000    1.520000
      3          1           0        0.000000    0.000000    2.490000
 ---------------------------------------------------------------------
 Rotational constants (GHZ):   ************     8.30647     8.30647
 SCF Done:  E(RB3LYP) =  -674.574123456     a.u. after    8 cycles

 GradGradGradGradGradGradGradGradGradGradGradGradGradGradGradGradGradGrad
 Berny optimization.

 Stoichiometry    HKO
 Framework group  C*V[C*(HKO)]
 Full point group                 C*V     NOp   4
                         Standard orientation:
 ---------------------------------------------------------------------
 Center     Atomic      Atomic             Coordinates (Angstroms)
 Number     Number       Type             X           Y           Z
 ---------------------------------------------------------------------
      1         19           0        0.000000    0.000000   -0.681203
      2          8           0        0.000000    0.000000    1.528416
      3          1           0        0.000000    0.000000    2.496831
 ---------------------------------------------------------------------
 Rotational constants (GHZ):   ************     8.22513     8.22513
 SCF Done:  E(RB3LYP) =  -674.574891234     a.u. after    6 cycles

         Item               Value     Threshold  Converged?
 Maximum Force            0.000003     0.000450     YES
 RMS     Force            0.000002     0.000300     YES
 Maximum Displacement     0.000003     0.001800     YES
 RMS     Displacement     0.000002     0.001200     YES
 Optimization completed.
    -- Stationary point found.

 Normal termination of Gaussian 16 at Fri Jul  4 22:29:00 2026.
 (Enter /path/g16/l1.exe)

 ******************************************
 Gaussian 16:  ES64L-G16RevB.01 20-Dec-2017
                 4-Jul-2026
 ******************************************
 # Geom=AllCheck Guess=TCheck freq RB3LYP/def2SVP

 Charge =  0 Multiplicity = 1

 Stoichiometry    HKO
 Framework group  C*V[C*(HKO)]
 Full point group                 C*V     NOp   4
                         Standard orientation:
 ---------------------------------------------------------------------
 Center     Atomic      Atomic             Coordinates (Angstroms)
 Number     Number       Type             X           Y           Z
 ---------------------------------------------------------------------
      1         19           0        0.000000    0.000000   -0.681203
      2          8           0        0.000000    0.000000    1.528416
      3          1           0        0.000000    0.000000    2.496831
 ---------------------------------------------------------------------
 Rotational constants (GHZ):   ************     8.22513     8.22513
 SCF Done:  E(RB3LYP) =  -674.574891234     a.u. after    1 cycles

 Low frequencies ---   -2.0001   -1.9999   -0.0003   -0.0001   -0.0001  241.3312
 Low frequencies ---  241.3312  456.7821 3721.4456
 Harmonic frequencies (cm**-1), IR intensities (KM/Mole), Raman scattering
 activities (A**4/AMU), depolarization ratios for plane and unpolarized
 incident light, reduced masses (AMU), force constants (mDyne/A),
 and normal coordinates:
                       1                      2                      3
                      PIU                    PIU                    SGS
 Frequencies --    241.3312               241.3312               456.7821
 Red. masses --     10.2345                10.2345                15.9372
 Frc consts  --      0.3501                 0.3501                 1.9581
 IR Inten    --     85.2341                85.2341                 0.0000
  Atom  AN      X      Y      Z        X      Y      Z        X      Y      Z
     1  19    0.00   0.33   0.00     0.33   0.00   0.00     0.00   0.00  -0.27
     2   8    0.00  -0.55   0.00    -0.55   0.00   0.00     0.00   0.00   0.66
     3   1    0.00  -0.37   0.00    -0.37   0.00   0.00     0.00   0.00   0.71
                       4
                      SGU
 Frequencies --   3721.4456
 Red. masses --      1.0642
 Frc consts  --      8.6932
 IR Inten    --    157.4321
  Atom  AN      X      Y      Z
     1  19    0.00   0.00  -0.00
     2   8    0.00   0.00  -0.16
     3   1    0.00   0.00   0.99

 -------------------
 - Thermochemistry -
 -------------------
 Temperature   298.150 Kelvin.  Pressure   1.00000 Atm.
 Atom     1 has atomic number 19 and mass  38.96371
 Atom     2 has atomic number  8 and mass  15.99491
 Atom     3 has atomic number  1 and mass   1.00783
 Molecular mass:    55.96645 amu.
 Principal axes and moments of inertia in atomic units:
                           1         2         3
     Eigenvalues --     0.00000 220.42544 220.42544
           X            0.00000   1.00000  -0.00000
           Y            0.00000   0.00000   1.00000
           Z            1.00000   0.00000  -0.00000
 This molecule is a prolate symmetric top.
 Rotational symmetry number  1.
 Rotational temperatures (Kelvin) ************     0.39294     0.39294
 Rotational constants (GHZ):      ************     8.18754     8.18754
 Zero-point vibrational energy      27878.3 (Joules/Mol)
                                    6.66308 (Kcal/Mol)
 Vibrational temperatures:    347.22   347.22   657.21  5354.33
          (Kelvin)

 Zero-point correction=                           0.010618 (Hartree/Particle)
 Thermal correction to Energy=                    0.014234
 Thermal correction to Enthalpy=                  0.015179
 Thermal correction to Gibbs Free Energy=        -0.012149
 Sum of electronic and zero-point Energies=           -674.564273
 Sum of electronic and thermal Energies=              -674.560657
 Sum of electronic and thermal Enthalpies=            -674.559713
 Sum of electronic and thermal Free Energies=         -674.587040

                     E (Thermal)             CV                S
                      KCal/Mol        Cal/Mol-Kelvin    Cal/Mol-Kelvin
 Total                    8.932              9.868             57.515
 Electronic               0.000              0.000              0.000
 Translational            0.889              2.981             37.988
 Rotational               0.592              1.987             15.166
 Vibrational              7.451              4.900              4.362
                       Q            Log10(Q)             Ln(Q)
 Total Bot       0.387295D+06          5.588000         12.867000
 Total V=0       0.296560D+11         10.472000         24.113000
 Vib (Bot)       0.310161D-04         -4.508000        -10.381000
 Vib (V=0)       0.237497D+01          0.376000          0.865000
 Electronic      0.100000D+01          0.000000          0.000000
 Translational   0.164568D+08          7.216000         16.616000
 Rotational      0.758768D+03          2.880000          6.632000
 1\1\GINC-NODE\Freq\RB3LYP\def2SVP\H1K1O1\USER\04-Jul-2026\0\\# Geom=A
 llCheck Guess=TCheck freq RB3LYP/def2SVP\\KOH\\0,1\K,0.,0.,-0.681203\O
 ,0.,0.,1.528416\H,0.,0.,2.496831\\Version=ES64L-G16RevB.01\State=1-SGS
 \HF=-674.574891234\RMSD=5.0e-09\RMSF=1.0e-06\ZeroPoint=0.010618\Therm
 al=0.014234\PG=C*V [C*(H1O1K1)]\NImag=0\\...
 Normal termination of Gaussian 16 at Fri Jul  4 22:29:10 2026.
