 Entering Gaussian System, Link 0=/home/users/astar/bmsi/zhangx5/programs/g16/g16
 Input=/home/users/astar/bmsi/zhangx5/scratch/nhc_g_opt_opt/nhc_g_opt_opt.com
 Output=/home/users/astar/bmsi/zhangx5/scratch/nhc_g_opt_opt/nhc_g_opt_opt.log
 Initial command:
 /home/users/astar/bmsi/zhangx5/programs/g16/l1.exe "/scratch/users/astar/bmsi/zhangx5/nhc_g_opt_opt/Gau-3952099.inp" -scrdir="/scratch/users/astar/bmsi/zhangx5/nhc_g_opt_opt/"
 Entering Link 1 = /home/users/astar/bmsi/zhangx5/programs/g16/l1.exe PID=   3952101.
  
 Copyright (c) 1988-2017, Gaussian, Inc.  All Rights Reserved.
  
 This is part of the Gaussian(R) 16 program.  It is based on
 the Gaussian(R) 09 system (copyright 2009, Gaussian, Inc.),
 the Gaussian(R) 03 system (copyright 2003, Gaussian, Inc.),
 the Gaussian(R) 98 system (copyright 1998, Gaussian, Inc.),
 the Gaussian(R) 94 system (copyright 1995, Gaussian, Inc.),
 the Gaussian 92(TM) system (copyright 1992, Gaussian, Inc.),
 the Gaussian 90(TM) system (copyright 1990, Gaussian, Inc.),
 the Gaussian 88(TM) system (copyright 1988, Gaussian, Inc.),
 the Gaussian 86(TM) system (copyright 1986, Carnegie Mellon
 University), and the Gaussian 82(TM) system (copyright 1983,
 Carnegie Mellon University). Gaussian is a federally registered
 trademark of Gaussian, Inc.
  
 This software contains proprietary and confidential information,
 including trade secrets, belonging to Gaussian, Inc.
  
 This software is provided under written license and may be
 used, copied, transmitted, or stored only in accord with that
 written license.
  
 The following legend is applicable only to US Government
 contracts under FAR:
  
                    RESTRICTED RIGHTS LEGEND
  
 Use, reproduction and disclosure by the US Government is
 subject to restrictions as set forth in subparagraphs (a)
 and (c) of the Commercial Computer Software - Restricted
 Rights clause in FAR 52.227-19.
  
 Gaussian, Inc.
 340 Quinnipiac St., Bldg. 40, Wallingford CT 06492
  
  
 ---------------------------------------------------------------
 Warning -- This program may not be used in any manner that
 competes with the business of Gaussian, Inc. or will provide
 assistance to any competitor of Gaussian, Inc.  The licensee
 of this program is prohibited from giving any competitor of
 Gaussian, Inc. access to this program.  By using this program,
 the user acknowledges that Gaussian, Inc. is engaged in the
 business of creating and licensing software in the field of
 computational chemistry and represents and warrants to the
 licensee that it is not a competitor of Gaussian, Inc. and that
 it will not use this program in any manner prohibited above.
 ---------------------------------------------------------------
  

 Cite this work as:
 Gaussian 16, Revision B.01,
 M. J. Frisch, G. W. Trucks, H. B. Schlegel, G. E. Scuseria, 
 M. A. Robb, J. R. Cheeseman, G. Scalmani, V. Barone, 
 G. A. Petersson, H. Nakatsuji, X. Li, M. Caricato, A. V. Marenich, 
 J. Bloino, B. G. Janesko, R. Gomperts, B. Mennucci, H. P. Hratchian, 
 J. V. Ortiz, A. F. Izmaylov, J. L. Sonnenberg, D. Williams-Young, 
 F. Ding, F. Lipparini, F. Egidi, J. Goings, B. Peng, A. Petrone, 
 T. Henderson, D. Ranasinghe, V. G. Zakrzewski, J. Gao, N. Rega, 
 G. Zheng, W. Liang, M. Hada, M. Ehara, K. Toyota, R. Fukuda, 
 J. Hasegawa, M. Ishida, T. Nakajima, Y. Honda, O. Kitao, H. Nakai, 
 T. Vreven, K. Throssell, J. A. Montgomery, Jr., J. E. Peralta, 
 F. Ogliaro, M. J. Bearpark, J. J. Heyd, E. N. Brothers, K. N. Kudin, 
 V. N. Staroverov, T. A. Keith, R. Kobayashi, J. Normand, 
 K. Raghavachari, A. P. Rendell, J. C. Burant, S. S. Iyengar, 
 J. Tomasi, M. Cossi, J. M. Millam, M. Klene, C. Adamo, R. Cammi, 
 J. W. Ochterski, R. L. Martin, K. Morokuma, O. Farkas, 
 J. B. Foresman, and D. J. Fox, Gaussian, Inc., Wallingford CT, 2016.
 
 ******************************************
 Gaussian 16:  ES64L-G16RevB.01 20-Dec-2017
                20-Jun-2024 
 ******************************************
 %chk=nhc_g_opt_opt.chk
 %nprocshared=64
 Will use up to   64 processors via shared memory.
 %mem=64GB
 -----------------------
 # opt freq m062x genecp
 -----------------------
 1/18=20,19=15,26=3,38=1/1,3;
 2/9=110,12=2,17=6,18=5,40=1/2;
 3/5=7,11=2,16=1,17=8,25=1,30=1,71=1,74=-55/1,2,3;
 4//1;
 5/5=2,38=5/2;
 6/7=2,8=2,9=2,10=2,28=1/1;
 7//1,2,3,16;
 1/18=20,19=15,26=3/3(2);
 2/9=110/2;
 99//99;
 2/9=110/2;
 3/5=7,6=1,11=2,16=1,17=8,25=1,30=1,71=1,74=-55,82=7/1,2,3;
 4/5=5,16=3,69=1/1;
 5/5=2,38=5/2;
 7//1,2,3,16;
 1/18=20,19=15,26=3/3(-5);
 2/9=110/2;
 6/7=2,8=2,9=2,10=2,19=2,28=1/1;
 99/9=1/99;
 ------------
 Gaussian job
 ------------
 Symbolic Z-matrix:
 Charge =  0 Multiplicity = 1
 C                     0.92145   0.56964  -0.98565 
 C                     1.87841   1.01014   1.00838 
 C                     3.399     1.05731  -0.91102 
 H                     3.27683   1.36692  -1.95795 
 N                     0.65265   0.74269   1.31353 
 N                     0.10044   0.47449   0.08498 
 N                     2.06999   0.93024  -0.34877 
 C                     3.03804   1.44848   1.84009 
 H                     2.69163   1.86674   2.79149 
 H                     3.70897   0.59409   2.05057 
 C                     4.26666   2.09605  -0.11034 
 O                     3.69956   2.46821   1.12773 
 C                     5.44014  -0.02651  -0.25429 
 C                     4.17755  -0.23675  -0.80598 
 C                     3.74248  -1.50881  -1.16985 
 C                     4.60743  -2.58531  -0.97664 
 C                     5.87826  -2.38289  -0.42757 
 C                     6.30352  -1.10529  -0.06296 
 C                     5.6563    1.43364   0.05331 
 H                     2.74218  -1.64863  -1.58759 
 H                     6.54266  -3.23549  -0.27848 
 H                     7.29369  -0.95544   0.37159 
 H                     6.03779   1.617     1.06875 
 H                     6.3807    1.87703  -0.64763 
 C                    -1.25991   0.08504   0.02402 
 C                    -1.6086   -1.26971   0.10617 
 C                    -2.27244   1.04277  -0.11116 
 C                    -2.94124  -1.66561   0.04382 
 C                    -3.60923   0.65712  -0.17378 
 C                    -3.93032  -0.69484  -0.09378 
 H                    -3.21099  -2.72031   0.09537 
 H                    -4.39646   1.40162  -0.29031 
 H                     4.33731   3.03619  -0.66969 
 H                     4.29203  -3.59237  -1.25333 
 I                    -0.11666  -2.72822   0.32713 
 I                    -1.79055   3.07938  -0.22384 
 C                    -5.37896  -1.11674  -0.10692 
 F                    -6.13372  -0.25242  -0.78369 
 F                    -5.53049  -2.31818  -0.66333 
 F                    -5.87172  -1.18973   1.13007 
 

 GradGradGradGradGradGradGradGradGradGradGradGradGradGradGradGradGradGrad
 Berny optimization.
 Initialization pass.
                           ----------------------------
                           !    Initial Parameters    !
                           ! (Angstroms and Degrees)  !
 --------------------------                            --------------------------
 ! Name  Definition              Value          Derivative Info.                !
 --------------------------------------------------------------------------------
 ! R1    R(1,6)                  1.3525         estimate D2E/DX2                !
 ! R2    R(1,7)                  1.3619         estimate D2E/DX2                !
 ! R3    R(2,5)                  1.2912         estimate D2E/DX2                !
 ! R4    R(2,7)                  1.3729         estimate D2E/DX2                !
 ! R5    R(2,8)                  1.4929         estimate D2E/DX2                !
 ! R6    R(3,4)                  1.0986         estimate D2E/DX2                !
 ! R7    R(3,7)                  1.4486         estimate D2E/DX2                !
 ! R8    R(3,11)                 1.5725         estimate D2E/DX2                !
 ! R9    R(3,14)                 1.5139         estimate D2E/DX2                !
 ! R10   R(5,6)                  1.3734         estimate D2E/DX2                !
 ! R11   R(6,25)                 1.4163         estimate D2E/DX2                !
 ! R12   R(8,9)                  1.0955         estimate D2E/DX2                !
 ! R13   R(8,10)                 1.1065         estimate D2E/DX2                !
 ! R14   R(8,12)                 1.4089         estimate D2E/DX2                !
 ! R15   R(11,12)                1.4117         estimate D2E/DX2                !
 ! R16   R(11,19)                1.5481         estimate D2E/DX2                !
 ! R17   R(11,33)                1.0962         estimate D2E/DX2                !
 ! R18   R(13,14)                1.3938         estimate D2E/DX2                !
 ! R19   R(13,18)                1.3949         estimate D2E/DX2                !
 ! R20   R(13,19)                1.5078         estimate D2E/DX2                !
 ! R21   R(14,15)                1.3928         estimate D2E/DX2                !
 ! R22   R(15,16)                1.3944         estimate D2E/DX2                !
 ! R23   R(15,20)                1.093          estimate D2E/DX2                !
 ! R24   R(16,17)                1.3991         estimate D2E/DX2                !
 ! R25   R(16,34)                1.091          estimate D2E/DX2                !
 ! R26   R(17,18)                1.395          estimate D2E/DX2                !
 ! R27   R(17,21)                1.0911         estimate D2E/DX2                !
 ! R28   R(18,22)                1.0917         estimate D2E/DX2                !
 ! R29   R(19,23)                1.1001         estimate D2E/DX2                !
 ! R30   R(19,24)                1.1012         estimate D2E/DX2                !
 ! R31   R(25,26)                1.4013         estimate D2E/DX2                !
 ! R32   R(25,27)                1.4003         estimate D2E/DX2                !
 ! R33   R(26,28)                1.3916         estimate D2E/DX2                !
 ! R34   R(26,35)                2.0981         estimate D2E/DX2                !
 ! R35   R(27,29)                1.3927         estimate D2E/DX2                !
 ! R36   R(27,36)                2.0959         estimate D2E/DX2                !
 ! R37   R(28,30)                1.3927         estimate D2E/DX2                !
 ! R38   R(28,31)                1.0899         estimate D2E/DX2                !
 ! R39   R(29,30)                1.3919         estimate D2E/DX2                !
 ! R40   R(29,32)                1.0898         estimate D2E/DX2                !
 ! R41   R(30,37)                1.5089         estimate D2E/DX2                !
 ! R42   R(37,38)                1.3322         estimate D2E/DX2                !
 ! R43   R(37,39)                1.3327         estimate D2E/DX2                !
 ! R44   R(37,40)                1.3335         estimate D2E/DX2                !
 ! A1    A(6,1,7)               99.2283         estimate D2E/DX2                !
 ! A2    A(5,2,7)              110.7344         estimate D2E/DX2                !
 ! A3    A(5,2,8)              131.8042         estimate D2E/DX2                !
 ! A4    A(7,2,8)              117.349          estimate D2E/DX2                !
 ! A5    A(4,3,7)              107.0125         estimate D2E/DX2                !
 ! A6    A(4,3,11)             111.1266         estimate D2E/DX2                !
 ! A7    A(4,3,14)             111.3602         estimate D2E/DX2                !
 ! A8    A(7,3,11)             111.501          estimate D2E/DX2                !
 ! A9    A(7,3,14)             111.7096         estimate D2E/DX2                !
 ! A10   A(11,3,14)            104.2141         estimate D2E/DX2                !
 ! A11   A(2,5,6)              102.1662         estimate D2E/DX2                !
 ! A12   A(1,6,5)              116.7621         estimate D2E/DX2                !
 ! A13   A(1,6,25)             124.6319         estimate D2E/DX2                !
 ! A14   A(5,6,25)             118.5803         estimate D2E/DX2                !
 ! A15   A(1,7,2)              111.0996         estimate D2E/DX2                !
 ! A16   A(1,7,3)              127.9819         estimate D2E/DX2                !
 ! A17   A(2,7,3)              120.4365         estimate D2E/DX2                !
 ! A18   A(2,8,9)              110.5066         estimate D2E/DX2                !
 ! A19   A(2,8,10)             110.5027         estimate D2E/DX2                !
 ! A20   A(2,8,12)             107.1911         estimate D2E/DX2                !
 ! A21   A(9,8,10)             108.7438         estimate D2E/DX2                !
 ! A22   A(9,8,12)             108.1343         estimate D2E/DX2                !
 ! A23   A(10,8,12)            111.7367         estimate D2E/DX2                !
 ! A24   A(3,11,12)            113.5172         estimate D2E/DX2                !
 ! A25   A(3,11,19)            105.454          estimate D2E/DX2                !
 ! A26   A(3,11,33)            110.0138         estimate D2E/DX2                !
 ! A27   A(12,11,19)           112.3762         estimate D2E/DX2                !
 ! A28   A(12,11,33)           104.3171         estimate D2E/DX2                !
 ! A29   A(19,11,33)           111.2871         estimate D2E/DX2                !
 ! A30   A(8,12,11)            116.1829         estimate D2E/DX2                !
 ! A31   A(14,13,18)           119.8885         estimate D2E/DX2                !
 ! A32   A(14,13,19)           110.8968         estimate D2E/DX2                !
 ! A33   A(18,13,19)           129.2145         estimate D2E/DX2                !
 ! A34   A(3,14,13)            111.3704         estimate D2E/DX2                !
 ! A35   A(3,14,15)            127.009          estimate D2E/DX2                !
 ! A36   A(13,14,15)           121.6106         estimate D2E/DX2                !
 ! A37   A(14,15,16)           118.3685         estimate D2E/DX2                !
 ! A38   A(14,15,20)           120.1699         estimate D2E/DX2                !
 ! A39   A(16,15,20)           121.4595         estimate D2E/DX2                !
 ! A40   A(15,16,17)           120.4058         estimate D2E/DX2                !
 ! A41   A(15,16,34)           119.8795         estimate D2E/DX2                !
 ! A42   A(17,16,34)           119.7145         estimate D2E/DX2                !
 ! A43   A(16,17,18)           120.7952         estimate D2E/DX2                !
 ! A44   A(16,17,21)           119.5809         estimate D2E/DX2                !
 ! A45   A(18,17,21)           119.6232         estimate D2E/DX2                !
 ! A46   A(13,18,17)           118.9304         estimate D2E/DX2                !
 ! A47   A(13,18,22)           120.6533         estimate D2E/DX2                !
 ! A48   A(17,18,22)           120.4149         estimate D2E/DX2                !
 ! A49   A(11,19,13)           105.3146         estimate D2E/DX2                !
 ! A50   A(11,19,23)           109.7266         estimate D2E/DX2                !
 ! A51   A(11,19,24)           110.5435         estimate D2E/DX2                !
 ! A52   A(13,19,23)           113.542          estimate D2E/DX2                !
 ! A53   A(13,19,24)           110.7549         estimate D2E/DX2                !
 ! A54   A(23,19,24)           106.9953         estimate D2E/DX2                !
 ! A55   A(6,25,26)            120.1533         estimate D2E/DX2                !
 ! A56   A(6,25,27)            120.7041         estimate D2E/DX2                !
 ! A57   A(26,25,27)           119.1417         estimate D2E/DX2                !
 ! A58   A(25,26,28)           120.7105         estimate D2E/DX2                !
 ! A59   A(25,26,35)           120.0858         estimate D2E/DX2                !
 ! A60   A(28,26,35)           119.2037         estimate D2E/DX2                !
 ! A61   A(25,27,29)           120.5979         estimate D2E/DX2                !
 ! A62   A(25,27,36)           120.2359         estimate D2E/DX2                !
 ! A63   A(29,27,36)           119.1661         estimate D2E/DX2                !
 ! A64   A(26,28,30)           119.0925         estimate D2E/DX2                !
 ! A65   A(26,28,31)           120.678          estimate D2E/DX2                !
 ! A66   A(30,28,31)           120.2284         estimate D2E/DX2                !
 ! A67   A(27,29,30)           119.1964         estimate D2E/DX2                !
 ! A68   A(27,29,32)           120.5979         estimate D2E/DX2                !
 ! A69   A(30,29,32)           120.2046         estimate D2E/DX2                !
 ! A70   A(28,30,29)           121.2589         estimate D2E/DX2                !
 ! A71   A(28,30,37)           119.1955         estimate D2E/DX2                !
 ! A72   A(29,30,37)           119.5098         estimate D2E/DX2                !
 ! A73   A(30,37,38)           111.5274         estimate D2E/DX2                !
 ! A74   A(30,37,39)           111.4            estimate D2E/DX2                !
 ! A75   A(30,37,40)           111.2225         estimate D2E/DX2                !
 ! A76   A(38,37,39)           107.962          estimate D2E/DX2                !
 ! A77   A(38,37,40)           107.3014         estimate D2E/DX2                !
 ! A78   A(39,37,40)           107.2135         estimate D2E/DX2                !
 ! D1    D(7,1,6,5)             -0.1562         estimate D2E/DX2                !
 ! D2    D(7,1,6,25)          -178.2818         estimate D2E/DX2                !
 ! D3    D(6,1,7,2)              0.6859         estimate D2E/DX2                !
 ! D4    D(6,1,7,3)            172.6411         estimate D2E/DX2                !
 ! D5    D(7,2,5,6)              0.8577         estimate D2E/DX2                !
 ! D6    D(8,2,5,6)            176.8072         estimate D2E/DX2                !
 ! D7    D(5,2,7,1)             -1.0581         estimate D2E/DX2                !
 ! D8    D(5,2,7,3)           -173.7077         estimate D2E/DX2                !
 ! D9    D(8,2,7,1)           -177.6596         estimate D2E/DX2                !
 ! D10   D(8,2,7,3)              9.6909         estimate D2E/DX2                !
 ! D11   D(5,2,8,9)            -19.07           estimate D2E/DX2                !
 ! D12   D(5,2,8,10)           101.3369         estimate D2E/DX2                !
 ! D13   D(5,2,8,12)          -136.6868         estimate D2E/DX2                !
 ! D14   D(7,2,8,9)            156.6647         estimate D2E/DX2                !
 ! D15   D(7,2,8,10)           -82.9284         estimate D2E/DX2                !
 ! D16   D(7,2,8,12)            39.0478         estimate D2E/DX2                !
 ! D17   D(4,3,7,1)             31.1734         estimate D2E/DX2                !
 ! D18   D(4,3,7,2)           -157.5366         estimate D2E/DX2                !
 ! D19   D(11,3,7,1)           152.8851         estimate D2E/DX2                !
 ! D20   D(11,3,7,2)           -35.8249         estimate D2E/DX2                !
 ! D21   D(14,3,7,1)           -90.9535         estimate D2E/DX2                !
 ! D22   D(14,3,7,2)            80.3365         estimate D2E/DX2                !
 ! D23   D(4,3,11,12)          132.0605         estimate D2E/DX2                !
 ! D24   D(4,3,11,19)         -104.5003         estimate D2E/DX2                !
 ! D25   D(4,3,11,33)           15.6033         estimate D2E/DX2                !
 ! D26   D(7,3,11,12)           12.7635         estimate D2E/DX2                !
 ! D27   D(7,3,11,19)          136.2026         estimate D2E/DX2                !
 ! D28   D(7,3,11,33)         -103.6938         estimate D2E/DX2                !
 ! D29   D(14,3,11,12)        -107.8943         estimate D2E/DX2                !
 ! D30   D(14,3,11,19)          15.5448         estimate D2E/DX2                !
 ! D31   D(14,3,11,33)         135.6485         estimate D2E/DX2                !
 ! D32   D(4,3,14,13)          110.4288         estimate D2E/DX2                !
 ! D33   D(4,3,14,15)          -70.7201         estimate D2E/DX2                !
 ! D34   D(7,3,14,13)         -129.9768         estimate D2E/DX2                !
 ! D35   D(7,3,14,15)           48.8742         estimate D2E/DX2                !
 ! D36   D(11,3,14,13)          -9.4588         estimate D2E/DX2                !
 ! D37   D(11,3,14,15)         169.3922         estimate D2E/DX2                !
 ! D38   D(2,5,6,1)             -0.4439         estimate D2E/DX2                !
 ! D39   D(2,5,6,25)           177.7999         estimate D2E/DX2                !
 ! D40   D(1,6,25,26)           88.3884         estimate D2E/DX2                !
 ! D41   D(1,6,25,27)          -91.9616         estimate D2E/DX2                !
 ! D42   D(5,6,25,26)          -89.7058         estimate D2E/DX2                !
 ! D43   D(5,6,25,27)           89.9442         estimate D2E/DX2                !
 ! D44   D(2,8,12,11)          -63.3619         estimate D2E/DX2                !
 ! D45   D(9,8,12,11)          177.482          estimate D2E/DX2                !
 ! D46   D(10,8,12,11)          57.8392         estimate D2E/DX2                !
 ! D47   D(3,11,12,8)           37.1582         estimate D2E/DX2                !
 ! D48   D(19,11,12,8)         -82.4072         estimate D2E/DX2                !
 ! D49   D(33,11,12,8)         156.912          estimate D2E/DX2                !
 ! D50   D(3,11,19,13)         -16.1285         estimate D2E/DX2                !
 ! D51   D(3,11,19,23)        -138.6855         estimate D2E/DX2                !
 ! D52   D(3,11,19,24)         103.5408         estimate D2E/DX2                !
 ! D53   D(12,11,19,13)        108.0322         estimate D2E/DX2                !
 ! D54   D(12,11,19,23)        -14.5247         estimate D2E/DX2                !
 ! D55   D(12,11,19,24)       -132.2985         estimate D2E/DX2                !
 ! D56   D(33,11,19,13)       -135.3902         estimate D2E/DX2                !
 ! D57   D(33,11,19,23)        102.0528         estimate D2E/DX2                !
 ! D58   D(33,11,19,24)        -15.7209         estimate D2E/DX2                !
 ! D59   D(18,13,14,3)         179.3067         estimate D2E/DX2                !
 ! D60   D(18,13,14,15)          0.384          estimate D2E/DX2                !
 ! D61   D(19,13,14,3)          -0.8216         estimate D2E/DX2                !
 ! D62   D(19,13,14,15)       -179.7443         estimate D2E/DX2                !
 ! D63   D(14,13,18,17)         -0.2037         estimate D2E/DX2                !
 ! D64   D(14,13,18,22)       -179.7666         estimate D2E/DX2                !
 ! D65   D(19,13,18,17)        179.951          estimate D2E/DX2                !
 ! D66   D(19,13,18,22)          0.3882         estimate D2E/DX2                !
 ! D67   D(14,13,19,11)         10.9538         estimate D2E/DX2                !
 ! D68   D(14,13,19,23)        131.0227         estimate D2E/DX2                !
 ! D69   D(14,13,19,24)       -108.5752         estimate D2E/DX2                !
 ! D70   D(18,13,19,11)       -169.1898         estimate D2E/DX2                !
 ! D71   D(18,13,19,23)        -49.1209         estimate D2E/DX2                !
 ! D72   D(18,13,19,24)         71.2812         estimate D2E/DX2                !
 ! D73   D(3,14,15,16)        -179.0835         estimate D2E/DX2                !
 ! D74   D(3,14,15,20)           0.3972         estimate D2E/DX2                !
 ! D75   D(13,14,15,16)         -0.3399         estimate D2E/DX2                !
 ! D76   D(13,14,15,20)        179.1409         estimate D2E/DX2                !
 ! D77   D(14,15,16,17)          0.124          estimate D2E/DX2                !
 ! D78   D(14,15,16,34)       -179.9762         estimate D2E/DX2                !
 ! D79   D(20,15,16,17)       -179.3497         estimate D2E/DX2                !
 ! D80   D(20,15,16,34)          0.5501         estimate D2E/DX2                !
 ! D81   D(15,16,17,18)          0.0454         estimate D2E/DX2                !
 ! D82   D(15,16,17,21)        179.7505         estimate D2E/DX2                !
 ! D83   D(34,16,17,18)       -179.8545         estimate D2E/DX2                !
 ! D84   D(34,16,17,21)         -0.1495         estimate D2E/DX2                !
 ! D85   D(16,17,18,13)         -0.006          estimate D2E/DX2                !
 ! D86   D(16,17,18,22)        179.5579         estimate D2E/DX2                !
 ! D87   D(21,17,18,13)       -179.711          estimate D2E/DX2                !
 ! D88   D(21,17,18,22)         -0.147          estimate D2E/DX2                !
 ! D89   D(6,25,26,28)        -179.8215         estimate D2E/DX2                !
 ! D90   D(6,25,26,35)           0.2259         estimate D2E/DX2                !
 ! D91   D(27,25,26,28)          0.523          estimate D2E/DX2                !
 ! D92   D(27,25,26,35)       -179.4295         estimate D2E/DX2                !
 ! D93   D(6,25,27,29)         179.8611         estimate D2E/DX2                !
 ! D94   D(6,25,27,36)          -0.0758         estimate D2E/DX2                !
 ! D95   D(26,25,27,29)         -0.4853         estimate D2E/DX2                !
 ! D96   D(26,25,27,36)        179.5777         estimate D2E/DX2                !
 ! D97   D(25,26,28,30)         -0.3836         estimate D2E/DX2                !
 ! D98   D(25,26,28,31)        179.2391         estimate D2E/DX2                !
 ! D99   D(35,26,28,30)        179.5694         estimate D2E/DX2                !
 ! D100  D(35,26,28,31)         -0.8079         estimate D2E/DX2                !
 ! D101  D(25,27,29,30)          0.3103         estimate D2E/DX2                !
 ! D102  D(25,27,29,32)       -179.3044         estimate D2E/DX2                !
 ! D103  D(36,27,29,30)       -179.752          estimate D2E/DX2                !
 ! D104  D(36,27,29,32)          0.6332         estimate D2E/DX2                !
 ! D105  D(26,28,30,29)          0.2048         estimate D2E/DX2                !
 ! D106  D(26,28,30,37)       -177.608          estimate D2E/DX2                !
 ! D107  D(31,28,30,29)       -179.4195         estimate D2E/DX2                !
 ! D108  D(31,28,30,37)          2.7676         estimate D2E/DX2                !
 ! D109  D(27,29,30,28)         -0.1686         estimate D2E/DX2                !
 ! D110  D(27,29,30,37)        177.6374         estimate D2E/DX2                !
 ! D111  D(32,29,30,28)        179.4476         estimate D2E/DX2                !
 ! D112  D(32,29,30,37)         -2.7463         estimate D2E/DX2                !
 ! D113  D(28,30,37,38)       -153.351          estimate D2E/DX2                !
 ! D114  D(28,30,37,39)        -32.644          estimate D2E/DX2                !
 ! D115  D(28,30,37,40)         86.9041         estimate D2E/DX2                !
 ! D116  D(29,30,37,38)         28.7973         estimate D2E/DX2                !
 ! D117  D(29,30,37,39)        149.5043         estimate D2E/DX2                !
 ! D118  D(29,30,37,40)        -90.9476         estimate D2E/DX2                !
 --------------------------------------------------------------------------------
 Trust Radius=3.00D-01 FncErr=1.00D-07 GrdErr=1.00D-06 EigMax=2.50D+02 EigMin=1.00D-04
 Number of steps in this run=    240 maximum allowed number of steps=    240.
 GradGradGradGradGradGradGradGradGradGradGradGradGradGradGradGradGradGrad

                          Input orientation:                          
 ---------------------------------------------------------------------
 Center     Atomic      Atomic             Coordinates (Angstroms)
 Number     Number       Type             X           Y           Z
 ---------------------------------------------------------------------
      1          6           0        0.921451    0.569641   -0.985651
      2          6           0        1.878406    1.010137    1.008382
      3          6           0        3.398997    1.057312   -0.911020
      4          1           0        3.276826    1.366923   -1.957952
      5          7           0        0.652645    0.742690    1.313527
      6          7           0        0.100440    0.474491    0.084982
      7          7           0        2.069992    0.930240   -0.348767
      8          6           0        3.038041    1.448476    1.840090
      9          1           0        2.691626    1.866741    2.791490
     10          1           0        3.708970    0.594090    2.050573
     11          6           0        4.266664    2.096046   -0.110338
     12          8           0        3.699564    2.468212    1.127729
     13          6           0        5.440141   -0.026513   -0.254289
     14          6           0        4.177555   -0.236751   -0.805979
     15          6           0        3.742482   -1.508809   -1.169846
     16          6           0        4.607428   -2.585306   -0.976640
     17          6           0        5.878263   -2.382885   -0.427573
     18          6           0        6.303518   -1.105290   -0.062964
     19          6           0        5.656295    1.433639    0.053307
     20          1           0        2.742184   -1.648625   -1.587589
     21          1           0        6.542660   -3.235492   -0.278480
     22          1           0        7.293688   -0.955438    0.371586
     23          1           0        6.037792    1.616995    1.068745
     24          1           0        6.380697    1.877027   -0.647632
     25          6           0       -1.259912    0.085035    0.024020
     26          6           0       -1.608599   -1.269708    0.106165
     27          6           0       -2.272436    1.042767   -0.111163
     28          6           0       -2.941243   -1.665609    0.043818
     29          6           0       -3.609232    0.657120   -0.173777
     30          6           0       -3.930319   -0.694837   -0.093780
     31          1           0       -3.210993   -2.720308    0.095373
     32          1           0       -4.396459    1.401622   -0.290313
     33          1           0        4.337314    3.036186   -0.669692
     34          1           0        4.292031   -3.592374   -1.253333
     35         53           0       -0.116660   -2.728222    0.327131
     36         53           0       -1.790550    3.079384   -0.223835
     37          6           0       -5.378964   -1.116740   -0.106919
     38          9           0       -6.133723   -0.252418   -0.783689
     39          9           0       -5.530493   -2.318180   -0.663332
     40          9           0       -5.871724   -1.189730    1.130073
 ---------------------------------------------------------------------
                    Distance matrix (angstroms):
                    1          2          3          4          5
     1  C    0.000000
     2  C    2.255209   0.000000
     3  C    2.526188   2.449189   0.000000
     4  H    2.669985   3.298789   1.098568   0.000000
     5  N    2.321298   1.291174   3.548245   4.240114   0.000000
     6  N    1.352541   2.073824   3.494593   3.880650   1.373384
     7  N    1.361910   1.372932   1.448630   2.058304   2.192548
     8  C    3.638285   1.492861   2.802125   3.806415   2.542738
     9  H    4.368384   2.138825   3.855403   4.811390   2.757772
    10  H    4.121834   2.147143   3.013584   4.105154   3.147450
    11  C    3.779753   2.852106   1.572548   2.219251   4.113405
    12  O    3.973520   2.335989   2.497494   3.303479   3.506517
    13  C    4.616151   3.918538   2.402549   3.086108   5.096061
    14  C    3.359280   3.183194   1.513864   2.170282   4.228073
    15  C    3.508860   3.816352   2.601913   3.017910   4.558890
    16  C    4.851824   4.931033   3.838395   4.284109   5.653382
    17  C    5.796451   5.438145   4.267955   4.813584   6.333067
    18  C    5.711689   5.020401   3.719178   4.343234   6.102632
    19  C    4.923888   3.919690   2.483333   3.116326   5.205966
    20  H    2.932252   3.814996   2.865527   3.084889   4.301283
    21  H    6.824743   6.437130   5.358254   5.887998   7.283728
    22  H    6.691290   5.796057   4.567807   5.191848   6.919129
    23  H    5.611991   4.203857   3.346036   4.104432   5.461148
    24  H    5.623778   4.874885   3.103521   3.407515   6.159825
    25  C    2.452065   3.416698   4.850263   5.114044   2.398586
    26  C    3.313068   4.262733   5.614776   5.922819   3.258940
    27  C    3.345070   4.299295   5.727577   5.857475   3.267398
    28  C    4.580017   5.596340   6.965964   7.201924   4.508669
    29  C    4.603681   5.624615   7.058254   7.148769   4.514753
    30  C    5.092545   6.153290   7.580025   7.724567   5.005053
    31  H    5.391611   6.375875   7.679532   7.938098   5.329536
    32  H    5.427325   6.419798   7.827705   7.852485   5.338534
    33  H    4.225138   3.600977   2.203320   2.360230   4.771799
    34  H    5.362353   5.667808   4.747027   5.110945   6.215037
    35  I    3.698239   4.291820   5.312545   5.788572   3.689449
    36  I    3.772814   4.388779   5.611809   5.622987   3.713869
    37  C    6.581131   7.644405   9.078859   9.193346   6.469579
    38  F    7.105776   8.306610   9.623116   9.620790   7.172402
    39  F    7.076085   8.292413   9.549402   9.634568   7.176914
    40  F    7.329318   8.057217   9.755077   9.988410   6.807003
                    6          7          8          9         10
     6  N    0.000000
     7  N    2.067603   0.000000
     8  C    3.557886   2.448833   0.000000
     9  H    3.997223   3.335368   1.095496   0.000000
    10  H    4.110881   2.925077   1.106537   1.789857   0.000000
    11  C    4.474932   2.498263   2.394375   3.309672   2.690061
    12  O    4.244519   2.683450   1.408876   2.036125   2.089034
    13  C    5.373874   3.504598   3.511709   4.518353   2.948642
    14  C    4.233502   2.452087   3.337688   4.424302   3.011604
    15  C    4.332729   3.069259   4.278024   5.309503   3.846350
    16  C    5.549986   4.380853   5.164140   6.139204   4.481049
    17  C    6.466108   5.048360   5.280955   6.210986   4.439529
    18  C    6.402794   4.706146   4.561433   5.479657   3.753213
    19  C    5.638128   3.643713   3.169869   4.058877   2.913072
    20  H    3.779408   2.938889   4.629098   5.615753   4.381857
    21  H    7.443002   6.112530   6.221756   7.091400   5.302828
    22  H    7.339595   5.600151   5.103512   5.916046   4.250910
    23  H    6.125786   4.269006   3.101915   3.771876   2.726487
    24  H    6.476531   4.423562   4.188767   5.043502   4.008037
    25  C    1.416316   3.455662   4.861017   5.142764   5.390347
    26  C    2.442026   4.310309   5.655642   5.961562   5.960789
    27  C    2.447846   4.350379   5.672138   5.809151   6.375863
    28  C    3.719349   5.657299   6.976816   7.194193   7.304700
    29  C    3.723167   5.688480   6.990575   7.068013   7.649038
    30  C    4.200750   6.221706   7.542658   7.663982   8.038552
    31  H    4.601352   6.435259   7.711888   7.946759   7.917950
    32  H    4.606791   6.483873   7.733861   7.743048   8.475248
    33  H    5.008285   3.111069   3.241595   4.006953   3.709244
    34  H    5.991654   5.119544   6.045819   6.980245   5.364908
    35  I    3.219183   4.315394   5.448485   5.922265   5.351958
    36  I    3.233679   4.420205   5.498631   5.536478   6.449367
    37  C    5.709003   7.728879   9.012056   9.079447   9.495907
    38  F    6.336227   8.299926   9.690124   9.754974  10.277559
    39  F    6.329802   8.271551   9.688890   9.851528  10.060530
    40  F    6.287177   8.351772   9.319236   9.243013   9.788720
                   11         12         13         14         15
    11  C    0.000000
    12  O    1.411708   0.000000
    13  C    2.429615   3.341143   0.000000
    14  C    2.435939   3.359245   1.393802   0.000000
    15  C    3.793719   4.593189   2.432590   1.392774   0.000000
    16  C    4.773013   5.548931   2.786149   2.393664   1.394384
    17  C    4.770609   5.540653   2.403012   2.764325   2.424157
    18  C    3.794677   4.579109   1.394914   2.413742   2.819028
    19  C    1.548108   2.460390   1.507774   2.390658   3.717093
    20  H    4.304517   5.023731   3.418758   2.159767   1.093002
    21  H    5.799459   6.526320   3.393181   3.855441   3.408367
    22  H    4.325122   5.021042   2.165700   3.407852   3.910664
    23  H    2.180968   2.489048   2.192880   3.226677   4.477766
    24  H    2.192211   3.269538   2.159358   3.057281   4.323976
    25  C    5.882624   5.611961   6.706758   5.509854   5.384199
    26  C    6.774503   6.572080   7.166603   5.947990   5.506309
    27  C    6.623385   6.263508   7.787663   6.612285   6.618957
    28  C    8.131896   7.897066   8.545356   7.310340   6.794832
    29  C    8.006514   7.641497   9.075516   7.863379   7.728590
    30  C    8.659090   8.349376   9.395634   8.151975   7.790529
    31  H    8.896906   8.703005   9.067575   7.846727   7.170727
    32  H    8.692774   8.288187   9.939797   8.744364   8.688299
    33  H    1.096235   1.989985   3.281602   3.279667   4.610961
    34  H    5.802172   6.538438   3.877062   3.387246   2.156436
    35  I    6.532876   6.496726   6.206071   5.092313   4.315192
    36  I    6.137563   5.686968   7.869588   6.852293   7.249889
    37  C   10.166619   9.838491  10.874895   9.622376   9.191535
    38  F   10.683480  10.380216  11.588167  10.311314   9.963286
    39  F   10.759901  10.550422  11.214895   9.929697   9.322001
    40  F   10.729485  10.246468  11.455471  10.278350   9.890622
                   16         17         18         19         20
    16  C    0.000000
    17  C    1.399096   0.000000
    18  C    2.429398   1.395002   0.000000
    19  C    4.279349   3.853099   2.622704   0.000000
    20  H    2.174802   3.423414   3.911879   4.548069   0.000000
    21  H    2.157613   1.091142   2.154390   4.764085   4.321520
    22  H    3.419090   2.163259   1.091662   2.913768   5.003505
    23  H    4.887625   4.273577   2.960103   1.100124   5.346159
    24  H    4.813018   4.295080   3.040067   1.101211   5.152914
    25  C    6.523628   7.566248   7.657017   7.046525   4.649692
    26  C    6.445328   7.587960   7.915632   7.751746   4.684196
    27  C    7.825886   8.846983   8.841010   7.940063   5.879612
    28  C    7.672653   8.861173   9.262341   9.139097   5.912962
    29  C    8.869691   9.965872  10.068812   9.300782   6.903319
    30  C    8.788995   9.958374  10.242111   9.821161   6.903874
    31  H    7.892727   9.110538   9.651905   9.792132   6.278629
    32  H    9.870999  10.950399  10.992079  10.058676   7.870652
    33  H    5.636342   5.639102   4.624489   2.197862   5.033332
    34  H    1.090972   2.158906   3.413011   5.369295   2.508369
    35  I    4.902780   6.052102   6.633609   7.122013   3.606199
    36  I    8.578435   9.417462   9.113249   7.631565   6.690259
    37  C   10.131196  11.332745  11.682570  11.327270   8.272142
    38  F   10.993267  12.204651  12.487265  11.939341   9.020941
    39  F   10.146278  11.411375  11.911144  11.820911   8.351032
    40  F   10.779541  11.912685  12.233846  11.871677   9.044097
                   21         22         23         24         25
    21  H    0.000000
    22  H    2.487021   0.000000
    23  H    5.061278   2.946306   0.000000
    24  H    5.128387   3.145666   1.769506   0.000000
    25  C    8.485136   8.623657   7.529597   7.876627   0.000000
    26  C    8.393764   8.911786   8.229636   8.619687   1.401306
    27  C    9.799868   9.784508   8.413193   8.709793   1.400261
    28  C    9.618359  10.264774   9.615042   9.996346   2.427348
    29  C   10.873100  11.035009   9.773960  10.075286   2.426048
    30  C   10.778327  11.236673  10.298508  10.641348   2.784448
    31  H    9.774402  10.655486  10.261563  10.662460   3.417859
    32  H   11.881384  11.943759  10.524591  10.793553   3.416158
    33  H    6.659620   5.075182   2.815651   2.349372   6.365490
    34  H    2.478514   4.313205   5.964667   5.885894   6.780785
    35  I    6.706014   7.619580   7.570217   8.023349   3.051773
    36  I   10.455766   9.957796   8.067979   8.270099   3.051087
    37  C   12.109652  12.682708  11.798212  12.146795   4.292784
    38  F   13.032446  13.495342  12.452791  12.695029   4.951798
    39  F   12.114066  12.937841  12.341431  12.628399   4.948309
    40  F   12.660414  13.189324  12.235932  12.754884   4.910925
                   26         27         28         29         30
    26  C    0.000000
    27  C    2.415668   0.000000
    28  C    1.391605   2.794033   0.000000
    29  C    2.791696   1.392720   2.426649   0.000000
    30  C    2.400175   2.401696   1.392696   1.391864   0.000000
    31  H    2.161486   3.883849   1.089868   3.411459   2.157717
    32  H    3.881412   2.161561   3.411335   1.089766   2.156630
    33  H    7.382178   6.926360   8.694444   8.309842   9.088782
    34  H    6.485403   8.116730   7.597057   9.036238   8.794733
    35  I    2.098087   4.365757   3.031119   4.889735   4.342328
    36  I    4.365387   2.095881   4.889856   3.029434   4.340538
    37  C    3.779478   3.783385   2.503290   2.506591   1.508889
    38  F    4.722655   4.127873   3.588009   2.751782   2.350893
    39  F    4.131909   4.713363   2.762268   3.575377   2.349508
    40  F    4.385091   4.413568   3.161349   3.198398   2.347720
                   31         32         33         34         35
    31  H    0.000000
    32  H    4.306320   0.000000
    33  H    9.523628   8.893510   0.000000
    34  H    7.672997  10.067634   6.654359   0.000000
    35  I    3.103010   5.979425   7.352547   4.762476   0.000000
    36  I    5.979630   3.100011   6.144214   9.086804   6.069082
    37  C    2.704154   2.709446  10.581567  10.048441   5.520608
    38  F    3.924994   2.448950  10.975907  10.957747   6.600649
    39  F    2.473342   3.906674  11.226883   9.922381   5.518944
    40  F    3.239253   3.302879  11.194730  10.712387   6.011026
                   36         37         38         39         40
    36  I    0.000000
    37  C    5.522485   0.000000
    38  F    5.502499   1.332190   0.000000
    39  F    6.581339   1.332672   2.155399   0.000000
    40  F    6.059239   1.333525   2.147017   2.146192   0.000000
 Stoichiometry    C19H12F3I2N3O
 Framework group  C1[X(C19H12F3I2N3O)]
 Deg. of freedom   114
 Full point group                 C1      NOp   1
 Largest Abelian subgroup         C1      NOp   1
 Largest concise Abelian subgroup C1      NOp   1
                         Standard orientation:                         
 ---------------------------------------------------------------------
 Center     Atomic      Atomic             Coordinates (Angstroms)
 Number     Number       Type             X           Y           Z
 ---------------------------------------------------------------------
      1          6           0        0.921451    0.569641   -0.985651
      2          6           0        1.878406    1.010137    1.008382
      3          6           0        3.398997    1.057312   -0.911020
      4          1           0        3.276826    1.366923   -1.957952
      5          7           0        0.652645    0.742690    1.313527
      6          7           0        0.100440    0.474491    0.084982
      7          7           0        2.069992    0.930240   -0.348767
      8          6           0        3.038041    1.448476    1.840090
      9          1           0        2.691626    1.866741    2.791490
     10          1           0        3.708970    0.594090    2.050573
     11          6           0        4.266664    2.096046   -0.110338
     12          8           0        3.699564    2.468212    1.127729
     13          6           0        5.440141   -0.026513   -0.254289
     14          6           0        4.177555   -0.236751   -0.805979
     15          6           0        3.742482   -1.508809   -1.169846
     16          6           0        4.607428   -2.585306   -0.976640
     17          6           0        5.878263   -2.382885   -0.427573
     18          6           0        6.303518   -1.105290   -0.062964
     19          6           0        5.656295    1.433639    0.053307
     20          1           0        2.742184   -1.648625   -1.587589
     21          1           0        6.542660   -3.235492   -0.278480
     22          1           0        7.293688   -0.955438    0.371586
     23          1           0        6.037792    1.616995    1.068745
     24          1           0        6.380697    1.877027   -0.647632
     25          6           0       -1.259912    0.085035    0.024020
     26          6           0       -1.608599   -1.269708    0.106165
     27          6           0       -2.272436    1.042767   -0.111163
     28          6           0       -2.941243   -1.665609    0.043818
     29          6           0       -3.609232    0.657120   -0.173777
     30          6           0       -3.930319   -0.694837   -0.093780
     31          1           0       -3.210993   -2.720308    0.095373
     32          1           0       -4.396459    1.401622   -0.290313
     33          1           0        4.337314    3.036186   -0.669692
     34          1           0        4.292031   -3.592374   -1.253333
     35         53           0       -0.116660   -2.728222    0.327131
     36         53           0       -1.790550    3.079384   -0.223835
     37          6           0       -5.378964   -1.116740   -0.106919
     38          9           0       -6.133723   -0.252418   -0.783689
     39          9           0       -5.530493   -2.318180   -0.663332
     40          9           0       -5.871724   -1.189730    1.130073
 ---------------------------------------------------------------------
 Rotational constants (GHZ):           0.1621727           0.0738095           0.0533642
 General basis read from cards:  (5D, 7F)
 ======================================================================================================
                                       Pseudopotential Parameters
 ======================================================================================================
  Center     Atomic      Valence      Angular      Power
  Number     Number     Electrons     Momentum     of R      Exponent        Coefficient   SO-Coeffient
 ======================================================================================================
    1          6
                                   No pseudopotential on this center.
    2          6
                                   No pseudopotential on this center.
    3          6
                                   No pseudopotential on this center.
    4          1
                                   No pseudopotential on this center.
    5          7
                                   No pseudopotential on this center.
    6          7
                                   No pseudopotential on this center.
    7          7
                                   No pseudopotential on this center.
    8          6
                                   No pseudopotential on this center.
    9          1
                                   No pseudopotential on this center.
   10          1
                                   No pseudopotential on this center.
   11          6
                                   No pseudopotential on this center.
   12          8
                                   No pseudopotential on this center.
   13          6
                                   No pseudopotential on this center.
   14          6
                                   No pseudopotential on this center.
   15          6
                                   No pseudopotential on this center.
   16          6
                                   No pseudopotential on this center.
   17          6
                                   No pseudopotential on this center.
   18          6
                                   No pseudopotential on this center.
   19          6
                                   No pseudopotential on this center.
   20          1
                                   No pseudopotential on this center.
   21          1
                                   No pseudopotential on this center.
   22          1
                                   No pseudopotential on this center.
   23          1
                                   No pseudopotential on this center.
   24          1
                                   No pseudopotential on this center.
   25          6
                                   No pseudopotential on this center.
   26          6
                                   No pseudopotential on this center.
   27          6
                                   No pseudopotential on this center.
   28          6
                                   No pseudopotential on this center.
   29          6
                                   No pseudopotential on this center.
   30          6
                                   No pseudopotential on this center.
   31          1
                                   No pseudopotential on this center.
   32          1
                                   No pseudopotential on this center.
   33          1
                                   No pseudopotential on this center.
   34          1
                                   No pseudopotential on this center.
   35         53           25
                                      F and up 
                                                     2       19.4586090      -21.84204000    0.00000000
                                                     2       19.3492600      -28.46819100    0.00000000
                                                     2        4.8237670       -0.24371300    0.00000000
                                                     2        4.8843150       -0.32080400    0.00000000
                                      S - F
                                                     2       40.0158350       49.99429300    0.00000000
                                                     2       17.4297470      281.02531700    0.00000000
                                                     2        9.0054840       61.57332600    0.00000000
                                                     2       19.4586090       21.84204000    0.00000000
                                                     2       19.3492600       28.46819100    0.00000000
                                                     2        4.8237670        0.24371300    0.00000000
                                                     2        4.8843150        0.32080400    0.00000000
                                      P - F
                                                     2       15.3554660       67.44284100    0.00000000
                                                     2       14.9718330      134.88113700    0.00000000
                                                     2        8.9601640       14.67505100    0.00000000
                                                     2        8.2590960       29.37566600    0.00000000
                                                     2       19.4586090       21.84204000    0.00000000
                                                     2       19.3492600       28.46819100    0.00000000
                                                     2        4.8237670        0.24371300    0.00000000
                                                     2        4.8843150        0.32080400    0.00000000
                                      D - F
                                                     2       15.0689080       35.43952900    0.00000000
                                                     2       14.5553220       53.17605700    0.00000000
                                                     2        6.7186470        9.06719500    0.00000000
                                                     2        6.4563930       13.20693700    0.00000000
                                                     2        1.1917790        0.08933500    0.00000000
                                                     2        1.2911570        0.05238000    0.00000000
                                                     2       19.4586090       21.84204000    0.00000000
                                                     2       19.3492600       28.46819100    0.00000000
                                                     2        4.8237670        0.24371300    0.00000000
                                                     2        4.8843150        0.32080400    0.00000000
   36         53           25
                                      F and up 
                                                     2       19.4586090      -21.84204000    0.00000000
                                                     2       19.3492600      -28.46819100    0.00000000
                                                     2        4.8237670       -0.24371300    0.00000000
                                                     2        4.8843150       -0.32080400    0.00000000
                                      S - F
                                                     2       40.0158350       49.99429300    0.00000000
                                                     2       17.4297470      281.02531700    0.00000000
                                                     2        9.0054840       61.57332600    0.00000000
                                                     2       19.4586090       21.84204000    0.00000000
                                                     2       19.3492600       28.46819100    0.00000000
                                                     2        4.8237670        0.24371300    0.00000000
                                                     2        4.8843150        0.32080400    0.00000000
                                      P - F
                                                     2       15.3554660       67.44284100    0.00000000
                                                     2       14.9718330      134.88113700    0.00000000
                                                     2        8.9601640       14.67505100    0.00000000
                                                     2        8.2590960       29.37566600    0.00000000
                                                     2       19.4586090       21.84204000    0.00000000
                                                     2       19.3492600       28.46819100    0.00000000
                                                     2        4.8237670        0.24371300    0.00000000
                                                     2        4.8843150        0.32080400    0.00000000
                                      D - F
                                                     2       15.0689080       35.43952900    0.00000000
                                                     2       14.5553220       53.17605700    0.00000000
                                                     2        6.7186470        9.06719500    0.00000000
                                                     2        6.4563930       13.20693700    0.00000000
                                                     2        1.1917790        0.08933500    0.00000000
                                                     2        1.2911570        0.05238000    0.00000000
                                                     2       19.4586090       21.84204000    0.00000000
                                                     2       19.3492600       28.46819100    0.00000000
                                                     2        4.8237670        0.24371300    0.00000000
                                                     2        4.8843150        0.32080400    0.00000000
   37          6
                                   No pseudopotential on this center.
   38          9
                                   No pseudopotential on this center.
   39          9
                                   No pseudopotential on this center.
   40          9
                                   No pseudopotential on this center.
 ======================================================================================================
 There are   526 symmetry adapted cartesian basis functions of A   symmetry.
 There are   494 symmetry adapted basis functions of A   symmetry.
   494 basis functions,   888 primitive gaussians,   526 cartesian basis functions
   116 alpha electrons      116 beta electrons
       nuclear repulsion energy      3224.9098618784 Hartrees.
 NAtoms=   40 NActive=   40 NUniq=   40 SFac= 1.00D+00 NAtFMM=   60 NAOKFM=F Big=F
 Integral buffers will be    131072 words long.
 Raffenetti 2 integral format.
 Two-electron integral symmetry is turned on.
 One-electron integrals computed using PRISM.
   1 Symmetry operations used in ECPInt.
 ECPInt:  NShTT=   23871 NPrTT=   90538 LenC2=   19817 LenP2D=   50273.
 LDataN:  DoStor=T MaxTD1= 5 Len=  102
 NBasis=   494 RedAO= T EigKep=  2.04D-04  NBF=   494
 NBsUse=   494 1.00D-06 EigRej= -1.00D+00 NBFU=   494
 Defaulting to unpruned grid for atomic number  53.
 Defaulting to unpruned grid for atomic number  53.
 ExpMin= 2.98D-02 ExpMax= 2.89D+03 ExpMxC= 4.35D+02 IAcc=3 IRadAn=         5 AccDes= 0.00D+00
 Harris functional with IExCor= 1009 and IRadAn=       5 diagonalized for initial guess.
 HarFok:  IExCor= 1009 AccDes= 0.00D+00 IRadAn=         5 IDoV= 1 UseB2=F ITyADJ=14
 ICtDFT=  3500011 ScaDFX=  1.000000  1.000000  1.000000  1.000000
 Defaulting to unpruned grid for atomic number  53.
 FoFCou: FMM=F IPFlag=           0 FMFlag=      100000 FMFlg1=           0
         NFxFlg=           0 DoJE=T BraDBF=F KetDBF=T FulRan=T
         wScrn=  0.000000 ICntrl=       500 IOpCl=  0 I1Cent=   200000004 NGrid=           0
         NMat0=    1 NMatS0=      1 NMatT0=    0 NMatD0=    1 NMtDS0=    0 NMtDT0=    0
 Petite list used in FoFCou.
 Requested convergence on RMS density matrix=1.00D-08 within 128 cycles.
 Requested convergence on MAX density matrix=1.00D-06.
 Requested convergence on             energy=1.00D-06.
 No special actions if energy rises.
 Defaulting to unpruned grid for atomic number  53.
 Defaulting to unpruned grid for atomic number  53.
 Defaulting to unpruned grid for atomic number  53.
 Defaulting to unpruned grid for atomic number  53.
 Defaulting to unpruned grid for atomic number  53.
 Defaulting to unpruned grid for atomic number  53.
 Defaulting to unpruned grid for atomic number  53.
 Defaulting to unpruned grid for atomic number  53.
 Defaulting to unpruned grid for atomic number  53.
 Defaulting to unpruned grid for atomic number  53.
 Defaulting to unpruned grid for atomic number  53.
 Defaulting to unpruned grid for atomic number  53.
 Defaulting to unpruned grid for atomic number  53.
 Defaulting to unpruned grid for atomic number  53.
 Defaulting to unpruned grid for atomic number  53.
 Defaulting to unpruned grid for atomic number  53.
 Defaulting to unpruned grid for atomic number  53.
 Defaulting to unpruned grid for atomic number  53.
 Defaulting to unpruned grid for atomic number  53.
 Defaulting to unpruned grid for atomic number  53.
 Defaulting to unpruned grid for atomic number  53.
 Defaulting to unpruned grid for atomic number  53.
 Defaulting to unpruned grid for atomic number  53.
 Defaulting to unpruned grid for atomic number  53.
 Defaulting to unpruned grid for atomic number  53.
 Defaulting to unpruned grid for atomic number  53.
 Defaulting to unpruned grid for atomic number  53.
 Defaulting to unpruned grid for atomic number  53.
 Defaulting to unpruned grid for atomic number  53.
 Defaulting to unpruned grid for atomic number  53.
 Defaulting to unpruned grid for atomic number  53.
 Defaulting to unpruned grid for atomic number  53.
 Defaulting to unpruned grid for atomic number  53.
 Defaulting to unpruned grid for atomic number  53.
 Defaulting to unpruned grid for atomic number  53.
 Defaulting to unpruned grid for atomic number  53.
 Defaulting to unpruned grid for atomic number  53.
 Defaulting to unpruned grid for atomic number  53.
 Defaulting to unpruned grid for atomic number  53.
 Defaulting to unpruned grid for atomic number  53.
 Defaulting to unpruned grid for atomic number  53.
 Defaulting to unpruned grid for atomic number  53.
 Defaulting to unpruned grid for atomic number  53.
 Defaulting to unpruned grid for atomic number  53.
 Defaulting to unpruned grid for atomic number  53.
 Defaulting to unpruned grid for atomic number  53.
 Defaulting to unpruned grid for atomic number  53.
 Defaulting to unpruned grid for atomic number  53.
 Defaulting to unpruned grid for atomic number  53.
 Defaulting to unpruned grid for atomic number  53.
 Defaulting to unpruned grid for atomic number  53.
 Defaulting to unpruned grid for atomic number  53.
 Defaulting to unpruned grid for atomic number  53.
 Defaulting to unpruned grid for atomic number  53.
 Defaulting to unpruned grid for atomic number  53.
 Defaulting to unpruned grid for atomic number  53.
 Defaulting to unpruned grid for atomic number  53.
 Defaulting to unpruned grid for atomic number  53.
 Defaulting to unpruned grid for atomic number  53.
 Defaulting to unpruned grid for atomic number  53.
 Defaulting to unpruned grid for atomic number  53.
 Defaulting to unpruned grid for atomic number  53.
 Defaulting to unpruned grid for atomic number  53.
 Defaulting to unpruned grid for atomic number  53.
 SCF Done:  E(RM062X) =  -1864.04016695     A.U. after   14 cycles
            NFock= 14  Conv=0.34D-08     -V/T= 2.2554

 **********************************************************************

            Population analysis using the SCF Density.

 **********************************************************************

 Orbital symmetries:
       Occupied  (A) (A) (A) (A) (A) (A) (A) (A) (A) (A) (A) (A)
                 (A) (A) (A) (A) (A) (A) (A) (A) (A) (A) (A) (A)
                 (A) (A) (A) (A) (A) (A) (A) (A) (A) (A) (A) (A)
                 (A) (A) (A) (A) (A) (A) (A) (A) (A) (A) (A) (A)
                 (A) (A) (A) (A) (A) (A) (A) (A) (A) (A) (A) (A)
                 (A) (A) (A) (A) (A) (A) (A) (A) (A) (A) (A) (A)
                 (A) (A) (A) (A) (A) (A) (A) (A) (A) (A) (A) (A)
                 (A) (A) (A) (A) (A) (A) (A) (A) (A) (A) (A) (A)
                 (A) (A) (A) (A) (A) (A) (A) (A) (A) (A) (A) (A)
                 (A) (A) (A) (A) (A) (A) (A) (A)
       Virtual   (A) (A) (A) (A) (A) (A) (A) (A) (A) (A) (A) (A)
                 (A) (A) (A) (A) (A) (A) (A) (A) (A) (A) (A) (A)
                 (A) (A) (A) (A) (A) (A) (A) (A) (A) (A) (A) (A)
                 (A) (A) (A) (A) (A) (A) (A) (A) (A) (A) (A) (A)
                 (A) (A) (A) (A) (A) (A) (A) (A) (A) (A) (A) (A)
                 (A) (A) (A) (A) (A) (A) (A) (A) (A) (A) (A) (A)
                 (A) (A) (A) (A) (A) (A) (A) (A) (A) (A) (A) (A)
                 (A) (A) (A) (A) (A) (A) (A) (A) (A) (A) (A) (A)
                 (A) (A) (A) (A) (A) (A) (A) (A) (A) (A) (A) (A)
                 (A) (A) (A) (A) (A) (A) (A) (A) (A) (A) (A) (A)
                 (A) (A) (A) (A) (A) (A) (A) (A) (A) (A) (A) (A)
                 (A) (A) (A) (A) (A) (A) (A) (A) (A) (A) (A) (A)
                 (A) (A) (A) (A) (A) (A) (A) (A) (A) (A) (A) (A)
                 (A) (A) (A) (A) (A) (A) (A) (A) (A) (A) (A) (A)
                 (A) (A) (A) (A) (A) (A) (A) (A) (A) (A) (A) (A)
                 (A) (A) (A) (A) (A) (A) (A) (A) (A) (A) (A) (A)
                 (A) (A) (A) (A) (A) (A) (A) (A) (A) (A) (A) (A)
                 (A) (A) (A) (A) (A) (A) (A) (A) (A) (A) (A) (A)
                 (A) (A) (A) (A) (A) (A) (A) (A) (A) (A) (A) (A)
                 (A) (A) (A) (A) (A) (A) (A) (A) (A) (A) (A) (A)
                 (A) (A) (A) (A) (A) (A) (A) (A) (A) (A) (A) (A)
                 (A) (A) (A) (A) (A) (A) (A) (A) (A) (A) (A) (A)
                 (A) (A) (A) (A) (A) (A) (A) (A) (A) (A) (A) (A)
                 (A) (A) (A) (A) (A) (A) (A) (A) (A) (A) (A) (A)
                 (A) (A) (A) (A) (A) (A) (A) (A) (A) (A) (A) (A)
                 (A) (A) (A) (A) (A) (A) (A) (A) (A) (A) (A) (A)
                 (A) (A) (A) (A) (A) (A) (A) (A) (A) (A) (A) (A)
                 (A) (A) (A) (A) (A) (A) (A) (A) (A) (A) (A) (A)
                 (A) (A) (A) (A) (A) (A) (A) (A) (A) (A) (A) (A)
                 (A) (A) (A) (A) (A) (A) (A) (A) (A) (A) (A) (A)
                 (A) (A) (A) (A) (A) (A) (A) (A) (A) (A) (A) (A)
                 (A) (A) (A) (A) (A) (A)
 The electronic state is 1-A.
 Alpha  occ. eigenvalues --  -25.29097 -25.29048 -25.28523 -19.65896 -14.84955
 Alpha  occ. eigenvalues --  -14.82958 -14.80059 -10.81654 -10.64190 -10.63718
 Alpha  occ. eigenvalues --  -10.63646 -10.63380 -10.63278 -10.63270 -10.62111
 Alpha  occ. eigenvalues --  -10.60776 -10.60313 -10.60278 -10.59063 -10.57570
 Alpha  occ. eigenvalues --  -10.57388 -10.57237 -10.57162 -10.57095 -10.57027
 Alpha  occ. eigenvalues --  -10.56915  -7.11844  -7.11619  -5.11522  -5.11306
 Alpha  occ. eigenvalues --   -5.10036  -5.10022  -5.09808  -5.09793  -2.08348
 Alpha  occ. eigenvalues --   -2.08134  -2.07801  -2.07799  -2.07583  -2.07579
 Alpha  occ. eigenvalues --   -2.06567  -2.06565  -2.06336  -2.06335  -1.45695
 Alpha  occ. eigenvalues --   -1.35909  -1.35425  -1.21104  -1.17767  -1.06414
 Alpha  occ. eigenvalues --   -1.01231  -0.98259  -0.96364  -0.91750  -0.90342
 Alpha  occ. eigenvalues --   -0.89870  -0.86351  -0.84870  -0.82787  -0.80849
 Alpha  occ. eigenvalues --   -0.80091  -0.79686  -0.78540  -0.74735  -0.72825
 Alpha  occ. eigenvalues --   -0.71139  -0.71087  -0.69849  -0.69827  -0.68766
 Alpha  occ. eigenvalues --   -0.66947  -0.65288  -0.64620  -0.63725  -0.61678
 Alpha  occ. eigenvalues --   -0.59963  -0.59259  -0.57832  -0.57519  -0.57249
 Alpha  occ. eigenvalues --   -0.56834  -0.54565  -0.54117  -0.53714  -0.53334
 Alpha  occ. eigenvalues --   -0.53016  -0.52418  -0.51704  -0.51515  -0.50739
 Alpha  occ. eigenvalues --   -0.50550  -0.49799  -0.49704  -0.48910  -0.48679
 Alpha  occ. eigenvalues --   -0.46776  -0.46276  -0.44123  -0.43109  -0.43021
 Alpha  occ. eigenvalues --   -0.41727  -0.41424  -0.40945  -0.39697  -0.39099
 Alpha  occ. eigenvalues --   -0.36780  -0.36720  -0.35332  -0.33794  -0.33378
 Alpha  occ. eigenvalues --   -0.32276  -0.31688  -0.31630  -0.31032  -0.30182
 Alpha  occ. eigenvalues --   -0.29860
 Alpha virt. eigenvalues --   -0.02931  -0.02822  -0.02158  -0.00333   0.00158
 Alpha virt. eigenvalues --    0.01386   0.03673   0.04256   0.04330   0.04510
 Alpha virt. eigenvalues --    0.04743   0.05317   0.06100   0.06308   0.06730
 Alpha virt. eigenvalues --    0.09264   0.09971   0.10423   0.11079   0.12074
 Alpha virt. eigenvalues --    0.12372   0.13171   0.13549   0.13722   0.14135
 Alpha virt. eigenvalues --    0.14693   0.15155   0.15367   0.15865   0.16867
 Alpha virt. eigenvalues --    0.17046   0.17570   0.17981   0.18301   0.18402
 Alpha virt. eigenvalues --    0.18533   0.19399   0.19844   0.20090   0.20524
 Alpha virt. eigenvalues --    0.21143   0.22162   0.22229   0.23144   0.24550
 Alpha virt. eigenvalues --    0.25127   0.25836   0.26557   0.27180   0.28603
 Alpha virt. eigenvalues --    0.29287   0.29648   0.31655   0.31711   0.32315
 Alpha virt. eigenvalues --    0.33063   0.33632   0.33705   0.34562   0.35014
 Alpha virt. eigenvalues --    0.35835   0.36737   0.37450   0.38426   0.39430
 Alpha virt. eigenvalues --    0.39894   0.40070   0.42198   0.43277   0.43451
 Alpha virt. eigenvalues --    0.44465   0.45641   0.45745   0.46714   0.47483
 Alpha virt. eigenvalues --    0.47741   0.48606   0.49209   0.50092   0.50225
 Alpha virt. eigenvalues --    0.50805   0.51244   0.51468   0.51976   0.52393
 Alpha virt. eigenvalues --    0.52636   0.53225   0.53317   0.53495   0.55004
 Alpha virt. eigenvalues --    0.55513   0.55594   0.55708   0.56384   0.57243
 Alpha virt. eigenvalues --    0.57906   0.58498   0.58566   0.59194   0.59455
 Alpha virt. eigenvalues --    0.60938   0.61236   0.61676   0.62281   0.62886
 Alpha virt. eigenvalues --    0.63136   0.63452   0.64006   0.65039   0.65619
 Alpha virt. eigenvalues --    0.66089   0.66495   0.67114   0.67364   0.67484
 Alpha virt. eigenvalues --    0.67929   0.68361   0.68765   0.69389   0.69763
 Alpha virt. eigenvalues --    0.69864   0.69974   0.70464   0.70542   0.70594
 Alpha virt. eigenvalues --    0.70962   0.71609   0.72048   0.72158   0.72473
 Alpha virt. eigenvalues --    0.73312   0.73814   0.74224   0.74956   0.75462
 Alpha virt. eigenvalues --    0.76502   0.76624   0.76837   0.77537   0.78082
 Alpha virt. eigenvalues --    0.78439   0.79316   0.79771   0.81082   0.81737
 Alpha virt. eigenvalues --    0.82469   0.83024   0.83770   0.84930   0.85754
 Alpha virt. eigenvalues --    0.86240   0.88108   0.88663   0.89692   0.90176
 Alpha virt. eigenvalues --    0.91265   0.92895   0.93058   0.95212   0.97059
 Alpha virt. eigenvalues --    0.97976   0.98331   1.00186   1.01327   1.01393
 Alpha virt. eigenvalues --    1.04529   1.06971   1.08301   1.09478   1.11804
 Alpha virt. eigenvalues --    1.13125   1.14681   1.15898   1.16548   1.16839
 Alpha virt. eigenvalues --    1.17347   1.17699   1.19145   1.19969   1.20088
 Alpha virt. eigenvalues --    1.22486   1.24146   1.24578   1.25093   1.25707
 Alpha virt. eigenvalues --    1.26273   1.28815   1.29471   1.29889   1.31614
 Alpha virt. eigenvalues --    1.31989   1.32996   1.33989   1.35395   1.37262
 Alpha virt. eigenvalues --    1.38366   1.40338   1.40531   1.41185   1.43056
 Alpha virt. eigenvalues --    1.44432   1.45439   1.46732   1.49206   1.49618
 Alpha virt. eigenvalues --    1.50106   1.51703   1.52066   1.52953   1.53316
 Alpha virt. eigenvalues --    1.55547   1.56513   1.56706   1.58389   1.61514
 Alpha virt. eigenvalues --    1.62324   1.63545   1.64846   1.66237   1.66801
 Alpha virt. eigenvalues --    1.68464   1.69433   1.70610   1.71637   1.73072
 Alpha virt. eigenvalues --    1.73152   1.73589   1.74501   1.75376   1.75783
 Alpha virt. eigenvalues --    1.77005   1.77656   1.77886   1.78528   1.79117
 Alpha virt. eigenvalues --    1.79941   1.80169   1.80831   1.82812   1.83885
 Alpha virt. eigenvalues --    1.84325   1.84425   1.85374   1.85681   1.85779
 Alpha virt. eigenvalues --    1.87991   1.88601   1.88858   1.89115   1.89852
 Alpha virt. eigenvalues --    1.91293   1.92310   1.93266   1.94652   1.95608
 Alpha virt. eigenvalues --    1.96152   1.97541   1.97821   1.98351   1.99837
 Alpha virt. eigenvalues --    2.00164   2.00706   2.01099   2.02538   2.03097
 Alpha virt. eigenvalues --    2.04481   2.06019   2.06932   2.08619   2.09054
 Alpha virt. eigenvalues --    2.09426   2.10183   2.11760   2.12437   2.13201
 Alpha virt. eigenvalues --    2.13463   2.14744   2.16463   2.17453   2.18633
 Alpha virt. eigenvalues --    2.18836   2.19847   2.20976   2.22710   2.23709
 Alpha virt. eigenvalues --    2.23971   2.27671   2.27822   2.28120   2.28609
 Alpha virt. eigenvalues --    2.29505   2.30670   2.31919   2.32684   2.33335
 Alpha virt. eigenvalues --    2.34041   2.36473   2.38728   2.39792   2.40708
 Alpha virt. eigenvalues --    2.42220   2.42883   2.46480   2.47330   2.48777
 Alpha virt. eigenvalues --    2.49975   2.52737   2.53532   2.54207   2.57095
 Alpha virt. eigenvalues --    2.57757   2.58946   2.61982   2.62667   2.63398
 Alpha virt. eigenvalues --    2.63716   2.65060   2.65641   2.67588   2.70498
 Alpha virt. eigenvalues --    2.73195   2.74456   2.75390   2.78348   2.81126
 Alpha virt. eigenvalues --    2.81420   2.83864   2.84199   2.85472   2.86962
 Alpha virt. eigenvalues --    2.87362   2.88189   2.88998   2.92590   2.94164
 Alpha virt. eigenvalues --    2.94967   2.97079   2.97743   3.00575   3.03588
 Alpha virt. eigenvalues --    3.05389   3.07742   3.08409   3.08534   3.11078
 Alpha virt. eigenvalues --    3.11334   3.11966   3.12084   3.12672   3.13252
 Alpha virt. eigenvalues --    3.14081   3.14489   3.16692   3.19292   3.23679
 Alpha virt. eigenvalues --    3.25688   3.29784   3.30617   3.36442   3.39277
 Alpha virt. eigenvalues --    3.42371   3.50582   3.52025   3.53275   3.59707
 Alpha virt. eigenvalues --    3.61237   3.66732   3.74739   3.90991   3.93866
 Alpha virt. eigenvalues --   18.80255  18.81883  19.00494  19.08289  19.34106
 Alpha virt. eigenvalues --   19.61333  56.17920  56.20479
          Condensed to atoms (all electrons):
               1          2          3          4          5          6
     1  C    5.489893  -0.080382  -0.031600   0.005637  -0.014450   0.266713
     2  C   -0.080382   5.112557  -0.051015   0.006752   0.522018  -0.088964
     3  C   -0.031600  -0.051015   5.243530   0.319464   0.001405   0.007152
     4  H    0.005637   0.006752   0.319464   0.605017   0.000030  -0.000331
     5  N   -0.014450   0.522018   0.001405   0.000030   6.578227   0.157779
     6  N    0.266713  -0.088964   0.007152  -0.000331   0.157779   6.777892
     7  N    0.289275   0.325207   0.296796  -0.015457  -0.114628  -0.056376
     8  C   -0.002516   0.341476   0.001336   0.000351  -0.052205   0.012994
     9  H    0.000083   0.000006  -0.000007   0.000062  -0.000287  -0.000463
    10  H   -0.000352  -0.025616  -0.007795   0.000065   0.002187  -0.000181
    11  C    0.007310  -0.015946   0.276845   0.000628   0.001127  -0.000999
    12  O   -0.000823  -0.048494  -0.054432   0.002193   0.001422  -0.000087
    13  C   -0.000222  -0.000547  -0.079865   0.001692  -0.000009   0.000025
    14  C   -0.018191  -0.009970   0.222295   0.003513  -0.000668   0.000756
    15  C    0.006756   0.003851  -0.083593  -0.003744   0.000084  -0.000354
    16  C    0.000384  -0.000095   0.012616  -0.000128  -0.000002  -0.000004
    17  C   -0.000001   0.000032   0.000921   0.000071   0.000001   0.000000
    18  C    0.000008  -0.000074   0.019170  -0.000612  -0.000001  -0.000000
    19  C   -0.000859   0.001897  -0.158596   0.003910   0.000004   0.000024
    20  H    0.008737   0.000701  -0.017129   0.001733   0.000192  -0.000530
    21  H    0.000000  -0.000000   0.000016   0.000000   0.000000  -0.000000
    22  H    0.000000  -0.000001  -0.000670   0.000008  -0.000000  -0.000000
    23  H    0.000022   0.000772   0.010330  -0.000524  -0.000002  -0.000000
    24  H    0.000011  -0.000136   0.004664   0.000774  -0.000000  -0.000000
    25  C   -0.032681   0.009432  -0.000276   0.000027  -0.052895   0.323393
    26  C   -0.017201   0.003200   0.000025  -0.000001  -0.011371  -0.053031
    27  C   -0.013924   0.002434   0.000013  -0.000014  -0.010282  -0.052956
    28  C   -0.000637   0.000046   0.000000  -0.000000  -0.000434   0.003801
    29  C   -0.000546   0.000049   0.000000  -0.000000  -0.000441   0.003743
    30  C    0.000118  -0.000000   0.000000   0.000000   0.000067   0.001244
    31  H    0.000000  -0.000001  -0.000000   0.000000   0.000005  -0.000148
    32  H    0.000003  -0.000001  -0.000000   0.000000   0.000004  -0.000146
    33  H   -0.000010  -0.000252  -0.001148  -0.009821  -0.000003   0.000001
    34  H   -0.000002  -0.000002  -0.000358   0.000005  -0.000000   0.000000
    35  I    0.039322  -0.000649  -0.001882   0.000352   0.027324  -0.019944
    36  I    0.037579   0.000236  -0.002153   0.000563   0.025725  -0.017869
    37  C   -0.000000   0.000000   0.000000   0.000000   0.000000   0.000004
    38  F   -0.000000   0.000000  -0.000000  -0.000000   0.000000   0.000000
    39  F   -0.000000   0.000000  -0.000000  -0.000000   0.000000   0.000000
    40  F    0.000000   0.000000  -0.000000   0.000000  -0.000000   0.000000
               7          8          9         10         11         12
     1  C    0.289275  -0.002516   0.000083  -0.000352   0.007310  -0.000823
     2  C    0.325207   0.341476   0.000006  -0.025616  -0.015946  -0.048494
     3  C    0.296796   0.001336  -0.000007  -0.007795   0.276845  -0.054432
     4  H   -0.015457   0.000351   0.000062   0.000065   0.000628   0.002193
     5  N   -0.114628  -0.052205  -0.000287   0.002187   0.001127   0.001422
     6  N   -0.056376   0.012994  -0.000463  -0.000181  -0.000999  -0.000087
     7  N    6.730501  -0.069498   0.005424  -0.005459  -0.039325  -0.010586
     8  C   -0.069498   4.460577   0.367336   0.378642  -0.063439   0.316917
     9  H    0.005424   0.367336   0.598699  -0.023384   0.004793  -0.019582
    10  H   -0.005459   0.378642  -0.023384   0.639162   0.003759  -0.035977
    11  C   -0.039325  -0.063439   0.004793   0.003759   4.777240   0.324845
    12  O   -0.010586   0.316917  -0.019582  -0.035977   0.324845   8.010783
    13  C   -0.000023   0.003197   0.000162  -0.002278  -0.046621   0.006593
    14  C   -0.075087   0.000005   0.000161   0.001700  -0.072950   0.000519
    15  C   -0.000088  -0.001114  -0.000012   0.000272   0.011799  -0.000284
    16  C    0.000335  -0.000014  -0.000001   0.000052  -0.000893   0.000000
    17  C   -0.000037  -0.000014  -0.000001  -0.000071  -0.001056   0.000003
    18  C   -0.000259  -0.000746   0.000002   0.000668   0.007007  -0.000285
    19  C    0.005574  -0.011977  -0.000603   0.011037   0.373064  -0.069151
    20  H   -0.000568  -0.000143   0.000001   0.000003   0.000648  -0.000001
    21  H    0.000000   0.000000  -0.000000   0.000000   0.000014  -0.000000
    22  H    0.000006  -0.000015   0.000000   0.000016   0.000605  -0.000002
    23  H    0.000013   0.000295  -0.000431  -0.000852  -0.012589   0.002485
    24  H   -0.000168   0.000405   0.000030  -0.000265  -0.003456   0.003357
    25  C    0.004138  -0.000088   0.000014   0.000017   0.000018   0.000003
    26  C    0.000665   0.000083   0.000001  -0.000010  -0.000000   0.000000
    27  C    0.000444   0.000036  -0.000017   0.000003  -0.000002  -0.000001
    28  C    0.000001   0.000000  -0.000000   0.000000  -0.000000   0.000000
    29  C    0.000002   0.000001  -0.000000   0.000000  -0.000000   0.000000
    30  C    0.000001  -0.000000   0.000000  -0.000000   0.000000  -0.000000
    31  H   -0.000000  -0.000000   0.000000   0.000000  -0.000000   0.000000
    32  H   -0.000000  -0.000000  -0.000000   0.000000   0.000000   0.000000
    33  H    0.000179   0.007106  -0.000222  -0.000547   0.351994  -0.026032
    34  H    0.000005   0.000001   0.000000  -0.000002   0.000011  -0.000000
    35  I   -0.003171  -0.002909   0.000541  -0.000131   0.000218   0.000105
    36  I   -0.002682  -0.003272  -0.000009   0.000653   0.000437   0.001941
    37  C    0.000000   0.000000   0.000000  -0.000000  -0.000000  -0.000000
    38  F    0.000000   0.000000   0.000000  -0.000000  -0.000000   0.000000
    39  F    0.000000   0.000000  -0.000000   0.000000   0.000000   0.000000
    40  F   -0.000000  -0.000000   0.000000   0.000000   0.000000   0.000000
              13         14         15         16         17         18
     1  C   -0.000222  -0.018191   0.006756   0.000384  -0.000001   0.000008
     2  C   -0.000547  -0.009970   0.003851  -0.000095   0.000032  -0.000074
     3  C   -0.079865   0.222295  -0.083593   0.012616   0.000921   0.019170
     4  H    0.001692   0.003513  -0.003744  -0.000128   0.000071  -0.000612
     5  N   -0.000009  -0.000668   0.000084  -0.000002   0.000001  -0.000001
     6  N    0.000025   0.000756  -0.000354  -0.000004   0.000000  -0.000000
     7  N   -0.000023  -0.075087  -0.000088   0.000335  -0.000037  -0.000259
     8  C    0.003197   0.000005  -0.001114  -0.000014  -0.000014  -0.000746
     9  H    0.000162   0.000161  -0.000012  -0.000001  -0.000001   0.000002
    10  H   -0.002278   0.001700   0.000272   0.000052  -0.000071   0.000668
    11  C   -0.046621  -0.072950   0.011799  -0.000893  -0.001056   0.007007
    12  O    0.006593   0.000519  -0.000284   0.000000   0.000003  -0.000285
    13  C    5.325000   0.353529   0.033368  -0.153225   0.095145   0.306353
    14  C    0.353529   5.454048   0.300732   0.096713  -0.154680   0.045938
    15  C    0.033368   0.300732   5.074818   0.292854   0.080832  -0.115984
    16  C   -0.153225   0.096713   0.292854   5.084263   0.274362   0.082600
[...]
 .00000920,-0.00005865,0.00003304,-0.00000468,0.00000335,0.00000229,-0.
 00000222,0.00000207,-0.00000129,-0.00000210,0.00000967,-0.00000151,-0.
 00000415,0.00000990,0.00000614,-0.00598760,-0.02965269,0.00139690,0.00
 275656,0.00119465,0.00010997,-0.02145778,-0.11950040,0.00409684,0.0005
 6170,-0.00199918,0.00014939,-0.00847906,-0.02303144,0.00079698,-0.0021
 7042,0.00402198,-0.00011282,0.00002464,0.00007254,-0.00000582,0.000751
 61,0.00020572,-0.00006341,0.00001382,0.00001267,-0.00000267,-0.0000187
 5,0.00002016,0.00001260,-0.00002251,-0.00072330,0.00003318,0.03311545,
 0.17437914,0.00027134,-0.00027772,0.00028038,-0.00008569,0.00005149,-0
 .00017326,0.00000483,0.00000240,0.00000930,0.00001127,-0.00000411,0.00
 000025,-0.00063958,0.00065921,-0.00004094,0.00014042,0.00005802,-0.001
 75134,0.00010242,-0.00011005,-0.00026185,0.00001723,0.00003129,-0.0000
 1281,-0.00000497,0.00000675,0.00000045,0.00000038,-0.00000662,0.000009
 04,-0.00001475,-0.00000400,0.00003743,0.00002933,-0.00005015,-0.000022
 83,0.00000252,0.00000043,-0.00000116,-0.00000493,0.00001114,-0.0000053
 7,0.00000395,-0.00000093,0.00000243,-0.00000197,-0.00000157,0.00000066
 ,0.00000149,-0.00000059,0.00000064,-0.00000059,-0.00000166,0.00000041,
 0.00000234,0.00000208,-0.00000703,0.00000115,0.00000211,-0.00000239,0.
 00000013,-0.00000031,-0.00000024,-0.00000016,-0.00000014,0.00000044,-0
 .00000165,0.00000058,-0.00000076,0.00000280,-0.00000223,-0.00000050,0.
 00058316,0.00231287,0.00352297,-0.00041667,0.00016163,0.00278818,0.001
 02136,0.00409452,-0.01646002,0.00002429,0.00000548,-0.00060300,-0.0000
 7136,0.00007845,0.00349326,-0.00029897,0.00000702,0.00330287,0.0000221
 1,-0.00002390,-0.00031926,0.00014894,-0.00024413,-0.00193745,0.0000045
 8,0.00000407,0.00000081,0.00000090,-0.00000119,-0.00000062,-0.00001182
 ,0.00007759,0.00005382,-0.00089084,-0.00683958,0.00804182,-0.00030352,
 0.00008670,0.00085221,0.00012651,-0.00000961,0.00049820,-0.00087220,-0
 .00006619,0.00058391,0.00002650,-0.00004551,-0.00004989,0.00123607,0.0
 0019234,-0.00155424,-0.00013723,0.00005395,-0.00025126,0.00190222,0.00
 052332,0.00030644,-0.00064706,-0.00045077,-0.00029207,0.00001661,0.000
 04256,-0.00000212,0.00020541,0.00007542,0.00004919,-0.00040666,-0.0001
 3908,0.00015181,0.00082201,0.00042606,-0.00012134,0.00007152,-0.000151
 24,-0.00000684,0.00016200,0.00015435,-0.00017512,-0.00004136,-0.000051
 07,-0.00011602,0.00012770,0.00008779,-0.00000262,-0.00001044,-0.000034
 59,-0.00002470,-0.00000721,0.00002031,0.00000726,0.00006288,0.00003382
 ,0.00003180,-0.00007780,0.00006673,0.00016995,0.00002968,-0.00003316,0
 .00002209,0.00004059,0.00000580,0.00002992,-0.00000521,-0.00001688,0.0
 0003542,0.00004504,0.00000838,-0.00004718,0.00015505,0.00126029,0.0000
 5708,-0.00219454,0.00453266,-0.00097926,0.00248661,-0.00220501,-0.0003
 3763,-0.02079850,0.00056407,-0.00067029,-0.00230932,-0.01231784,-0.000
 14294,-0.21703313,-0.03390804,0.00062344,0.00057408,-0.00092642,0.0003
 1916,0.00102466,0.00308734,0.00034222,0.00003079,0.00003734,-0.0000306
 2,-0.00005969,0.00000105,0.00003548,0.00111680,-0.00078807,0.00010520,
 0.00089651,0.00176103,-0.00000026,0.65269882,-0.00006289,-0.00008864,0
 .00026060,0.00000233,0.00007032,0.00014840,-0.00029329,0.00000807,0.00
 017460,0.00001349,-0.00000931,-0.00001128,0.00037759,-0.00001678,-0.00
 046385,0.00012092,-0.00050241,-0.00008827,0.00055996,0.00016721,0.0000
 5633,-0.00019088,-0.00008213,-0.00008520,-0.00000237,0.00002029,-0.000
 00746,0.00007540,0.00001824,0.00001614,-0.00014434,0.00000599,0.000070
 62,0.00026619,0.00005897,-0.00005657,0.00003773,-0.00003428,-0.0000032
 7,0.00001596,0.00006014,-0.00006307,0.00001212,-0.00002639,-0.00001396
 ,0.00003746,0.00003569,0.00000820,0.00000054,-0.00002611,-0.00000455,-
 0.00000799,-0.00000881,-0.00000034,0.00001263,0.00000504,0.00001389,-0
 .00001388,0.00004854,0.00003972,0.00001456,-0.00000908,0.00000537,0.00
 000987,0.00000159,0.00000665,-0.00000037,-0.00000951,0.00000658,0.0000
 1138,-0.00000517,-0.00001276,0.00128540,-0.00416994,0.00035521,0.00572
 584,-0.00105934,0.00069833,-0.00348864,-0.00597572,0.00052137,0.017508
 24,0.01661277,-0.00214140,-0.02923250,-0.00148423,0.00074531,-0.034097
 57,-0.10661506,0.00196699,0.00373426,-0.00235392,0.00069413,-0.0015747
 9,-0.00280644,-0.00039418,0.00000384,0.00000092,-0.00000544,-0.0000059
 0,-0.00001144,0.00000589,0.00146552,-0.00072046,0.00022452,-0.00045348
 ,-0.00052192,-0.00005878,0.00952314,0.61795732,0.00003371,0.00002990,0
 .00003332,-0.00013536,-0.00002481,0.00006826,-0.00000456,-0.00001073,0
 .00002593,0.00001042,0.00000626,-0.00000200,0.00002047,-0.00000467,-0.
 00016607,-0.00001863,-0.00000406,-0.00061156,0.00003334,-0.00002005,-0
 .00024819,-0.00002340,-0.00002988,0.00009043,-0.00001250,-0.00002130,-
 0.00000717,-0.00001351,0.00000510,0.00000661,-0.00002255,0.00002930,0.
 00009825,0.00004096,0.00000988,-0.00014868,0.00000395,0.00000914,-0.00
 000407,-0.00000418,0.00000139,-0.00001731,0.00003014,0.00000371,-0.000
 00625,-0.00000413,0.00000709,-0.00001600,0.00000502,-0.00000285,-0.000
 00747,-0.00000177,-0.00000495,-0.00000950,0.00000027,-0.00000424,-0.00
 000053,-0.00000650,-0.00000057,0.00002977,-0.00000494,0.00000155,0.000
 00775,-0.00000696,-0.00000251,0.00000436,-0.00000747,-0.00000355,-0.00
 000438,0.00000584,-0.00000291,-0.00000002,-0.00009873,0.00030111,-0.00
 015329,-0.00129746,0.00008388,0.00629013,-0.00073491,0.00091237,0.0063
 9341,-0.00390474,-0.00007367,0.00166712,0.00063911,-0.00196361,0.00191
 642,-0.00278716,0.00097874,-0.07423227,0.00075947,-0.00035281,-0.00223
 189,0.00082203,0.00085631,-0.00242459,0.00000764,0.00000408,-0.0000068
 6,0.00000425,-0.00000774,0.00001528,-0.00010911,0.00006008,0.00006480,
 0.00004206,0.00005701,0.00005946,0.00437478,-0.00233336,0.57908336,0.0
 0013203,-0.00003263,-0.00025576,-0.00002818,0.00003110,-0.00013198,0.0
 0025475,0.00003120,-0.00017563,-0.00000706,0.00001317,0.00001576,-0.00
 032297,-0.00008060,0.00045937,-0.00004714,-0.00015767,0.00007748,-0.00
 056327,-0.00016532,-0.00009020,0.00019751,0.00015560,0.00007379,-0.000
 00485,-0.00000889,0.00000011,-0.00005482,-0.00002349,-0.00001361,0.000
 12058,0.00005029,-0.00005081,-0.00024644,-0.00014724,0.00004801,-0.000
 01839,0.00004835,0.00000059,-0.00006082,-0.00003653,0.00005306,0.00001
 910,0.00000907,0.00005051,-0.00004286,-0.00002839,0.00000725,0.0000074
 9,0.00000557,0.00001157,-0.00000035,-0.00001214,-0.00000268,-0.0000214
 1,-0.00001018,-0.00000864,0.00002647,-0.00000698,-0.00006878,-0.000007
 84,0.00001042,-0.00000873,-0.00001260,-0.00000224,-0.00001056,0.000003
 00,0.00000368,-0.00001162,-0.00001470,-0.00000532,0.00001485,-0.000202
 81,0.00039099,-0.00017302,-0.00067261,0.00044785,0.00120099,0.00054175
 ,0.00144779,0.00045195,-0.00557988,-0.00588623,-0.00096082,-0.00137403
 ,0.00134396,-0.00026484,-0.03305506,0.03414470,-0.02670406,0.00050000,
 -0.00005289,-0.00043008,-0.00217205,-0.00099480,-0.00081842,-0.0000112
 4,-0.00001477,0.00001098,0.00002520,-0.00000515,-0.00001725,-0.0007202
 8,0.00028859,0.00001316,-0.00017224,-0.00046625,-0.00001178,-0.1859863
 5,0.08444638,-0.07279732,0.19866539,0.00001070,0.00007613,0.00001944,0
 .00001158,-0.00003404,0.00004441,-0.00001362,-0.00001724,0.00002329,-0
 .00000026,-0.00000290,-0.00000412,0.00008234,0.00005356,-0.00007390,-0
 .00018721,0.00026725,0.00002855,0.00007314,0.00000722,-0.00000856,-0.0
 0002358,-0.00004523,-0.00000068,0.00000274,-0.00000456,0.00000308,-0.0
 0000075,0.00000533,0.00000201,-0.00000372,-0.00002386,0.00000374,0.000
 01962,0.00004843,-0.00001281,-0.00000415,-0.00000866,0.00000042,0.0000
 1966,-0.00000315,-0.00000421,-0.00000889,0.00000477,-0.00001608,0.0000
 0566,0.00000177,-0.00000651,-0.00000321,0.00000515,-0.00000394,0.00000
 272,0.00000750,0.00000097,0.00000508,0.00000326,-0.00000096,-0.0000061
 2,-0.00001145,0.00001772,-0.00000142,-0.00000109,0.00000232,0.00000149
 ,0.00000015,0.00000233,-0.00000150,0.00000125,0.00000223,0.00000292,0.
 00000337,-0.00000187,-0.00025239,0.00036102,0.00000710,-0.00047957,0.0
 0000670,-0.00020258,0.00032702,0.00110753,-0.00045889,0.00094474,0.000
 67514,0.00010020,-0.00164171,-0.00380765,-0.00122234,0.00550448,0.0016
 9763,0.00577902,-0.00081953,0.00036675,-0.00003849,-0.00074945,0.00196
 920,0.00028133,0.00000526,0.00000639,-0.00000363,-0.00000798,0.0000050
 6,0.00000646,0.00000050,0.00008045,-0.00001559,0.00012095,0.00023093,-
 0.00001001,0.08978431,-0.16447116,0.06804927,-0.13371352,0.24454601,0.
 00005568,-0.00002735,-0.00006164,0.00001440,0.00001981,-0.00004413,0.0
 0005331,0.00001509,-0.00004389,-0.00000324,0.00000149,0.00000416,-0.00
 008730,-0.00001962,0.00013496,-0.00000499,-0.00013180,-0.00000826,-0.0
 0012441,-0.00002679,0.00002338,0.00004938,0.00004678,-0.00000284,0.000
 00082,0.00000331,0.00000086,-0.00000662,-0.00000627,-0.00000381,0.0000
 2956,0.00000963,-0.00003198,-0.00006228,-0.00004351,0.00004251,-0.0000
 0308,0.00001001,0.00000042,-0.00001795,-0.00000457,0.00001500,0.000001
 09,-0.00000125,0.00001759,-0.00000974,-0.00000747,0.00000742,0.0000022
 1,-0.00000051,0.00000538,-0.00000082,-0.00000420,0.00000092,-0.0000057
 1,-0.00000154,-0.00000111,0.00000811,0.00000397,-0.00002642,-0.0000001
 1,0.00000213,-0.00000408,-0.00000159,-0.00000016,-0.00000370,0.0000026
 5,0.00000079,-0.00000205,-0.00000491,-0.00000180,0.00000339,0.00018435
 ,-0.00053666,-0.00005485,0.00038846,0.00082667,-0.00022278,-0.00047868
 ,0.00014751,0.00019970,-0.00277794,-0.00174022,0.00040911,0.00076175,0
 .00165816,0.00010941,-0.00991119,0.01022066,0.00287988,0.00013145,-0.0
 0009106,-0.00005829,-0.00045971,-0.00065369,-0.00074839,-0.00000485,-0
 .00000567,0.00000435,0.00000747,-0.00000159,-0.00000913,-0.00022170,0.
 00005603,-0.00004101,-0.00008856,-0.00018809,0.00001480,-0.07431683,0.
 06534846,-0.13296061,0.10343467,-0.12141698,0.17774693,0.00012272,-0.0
 0000890,-0.00020767,-0.00001783,-0.00000025,-0.00009081,0.00021559,0.0
 0001651,-0.00013911,-0.00000650,0.00000971,0.00001092,-0.00024272,-0.0
 0001914,0.00035326,-0.00011585,-0.00004288,0.00008119,-0.00045094,-0.0
 0011706,-0.00008316,0.00015786,0.00009961,0.00006545,-0.00000237,-0.00
 001114,0.00000233,-0.00004929,-0.00001675,-0.00001087,0.00010461,0.000
 02583,-0.00004335,-0.00020424,-0.00009262,0.00003405,-0.00001935,0.000
 03576,0.00000179,-0.00003749,-0.00003727,0.00004354,0.00000865,0.00001
 335,0.00002818,-0.00003165,-0.00002265,0.00000036,0.00000245,0.0000093
 4,0.00000620,0.00000225,-0.00000357,-0.00000118,-0.00001466,-0.0000065
 5,-0.00000817,0.00001964,-0.00001750,-0.00004254,-0.00000772,0.0000082
 4,-0.00000569,-0.00000974,-0.00000157,-0.00000745,0.00000154,0.0000045
 1,-0.00000842,-0.00001087,-0.00000163,0.00001163,0.00003966,-0.0007094
 1,-0.00004494,0.00152628,-0.00110065,0.00037760,-0.00064785,-0.0005343
 7,0.00110043,-0.00213220,-0.00050405,-0.00093426,-0.00568246,0.0017268
 7,-0.00133216,-0.00525470,-0.04015899,-0.01637968,-0.00158748,-0.00124
 057,-0.00036471,0.00006934,-0.00019663,-0.00040372,-0.00000591,-0.0000
 0791,0.00000697,0.00001437,0.00000054,-0.00000885,-0.00021543,0.000186
 58,-0.00004854,-0.00035311,-0.00052682,0.00006707,-0.09999331,-0.04510
 731,-0.02134818,0.01071839,0.03519879,0.00614187,0.08943632,0.00004119
 ,0.00005423,-0.00018169,0.00000787,-0.00004749,-0.00011612,0.00020887,
 -0.00000511,-0.00012649,-0.00001063,0.00000649,0.00000808,-0.00029090,
 0.00000872,0.00033329,-0.00006406,0.00034816,-0.00004206,-0.00039569,-
 0.00010985,-0.00001799,0.00013844,0.00006026,0.00005191,0.00000252,-0.
 00001123,0.00000620,-0.00005192,-0.00001362,-0.00001266,0.00010500,-0.
 00000559,-0.00006082,-0.00019483,-0.00004498,0.00005534,-0.00002536,0.
 00002344,0.00000410,-0.00001082,-0.00004562,0.00004515,-0.00001310,0.0
 0001939,0.00000647,-0.00002269,-0.00002289,-0.00000465,-0.00000401,0.0
 0001804,0.00000234,0.00000626,0.00000789,0.00000210,-0.00000878,-0.000
 00339,-0.00000951,0.00001150,-0.00003569,-0.00002480,-0.00000855,0.000
 00621,-0.00000435,-0.00000605,-0.00000033,-0.00000536,0.00000106,0.000
 00736,-0.00000437,-0.00000902,0.00000404,0.00000923,0.00004560,0.00017
 141,-0.00014064,-0.00019673,0.00014437,0.00069187,0.00014943,-0.000067
 01,0.00089184,0.00256271,-0.00284930,0.00148527,-0.00517406,0.00110624
 ,-0.00090519,-0.01006898,-0.02848027,-0.01641356,-0.00156404,0.0014318
 1,-0.00115538,0.00066744,0.00075058,-0.00034940,-0.00000313,-0.0000013
 9,0.00000475,0.00000191,0.00000986,-0.00000383,-0.00041264,0.00028165,
 -0.00005739,-0.00028290,-0.00025836,0.00003625,-0.05030696,-0.26307177
 ,-0.08593590,0.02033542,-0.07765321,-0.00044227,0.03649138,0.37628198,
 0.00004578,0.00002367,-0.00006034,0.00002596,-0.00000706,-0.00003610,0
 .00006178,0.00000286,-0.00004009,-0.00000488,-0.00000028,0.00000219,-0
 .00007351,-0.00000546,0.00012226,-0.00007891,0.00006952,-0.00001236,-0
 .00010908,-0.00002987,0.00003066,0.00004285,0.00002473,-0.00000279,0.0
 0000327,0.00000041,0.00000372,-0.00001198,-0.00000487,-0.00000472,0.00
 003566,-0.00000848,-0.00003756,-0.00006438,-0.00001376,0.00004441,-0.0
 0000795,0.00000527,0.00000169,-0.00000359,-0.00001164,0.00001662,-0.00
 000970,0.00000424,0.00000623,-0.00000635,-0.00000899,0.00000291,-0.000
 00164,0.00000526,0.00000278,0.00000186,0.00000279,0.00000240,-0.000002
 59,0.00000038,-0.00000262,0.00000526,-0.00000836,-0.00001730,-0.000001
 45,0.00000164,-0.00000315,-0.00000051,0.00000028,-0.00000260,0.0000018
 5,0.00000267,-0.00000051,-0.00000377,0.00000131,0.00000272,-0.00011603
 ,0.00049926,-0.00013609,-0.00026372,-0.00044418,0.00016870,0.00072107,
 -0.00056663,-0.00013987,0.00110586,-0.00065072,0.00017287,-0.00301748,
 0.00002650,0.00018614,-0.00250176,-0.01218478,0.00522845,-0.00055474,-
 0.00002426,-0.00071727,-0.00000198,0.00004702,-0.00004722,-0.00000180,
 -0.00000126,0.00000253,0.00000042,0.00000384,-0.00000518,-0.00014241,0
 .00009399,-0.00001074,-0.00014554,-0.00016257,-0.00001777,-0.02330016,
 -0.08405049,-0.11880406,0.00305545,0.01278243,0.01830316,0.01845622,0.
 14111939,0.15331503,0.00007811,-0.00002533,-0.00029209,-0.00005645,-0.
 00000189,-0.00015286,0.00027966,0.00001728,-0.00018775,-0.00000778,0.0
 0001561,0.00001606,-0.00038936,-0.00005511,0.00050624,0.00004706,0.000
 02443,0.00029182,-0.00063249,-0.00017596,-0.00011455,0.00020570,0.0001
 4062,0.00010652,-0.00000689,-0.00001617,-0.00000044,-0.00006907,-0.000
 02432,-0.00001565,0.00012683,0.00004812,-0.00003557,-0.00025932,-0.000
 13505,0.00002056,-0.00002337,0.00004963,0.00000169,-0.00005049,-0.0000
 5175,0.00005437,0.00001612,0.00001755,0.00003465,-0.00004111,-0.000026
 93,-0.00000202,0.00000352,0.00001186,0.00000652,0.00000267,-0.00000664
 ,-0.00000340,-0.00001990,-0.00001185,-0.00001043,0.00002438,-0.0000230
 4,-0.00004999,-0.00001019,0.00001072,-0.00000582,-0.00001377,-0.000002
 03,-0.00000878,0.00000057,0.00000529,-0.00001171,-0.00001369,-0.000002
 52,0.00001503,-0.00010968,-0.00043744,0.00016706,0.00082932,-0.0011516
 4,-0.00162829,-0.00065915,0.00091578,-0.00203539,0.00002004,-0.0019797
 2,0.00001291,-0.00173541,0.00233349,0.00032015,-0.02089105,-0.00792945
 ,0.04240848,-0.00010196,0.00026123,0.00091818,-0.00021955,-0.00029530,
 0.00106262,-0.00000932,-0.00001116,0.00000892,0.00001843,-0.00000035,-
 0.00000876,-0.00032833,0.00019574,-0.00002027,-0.00019953,-0.00038175,
 -0.00000802,-0.13297453,-0.01058453,0.09651063,0.02018860,0.00579486,-
 0.02267502,0.01465401,0.00834926,0.00686259,0.12232739,0.00001641,0.00
 000356,-0.00007798,-0.00000750,-0.00001541,-0.00004362,0.00008284,-0.0
 0000007,-0.00005154,-0.00000327,0.00000362,0.00000370,-0.00011217,0.00
 000085,0.00013796,-0.00000776,0.00008717,0.00007517,-0.00017149,-0.000
 04553,-0.00002241,0.00005597,0.00002714,0.00002762,-0.00000002,-0.0000
 0600,0.00000141,-0.00002184,-0.00000580,-0.00000448,0.00003965,0.00000
 320,-0.00001613,-0.00007544,-0.00002259,0.00001125,-0.00000959,0.00001
 109,0.00000099,-0.00000707,-0.00001758,0.00001703,-0.00000098,0.000007
 52,0.00000353,-0.00001046,-0.00000852,-0.00000263,-0.00000021,0.000006
 32,0.00000086,0.00000201,0.00000151,-0.00000036,-0.00000418,-0.0000021
 5,-0.00000361,0.00000416,-0.00001296,-0.00000913,-0.00000383,0.0000027
 6,-0.00000118,-0.00000325,-0.00000049,-0.00000192,0.,0.00000234,-0.000
 00234,-0.00000340,0.00000096,0.00000383,-0.00036813,0.00106919,-0.0000
 4639,-0.00106149,-0.00072512,-0.00074872,0.00112290,0.00062920,-0.0003
 1924,-0.00037150,-0.00177065,0.00105974,0.00066792,-0.00037879,-0.0007
 4547,-0.00889586,0.01081647,0.01078756,-0.00059323,0.00014917,0.000373
 05,0.00034071,0.00023331,0.00015093,-0.00000148,-0.00000102,0.00000171
 ,0.00000209,0.00000244,-0.00000067,-0.00016091,0.00010301,-0.00004995,
 -0.00000601,0.00000811,0.00003427,-0.01087834,-0.08099109,0.01939800,-
 0.00135290,-0.00545381,0.04698253,0.01665915,-0.00801503,-0.05653379,0
 .00513849,0.08430365,-0.00006474,0.00000096,0.00016252,0.00008058,0.00
 000993,0.00003074,-0.00014103,-0.00000462,0.00008915,-0.00000010,-0.00
 000945,-0.00000690,0.00013075,0.00000758,-0.00021956,0.00006348,-0.000
 01691,-0.00021352,0.00032839,0.00010161,0.00015651,-0.00009627,-0.0000
 5813,-0.00009284,0.00000879,0.00001797,0.00000277,0.00004100,0.0000103
 3,0.00000511,-0.00005548,-0.00003520,-0.00002156,0.00011642,0.00006192
 ,0.00005082,0.00001121,-0.00002937,0.00000142,0.00002776,0.00002622,-0
 .00002183,-0.00001892,-0.00001000,-0.00001669,0.00002326,0.00001126,0.
 00000662,-0.00000439,-0.00000531,-0.00000079,-0.00000062,0.00000583,0.
 00000576,0.00000984,0.00000763,0.00000574,-0.00000940,0.00001189,0.000
 01625,0.00000726,-0.00000613,-0.00000004,0.00000989,0.00000207,0.00000
 265,0.00000287,-0.00000125,0.00000758,0.00000479,0.00000251,-0.0000074
 8,-0.00001789,-0.00010255,-0.00015578,0.00031371,0.00062581,0.00075613
 ,0.00038703,-0.00026800,0.00079660,0.00067282,0.00155197,0.00037091,0.
 00146718,-0.00075314,0.00053429,0.01589759,0.00336755,-0.01472372,-0.0
 0004972,-0.00018547,-0.00099265,-0.00017103,-0.00010996,-0.00094795,0.
 00000131,0.00000405,-0.00000123,-0.00001088,0.00000346,-0.00000118,0.0
 0033481,-0.00018375,0.00003233,0.00018061,0.00030464,-0.00000079,0.093
 82585,0.01842693,-0.26379191,-0.00597296,0.03634580,-0.06559436,0.0147
 2438,-0.03873914,-0.05751717,-0.12205817,-0.02038956,0.40129404\\0.000
 01097,0.00000250,-0.00000758,-0.00000946,0.00000318,0.00000378,-0.0000
 0885,-0.00000172,-0.00000362,0.00000188,-0.00000061,-0.00000023,0.0000
 0665,0.00000346,-0.00000129,-0.00001940,-0.00000025,0.00000888,0.00000
 963,-0.00000887,-0.00000074,-0.00000568,-0.00000445,0.00000257,-0.0000
 0005,0.00000115,-0.00000044,-0.00000099,0.00000189,-0.00000237,-0.0000
 0333,0.00000212,0.00000757,0.00000160,0.00000692,-0.00000788,0.0000029
 4,-0.00000045,0.00000376,0.00000294,0.00000190,0.00000301,-0.00000067,
 -0.00000602,0.00000001,0.00000066,-0.00000002,0.00000306,-0.00000139,-
 0.00000120,0.00000290,0.00000027,0.00000188,0.00000058,-0.00000070,-0.
 00000100,-0.00000041,-0.00000050,0.00000179,0.00000153,0.00000021,0.00
 000025,0.00000353,-0.00000040,0.00000002,0.00000314,-0.00000013,0.0000
 0047,0.00000063,0.00000025,0.00000043,0.00000100,0.00000480,0.00000389
 ,-0.00000368,-0.00000206,0.00001553,-0.00000044,0.00001013,-0.00001583
 ,0.00000199,0.00000291,-0.00000865,0.00000157,-0.00000119,0.00000395,-
 0.00000586,-0.00000831,0.00000372,-0.00000265,0.00000114,-0.00000055,-
 0.00000046,0.00000029,0.00000025,-0.00000137,0.00000159,-0.00000144,-0
 .00000269,0.00000157,-0.00000132,0.00000301,-0.00000036,-0.00000062,0.
 00000031,0.00000034,-0.00000079,-0.00000422,0.00000178,0.00000114,-0.0
 0000189,0.00000072,0.00000005,-0.00000134,0.00000140,-0.00000132,-0.00
 000193,-0.00000117,-0.00000141,-0.00000174\\\@


 THE WHOLE OF SCIENCE IS NOTHING MORE THAN A REFINEMENT OF EVERYDAY THINKING.
                                                              -- A. EINSTEIN
 Job cpu time:       0 days  9 hours 28 minutes 58.0 seconds.
 Elapsed time:       0 days  0 hours  8 minutes 57.5 seconds.
 File lengths (MBytes):  RWF=   1193 Int=      0 D2E=      0 Chk=     22 Scr=      1
 Normal termination of Gaussian 16 at Thu Jun 20 18:09:26 2024.
