33
oxetane_hirshfeld_sp_smd_n_n-DiMethylFormamide.xyz    Empirical formula: C13H18O2    Energy(Hartree): -656.592614    
O        5.5265350000    1.1214990000    0.1871860000
O        1.7838390000   -0.3700740000   -0.1965740000
C        4.0949040000   -0.1947540000   -0.6881760000
C        4.2934880000    1.3166570000   -0.5137450000
C        5.5251490000   -0.2715950000   -0.1380300000
C        3.0519500000   -0.7834640000    0.2323250000
C        0.7438250000   -0.8244890000    0.6299230000
H        3.5341750000    1.8320260000    0.0967140000
H        4.4378440000    1.8729060000   -1.4549330000
H        6.2906260000   -0.5219740000   -0.8909170000
H        5.6702430000   -0.9131640000    0.7471750000
H        3.2423910000   -0.4380360000    1.2695500000
H        3.1245190000   -1.8892520000    0.2388250000
H        0.7421100000   -1.9320790000    0.6723020000
H        0.8931410000   -0.4642790000    1.6674330000
H        3.9468920000   -0.5463380000   -1.7172630000
C       -0.5791590000   -0.3213910000    0.0891910000
H       -0.7047310000   -0.6832870000   -0.9440580000
H       -0.5512020000    0.7794060000    0.0449950000
C       -1.7629220000   -0.7762440000    0.9462550000
H       -1.7810590000   -1.8767930000    0.9844520000
H       -1.6214840000   -0.4169900000    1.9778000000
C       -3.0796340000   -0.2687050000    0.4132810000
C       -3.8108990000   -1.0133210000   -0.5210730000
C       -3.5733140000    0.9833140000    0.8021660000
C       -5.0049780000   -0.5227470000   -1.0508280000
H       -3.4391090000   -1.9928960000   -0.8332730000
C       -4.7666210000    1.4778230000    0.2749880000
H       -3.0143890000    1.5751700000    1.5319620000
C       -5.4868680000    0.7255660000   -0.6543160000
H       -5.5631070000   -1.1195620000   -1.7750240000
H       -5.1374070000    2.4541230000    0.5935820000
H       -6.4219760000    1.1097210000   -1.0659780000
