 Entering Gaussian System, Link 0=/home/users/astar/bmsi/zhangx5/programs/g16/g16
 Input=/home/users/astar/bmsi/zhangx5/scratch/oxetane_opt_solv_sp_smd_n_n-DiMethylFormamide_hirshfeld_smd_n_n-DiMethylFormamide/oxetane_opt_solv_sp_smd_n_n-DiMethylFormamide_hirshfeld_smd_n_n-DiMethylFormamide.com
 Output=/home/users/astar/bmsi/zhangx5/scratch/oxetane_opt_solv_sp_smd_n_n-DiMethylFormamide_hirshfeld_smd_n_n-DiMethylFormamide/oxetane_opt_solv_sp_smd_n_n-DiMethylFormamide_hirshfeld_smd_n_n-DiMethylFormamide.log
 Initial command:
 /home/users/astar/bmsi/zhangx5/programs/g16/l1.exe "/scratch/users/astar/bmsi/zhangx5/oxetane_opt_solv_sp_smd_n_n-DiMethylFormamide_hirshfeld_smd_n_n-DiMethylFormamide/Gau-1330163.inp" -scrdir="/scratch/users/astar/bmsi/zhangx5/oxetane_opt_solv_sp_smd_n_n-DiMethylFormamide_hirshfeld_smd_n_n-DiMethylFormamide/"
 Entering Link 1 = /home/users/astar/bmsi/zhangx5/programs/g16/l1.exe PID=   1330165.
  
 Copyright (c) 1988-2017, Gaussian, Inc.  All Rights Reserved.
  
 This is part of the Gaussian(R) 16 program.  It is based on
 the Gaussian(R) 09 system (copyright 2009, Gaussian, Inc.),
 the Gaussian(R) 03 system (copyright 2003, Gaussian, Inc.),
 the Gaussian(R) 98 system (copyright 1998, Gaussian, Inc.),
 the Gaussian(R) 94 system (copyright 1995, Gaussian, Inc.),
 the Gaussian 92(TM) system (copyright 1992, Gaussian, Inc.),
 the Gaussian 90(TM) system (copyright 1990, Gaussian, Inc.),
 the Gaussian 88(TM) system (copyright 1988, Gaussian, Inc.),
 the Gaussian 86(TM) system (copyright 1986, Carnegie Mellon
 University), and the Gaussian 82(TM) system (copyright 1983,
 Carnegie Mellon University). Gaussian is a federally registered
 trademark of Gaussian, Inc.
  
 This software contains proprietary and confidential information,
 including trade secrets, belonging to Gaussian, Inc.
  
 This software is provided under written license and may be
 used, copied, transmitted, or stored only in accord with that
 written license.
  
 The following legend is applicable only to US Government
 contracts under FAR:
  
                    RESTRICTED RIGHTS LEGEND
  
 Use, reproduction and disclosure by the US Government is
 subject to restrictions as set forth in subparagraphs (a)
 and (c) of the Commercial Computer Software - Restricted
 Rights clause in FAR 52.227-19.
  
 Gaussian, Inc.
 340 Quinnipiac St., Bldg. 40, Wallingford CT 06492
  
  
 ---------------------------------------------------------------
 Warning -- This program may not be used in any manner that
 competes with the business of Gaussian, Inc. or will provide
 assistance to any competitor of Gaussian, Inc.  The licensee
 of this program is prohibited from giving any competitor of
 Gaussian, Inc. access to this program.  By using this program,
 the user acknowledges that Gaussian, Inc. is engaged in the
 business of creating and licensing software in the field of
 computational chemistry and represents and warrants to the
 licensee that it is not a competitor of Gaussian, Inc. and that
 it will not use this program in any manner prohibited above.
 ---------------------------------------------------------------
  

 Cite this work as:
 Gaussian 16, Revision B.01,
 M. J. Frisch, G. W. Trucks, H. B. Schlegel, G. E. Scuseria, 
 M. A. Robb, J. R. Cheeseman, G. Scalmani, V. Barone, 
 G. A. Petersson, H. Nakatsuji, X. Li, M. Caricato, A. V. Marenich, 
 J. Bloino, B. G. Janesko, R. Gomperts, B. Mennucci, H. P. Hratchian, 
 J. V. Ortiz, A. F. Izmaylov, J. L. Sonnenberg, D. Williams-Young, 
 F. Ding, F. Lipparini, F. Egidi, J. Goings, B. Peng, A. Petrone, 
 T. Henderson, D. Ranasinghe, V. G. Zakrzewski, J. Gao, N. Rega, 
 G. Zheng, W. Liang, M. Hada, M. Ehara, K. Toyota, R. Fukuda, 
 J. Hasegawa, M. Ishida, T. Nakajima, Y. Honda, O. Kitao, H. Nakai, 
 T. Vreven, K. Throssell, J. A. Montgomery, Jr., J. E. Peralta, 
 F. Ogliaro, M. J. Bearpark, J. J. Heyd, E. N. Brothers, K. N. Kudin, 
 V. N. Staroverov, T. A. Keith, R. Kobayashi, J. Normand, 
 K. Raghavachari, A. P. Rendell, J. C. Burant, S. S. Iyengar, 
 J. Tomasi, M. Cossi, J. M. Millam, M. Klene, C. Adamo, R. Cammi, 
 J. W. Ochterski, R. L. Martin, K. Morokuma, O. Farkas, 
 J. B. Foresman, and D. J. Fox, Gaussian, Inc., Wallingford CT, 2016.
 
 ******************************************
 Gaussian 16:  ES64L-G16RevB.01 20-Dec-2017
                25-Dec-2024 
 ******************************************
 %chk=oxetane_opt_solv_sp_smd_n_n-DiMethylFormamide_hirshfeld_smd_n_n-DiMethylFor
 mamide.chk
 %nprocshared=64
 Will use up to   64 processors via shared memory.
 %mem=100GB
 ----------------------------------------------------------------------
 # m062x def2tzvp scrf=(smd,solvent=n,n-DiMethylFormamide) pop=hirshfel
 d
 ----------------------------------------------------------------------
 1/38=1,172=1/1;
 2/12=2,17=6,18=5,40=1/2;
 3/5=44,7=101,11=2,25=1,30=1,70=32201,72=148,74=-55/1,2,3;
 4//1;
 5/5=2,38=5,53=148/2;
 6/7=2,8=2,9=2,10=2,28=1,79=1/1;
 99/5=1,9=1/99;
 ------------
 Gaussian job
 ------------
 Symbolic Z-matrix:
 Charge =  0 Multiplicity = 1
 O                    -5.52653   1.1215   -0.18719 
 O                    -1.78384  -0.37007   0.19657 
 C                    -4.0949   -0.19475   0.68818 
 C                    -4.29349   1.31666   0.51375 
 C                    -5.52515  -0.2716    0.13803 
 C                    -3.05195  -0.78346  -0.23233 
 C                    -0.74383  -0.82449  -0.62992 
 H                    -3.53418   1.83203  -0.09671 
 H                    -4.43784   1.87291   1.45493 
 H                    -6.29063  -0.52197   0.89092 
 H                    -5.67024  -0.91316  -0.74718 
 H                    -3.24239  -0.43804  -1.26955 
 H                    -3.12452  -1.88925  -0.23883 
 H                    -0.74211  -1.93208  -0.6723 
 H                    -0.89314  -0.46428  -1.66743 
 H                    -3.94689  -0.54634   1.71726 
 C                     0.57916  -0.32139  -0.08919 
 H                     0.70473  -0.68329   0.94406 
 H                     0.5512    0.77941  -0.045 
 C                     1.76292  -0.77624  -0.94626 
 H                     1.78106  -1.87679  -0.98445 
 H                     1.62148  -0.41699  -1.9778 
 C                     3.07963  -0.26871  -0.41328 
 C                     3.8109   -1.01332   0.52107 
 C                     3.57331   0.98331  -0.80217 
 C                     5.00498  -0.52275   1.05083 
 H                     3.43911  -1.9929    0.83327 
 C                     4.76662   1.47782  -0.27499 
 H                     3.01439   1.57517  -1.53196 
 C                     5.48687   0.72557   0.65432 
 H                     5.56311  -1.11956   1.77502 
 H                     5.13741   2.45412  -0.59358 
 H                     6.42198   1.10972   1.06598 
 
                          Input orientation:                          
 ---------------------------------------------------------------------
 Center     Atomic      Atomic             Coordinates (Angstroms)
 Number     Number       Type             X           Y           Z
 ---------------------------------------------------------------------
      1          8           0       -5.526535    1.121499   -0.187186
      2          8           0       -1.783839   -0.370074    0.196574
      3          6           0       -4.094904   -0.194754    0.688176
      4          6           0       -4.293488    1.316657    0.513745
      5          6           0       -5.525149   -0.271595    0.138030
      6          6           0       -3.051950   -0.783464   -0.232325
      7          6           0       -0.743825   -0.824489   -0.629923
      8          1           0       -3.534175    1.832026   -0.096714
      9          1           0       -4.437844    1.872906    1.454933
     10          1           0       -6.290626   -0.521974    0.890917
     11          1           0       -5.670243   -0.913164   -0.747175
     12          1           0       -3.242391   -0.438036   -1.269550
     13          1           0       -3.124519   -1.889252   -0.238825
     14          1           0       -0.742110   -1.932079   -0.672302
     15          1           0       -0.893141   -0.464279   -1.667433
     16          1           0       -3.946892   -0.546338    1.717263
     17          6           0        0.579159   -0.321391   -0.089191
     18          1           0        0.704731   -0.683287    0.944058
     19          1           0        0.551202    0.779406   -0.044995
     20          6           0        1.762922   -0.776244   -0.946255
     21          1           0        1.781059   -1.876793   -0.984452
     22          1           0        1.621484   -0.416990   -1.977800
     23          6           0        3.079634   -0.268705   -0.413281
     24          6           0        3.810899   -1.013321    0.521073
     25          6           0        3.573314    0.983314   -0.802166
     26          6           0        5.004978   -0.522747    1.050828
     27          1           0        3.439109   -1.992896    0.833273
     28          6           0        4.766621    1.477823   -0.274988
     29          1           0        3.014389    1.575170   -1.531962
     30          6           0        5.486868    0.725566    0.654316
     31          1           0        5.563107   -1.119562    1.775024
     32          1           0        5.137407    2.454123   -0.593582
     33          1           0        6.421976    1.109721    1.065978
 ---------------------------------------------------------------------
                    Distance matrix (angstroms):
                    1          2          3          4          5
     1  O    0.000000
     2  O    4.047201   0.000000
     3  C    2.132686   2.369268   0.000000
     4  C    1.431711   3.040394   1.534348   0.000000
     5  C    1.430552   3.743064   1.534329   2.044675   0.000000
     6  C    3.123218   1.401054   1.510515   2.551185   2.552623
     7  C    5.182393   1.404001   3.655637   4.300301   4.874064
     8  H    2.117199   2.828239   2.244617   1.102189   2.905908
     9  H    2.108653   3.695696   2.231758   1.102763   2.741414
    10  H    2.108825   4.562490   2.229209   2.740690   1.102490
    11  H    2.115205   4.036056   2.249008   2.908174   1.102838
    12  H    2.970013   2.069182   2.149106   2.713649   2.687000
    13  H    3.851879   2.072413   2.161551   3.494382   2.919222
    14  H    5.696525   2.068817   4.013780   4.957144   5.127505
    15  H    5.116069   2.068028   3.984071   4.414933   4.975171
    16  H    2.983937   2.649974   1.097515   2.244846   2.249523
    17  C    6.274634   2.380712   4.739958   5.175850   6.108738
    18  H    6.585259   2.617215   4.831215   5.400661   6.295282
    19  H    6.089017   2.613824   4.803418   4.906307   6.169290
    20  C    7.570588   3.748406   6.109306   6.572057   7.385548
    21  H    7.938912   4.046421   6.336709   7.024446   7.564212
    22  H    7.527777   4.040585   6.311411   6.648325   7.454679
    23  C    8.720661   4.902608   7.258972   7.598400   8.622427
    24  C    9.604518   5.640936   7.949824   8.432671   9.373296
    25  C    9.121653   5.615000   7.900034   7.983064   9.232594
    26  C   10.730750   6.844055   9.113010   9.493858  10.572599
    27  H    9.545866   5.506189   7.746981   8.417143   9.154461
    28  C   10.299696   6.822435   9.069279   9.095804  10.447563
    29  H    8.658038   5.458462   7.655305   7.593208   8.895118
    30  C   11.052599   7.367030   9.625928   9.799210  11.069119
    31  H   11.482717   7.551877   9.762873  10.231249  11.240472
    32  H   10.754567   7.516920   9.689944   9.563565  11.029728
    33  H   12.014053   8.383380  10.604205  10.731680  12.062459
                    6          7          8          9         10
     6  C    0.000000
     7  C    2.342479   0.000000
     8  H    2.663028   3.889401   0.000000
     9  H    3.438582   5.026762   1.796078   0.000000
    10  H    3.437888   5.759468   3.756961   3.079994   0.000000
    11  H    2.671582   4.928611   3.538637   3.759026   1.794784
    12  H    1.109695   2.607930   2.571743   3.767276   3.737165
    13  H    1.108186   2.637116   3.746455   4.329835   3.629049
    14  H    2.616917   1.108402   4.721802   5.715023   5.934482
    15  H    2.611871   1.108365   3.836044   5.270344   5.973385
    16  H    2.158250   3.980740   3.019514   2.482457   2.485263
    17  C    3.663189   1.515185   4.642928   5.689427   6.942247
    18  H    3.937838   2.143751   5.037691   5.765518   6.997418
    19  H    3.931966   2.142829   4.219122   5.323167   7.027100
    20  C    4.867519   2.527088   5.965235   7.157737   8.264351
    21  H    5.011890   2.758274   6.541799   7.660652   8.396704
    22  H    5.002197   2.752729   5.931052   7.330944   8.416772
    23  C    6.155814   3.869712   6.946636   8.036740   9.463976
    24  C    6.907904   4.701698   7.901125   8.788866  10.120228
    25  C    6.880432   4.683536   7.192661   8.370455  10.120758
    26  C    8.162631   5.997058   8.931906   9.750351  11.296736
    27  H    6.688204   4.582909   8.007596   8.796435   9.840461
    28  C    8.139121   5.982611   8.310262   9.373948  11.296957
    29  H    6.637219   4.549309   6.708920   8.034050   9.841324
    30  C    8.716348   6.547784   9.119623  10.022838  11.845746
    31  H    8.852210   6.756347   9.745554  10.443962  11.901670
    32  H    8.813515   6.733462   8.708055   9.809162  11.902135
    33  H    9.748077   7.613537  10.049802  10.893550  12.818086
                   11         12         13         14         15
    11  H    0.000000
    12  H    2.528456   0.000000
    13  H    2.773424   1.783905   0.000000
    14  H    5.032920   2.973260   2.421902   0.000000
    15  H    4.885599   2.382850   3.008408   1.779756   0.000000
    16  H    3.029514   3.070684   2.511174   4.230949   4.559418
    17  C    6.311748   4.001387   4.024650   2.163351   2.163084
    18  H    6.599500   4.532106   4.185298   2.503088   3.069372
    19  H    6.485694   4.168099   4.546453   3.068928   2.503035
    20  C    7.437091   5.027133   5.062245   2.772398   2.769854
    21  H    7.517099   5.233197   4.961936   2.543005   3.100485
    22  H    7.411471   4.915215   5.264611   3.096191   2.534147
    23  C    8.779929   6.381996   6.414680   4.176079   4.170622
    24  C    9.566114   7.299739   7.031694   4.795639   5.217183
    25  C    9.436260   6.978002   7.309580   5.209536   4.774247
    26  C   10.832617   8.567988   8.343816   6.163150   6.494626
    27  H    9.308272   7.175089   6.651417   4.444440   5.230544
    28  C   10.717645   8.294814   8.579545   6.490871   6.143580
    29  H    9.068105   6.577929   7.166632   5.210671   4.409818
    30  C   11.363571   9.014166   9.043835   6.900953   6.892805
    31  H   11.514870   9.341879   8.951137   6.812147   7.345954
    32  H   11.321109   8.890587   9.340780   7.335781   6.785111
    33  H   12.393601  10.062317  10.091180   7.974854   7.966175
                   16         17         18         19         20
    16  H    0.000000
    17  C    4.878423   0.000000
    18  H    4.717435   1.101971   0.000000
    19  H    5.009591   1.102039   1.772362   0.000000
    20  C    6.304694   1.530603   2.168339   2.168083   0.000000
    21  H    6.471383   2.159938   2.510396   3.074170   1.101361
    22  H    6.684088   2.159265   3.073858   2.512489   1.101432
    23  C    7.347678   2.521941   2.766661   2.761728   1.508439
    24  C    7.863349   3.360853   3.152161   3.762968   2.530507
    25  C    8.077181   3.342986   3.749083   3.122186   2.528700
    26  C    8.976674   4.574720   4.304567   4.767867   3.816219
    27  H    7.578059   3.438631   3.033838   4.098417   2.730671
    28  C    9.164693   4.561417   4.759771   4.279070   3.814921
    29  H    7.969799   3.407180   4.070113   2.985231   2.727338
    30  C    9.578279   5.072921   4.993761   4.985252   4.322619
    31  H    9.527434   5.380717   4.948197   5.660189   4.686644
    32  H    9.842117   5.360552   5.644138   4.913136   4.684741
    33  H   10.520462   6.125439   5.993049   5.984092   5.414123
                   21         22         23         24         25
    21  H    0.000000
    22  H    1.772915   0.000000
    23  C    2.144407   2.143807   0.000000
    24  C    2.670663   3.375428   1.400792   0.000000
    25  C    3.380180   2.674436   1.400894   2.407064   0.000000
    26  C    4.045919   4.542225   2.432098   1.395395   2.784146
    27  H    2.463074   3.699915   2.157766   1.093281   3.398602
    28  C    4.546468   4.047440   2.432162   2.784406   1.395148
    29  H    3.706335   2.471368   2.157679   3.398480   1.093295
    30  C    4.815688   4.814007   2.814803   2.418750   2.418566
    31  H    4.742572   5.487594   3.417642   2.157293   3.875987
    32  H    5.493149   4.745636   3.417708   3.876241   2.157122
    33  H    5.887414   5.885589   3.906343   3.409098   3.408932
                   26         27         28         29         30
    26  C    0.000000
    27  H    2.158846   0.000000
    28  C    2.411821   3.877682   0.000000
    29  H    3.877435   4.301839   2.158652   0.000000
    30  C    1.395609   3.408134   1.395798   3.408048   0.000000
    31  H    1.091859   2.482131   3.403432   4.969276   2.160161
    32  H    3.403436   4.969518   1.091854   2.481999   2.160389
    33  H    2.161727   4.310206   2.161918   4.310172   1.091544
                   31         32         33
    31  H    0.000000
    32  H    4.308450   0.000000
    33  H    2.492008   2.492323   0.000000
 Stoichiometry    C13H18O2
 Framework group  C1[X(C13H18O2)]
 Deg. of freedom    93
 Full point group                 C1      NOp   1
 Largest Abelian subgroup         C1      NOp   1
 Largest concise Abelian subgroup C1      NOp   1
                         Standard orientation:                         
 ---------------------------------------------------------------------
 Center     Atomic      Atomic             Coordinates (Angstroms)
 Number     Number       Type             X           Y           Z
 ---------------------------------------------------------------------
      1          8           0        5.526535    1.121499    0.187186
      2          8           0        1.783839   -0.370074   -0.196574
      3          6           0        4.094904   -0.194754   -0.688176
      4          6           0        4.293488    1.316657   -0.513745
      5          6           0        5.525149   -0.271595   -0.138030
      6          6           0        3.051950   -0.783464    0.232325
      7          6           0        0.743825   -0.824489    0.629923
      8          1           0        3.534175    1.832026    0.096714
      9          1           0        4.437844    1.872906   -1.454933
     10          1           0        6.290626   -0.521974   -0.890917
     11          1           0        5.670243   -0.913164    0.747175
     12          1           0        3.242391   -0.438036    1.269550
     13          1           0        3.124519   -1.889252    0.238825
     14          1           0        0.742110   -1.932079    0.672302
     15          1           0        0.893141   -0.464279    1.667433
     16          1           0        3.946892   -0.546338   -1.717263
     17          6           0       -0.579159   -0.321391    0.089191
     18          1           0       -0.704731   -0.683287   -0.944058
     19          1           0       -0.551202    0.779406    0.044995
     20          6           0       -1.762922   -0.776244    0.946255
     21          1           0       -1.781059   -1.876793    0.984452
     22          1           0       -1.621484   -0.416990    1.977800
     23          6           0       -3.079634   -0.268705    0.413281
     24          6           0       -3.810899   -1.013321   -0.521073
     25          6           0       -3.573314    0.983314    0.802166
     26          6           0       -5.004978   -0.522747   -1.050828
     27          1           0       -3.439109   -1.992896   -0.833273
     28          6           0       -4.766621    1.477823    0.274988
     29          1           0       -3.014389    1.575170    1.531962
     30          6           0       -5.486868    0.725566   -0.654316
     31          1           0       -5.563107   -1.119562   -1.775024
     32          1           0       -5.137407    2.454123    0.593582
     33          1           0       -6.421976    1.109721   -1.065978
 ---------------------------------------------------------------------
 Rotational constants (GHZ):           2.0318088           0.1571053           0.1532402
 Standard basis: def2TZVP (5D, 7F)
 There are   648 symmetry adapted cartesian basis functions of A   symmetry.
 There are   573 symmetry adapted basis functions of A   symmetry.
   573 basis functions,   909 primitive gaussians,   648 cartesian basis functions
    56 alpha electrons       56 beta electrons
       nuclear repulsion energy       912.8182348621 Hartrees.
 NAtoms=   33 NActive=   33 NUniq=   33 SFac= 1.00D+00 NAtFMM=   60 NAOKFM=F Big=F
 Integral buffers will be    131072 words long.
 Raffenetti 2 integral format.
 Two-electron integral symmetry is turned on.
 ------------------------------------------------------------------------------
 Polarizable Continuum Model (PCM)
 =================================
 Model                : PCM.
 Atomic radii         : SMD-Coulomb.
 Polarization charges : Total charges.
 Charge compensation  : None.
 Solution method      : On-the-fly selection.
 Cavity type          : VdW (van der Waals Surface) (Alpha=1.000).
 Cavity algorithm     : GePol (No added spheres)
                        Default sphere list used, NSphG=   33.
                        Lebedev-Laikov grids with approx.  5.0 points / Ang**2.
                        Smoothing algorithm: York/Karplus (Gamma=1.0000).
                        Polarization charges: spherical gaussians, with
                                              point-specific exponents (IZeta= 3).
                        Self-potential: point-specific (ISelfS= 7).
                        Self-field    : sphere-specific E.n sum rule (ISelfD= 2).
 Solvent              : n,n-DiMethylFormamide, Eps=  37.219000 Eps(inf)=   2.046330
 ------------------------------------------------------------------------------
 ------------------------------------------------------------------------------
 Atomic radii for non-electrostatic terms: SMD-CDS.
 ------------------------------------------------------------------------------
 Nuclear repulsion after PCM non-electrostatic terms =      912.8133421203 Hartrees.
 One-electron integrals computed using PRISM.
   1 Symmetry operations used in ECPInt.
 ECPInt:  NShTT=   28203 NPrTT=   83820 LenC2=   23398 LenP2D=   50882.
 LDataN:  DoStor=T MaxTD1= 6 Len=  172
 NBasis=   573 RedAO= T EigKep=  8.74D-06  NBF=   573
 NBsUse=   573 1.00D-06 EigRej= -1.00D+00 NBFU=   573
 ExpMin= 9.52D-02 ExpMax= 2.70D+04 ExpMxC= 9.22D+02 IAcc=3 IRadAn=         5 AccDes= 0.00D+00
 Harris functional with IExCor= 1009 and IRadAn=       5 diagonalized for initial guess.
 HarFok:  IExCor= 1009 AccDes= 0.00D+00 IRadAn=         5 IDoV= 1 UseB2=F ITyADJ=14
 ICtDFT=  3500011 ScaDFX=  1.000000  1.000000  1.000000  1.000000
 FoFCou: FMM=F IPFlag=           0 FMFlag=      100000 FMFlg1=           0
         NFxFlg=           0 DoJE=T BraDBF=F KetDBF=T FulRan=T
         wScrn=  0.000000 ICntrl=       500 IOpCl=  0 I1Cent=   200000004 NGrid=           0
         NMat0=    1 NMatS0=      1 NMatT0=    0 NMatD0=    1 NMtDS0=    0 NMtDT0=    0
 Petite list used in FoFCou.
 Requested convergence on RMS density matrix=1.00D-08 within 128 cycles.
 Requested convergence on MAX density matrix=1.00D-06.
 Requested convergence on             energy=1.00D-06.
 No special actions if energy rises.
 Inv3:  Mode=1 IEnd=    17904747.
 Iteration    1 A*A^-1 deviation from unit magnitude is 6.44D-15 for    482.
 Iteration    1 A*A^-1 deviation from orthogonality  is 5.09D-15 for   1196    419.
 Iteration    1 A^-1*A deviation from unit magnitude is 5.11D-15 for    482.
 Iteration    1 A^-1*A deviation from orthogonality  is 1.45D-13 for    895    831.
 Error on total polarization charges =  0.05519
 SCF Done:  E(RM062X) =  -656.592614187     A.U. after   11 cycles
            NFock= 11  Conv=0.66D-08     -V/T= 2.0054
 SMD-CDS (non-electrostatic) energy       (kcal/mol) =      -3.07
 (included in total energy above)

 **********************************************************************

            Population analysis using the SCF Density.

 **********************************************************************

 Orbital symmetries:
       Occupied  (A) (A) (A) (A) (A) (A) (A) (A) (A) (A) (A) (A)
                 (A) (A) (A) (A) (A) (A) (A) (A) (A) (A) (A) (A)
                 (A) (A) (A) (A) (A) (A) (A) (A) (A) (A) (A) (A)
                 (A) (A) (A) (A) (A) (A) (A) (A) (A) (A) (A) (A)
                 (A) (A) (A) (A) (A) (A) (A) (A)
       Virtual   (A) (A) (A) (A) (A) (A) (A) (A) (A) (A) (A) (A)
                 (A) (A) (A) (A) (A) (A) (A) (A) (A) (A) (A) (A)
                 (A) (A) (A) (A) (A) (A) (A) (A) (A) (A) (A) (A)
                 (A) (A) (A) (A) (A) (A) (A) (A) (A) (A) (A) (A)
                 (A) (A) (A) (A) (A) (A) (A) (A) (A) (A) (A) (A)
                 (A) (A) (A) (A) (A) (A) (A) (A) (A) (A) (A) (A)
                 (A) (A) (A) (A) (A) (A) (A) (A) (A) (A) (A) (A)
                 (A) (A) (A) (A) (A) (A) (A) (A) (A) (A) (A) (A)
                 (A) (A) (A) (A) (A) (A) (A) (A) (A) (A) (A) (A)
                 (A) (A) (A) (A) (A) (A) (A) (A) (A) (A) (A) (A)
                 (A) (A) (A) (A) (A) (A) (A) (A) (A) (A) (A) (A)
                 (A) (A) (A) (A) (A) (A) (A) (A) (A) (A) (A) (A)
                 (A) (A) (A) (A) (A) (A) (A) (A) (A) (A) (A) (A)
                 (A) (A) (A) (A) (A) (A) (A) (A) (A) (A) (A) (A)
                 (A) (A) (A) (A) (A) (A) (A) (A) (A) (A) (A) (A)
                 (A) (A) (A) (A) (A) (A) (A) (A) (A) (A) (A) (A)
                 (A) (A) (A) (A) (A) (A) (A) (A) (A) (A) (A) (A)
                 (A) (A) (A) (A) (A) (A) (A) (A) (A) (A) (A) (A)
                 (A) (A) (A) (A) (A) (A) (A) (A) (A) (A) (A) (A)
                 (A) (A) (A) (A) (A) (A) (A) (A) (A) (A) (A) (A)
                 (A) (A) (A) (A) (A) (A) (A) (A) (A) (A) (A) (A)
                 (A) (A) (A) (A) (A) (A) (A) (A) (A) (A) (A) (A)
                 (A) (A) (A) (A) (A) (A) (A) (A) (A) (A) (A) (A)
                 (A) (A) (A) (A) (A) (A) (A) (A) (A) (A) (A) (A)
                 (A) (A) (A) (A) (A) (A) (A) (A) (A) (A) (A) (A)
                 (A) (A) (A) (A) (A) (A) (A) (A) (A) (A) (A) (A)
                 (A) (A) (A) (A) (A) (A) (A) (A) (A) (A) (A) (A)
                 (A) (A) (A) (A) (A) (A) (A) (A) (A) (A) (A) (A)
                 (A) (A) (A) (A) (A) (A) (A) (A) (A) (A) (A) (A)
                 (A) (A) (A) (A) (A) (A) (A) (A) (A) (A) (A) (A)
                 (A) (A) (A) (A) (A) (A) (A) (A) (A) (A) (A) (A)
                 (A) (A) (A) (A) (A) (A) (A) (A) (A) (A) (A) (A)
                 (A) (A) (A) (A) (A) (A) (A) (A) (A) (A) (A) (A)
                 (A) (A) (A) (A) (A) (A) (A) (A) (A) (A) (A) (A)
                 (A) (A) (A) (A) (A) (A) (A) (A) (A) (A) (A) (A)
                 (A) (A) (A) (A) (A) (A) (A) (A) (A) (A) (A) (A)
                 (A) (A) (A) (A) (A) (A) (A) (A) (A) (A) (A) (A)
                 (A) (A) (A) (A) (A) (A) (A) (A) (A) (A) (A) (A)
                 (A) (A) (A) (A) (A) (A) (A) (A) (A) (A) (A) (A)
                 (A) (A) (A) (A) (A) (A) (A) (A) (A) (A) (A) (A)
                 (A) (A) (A) (A) (A) (A) (A) (A) (A) (A) (A) (A)
                 (A) (A) (A) (A) (A) (A) (A) (A) (A) (A) (A) (A)
                 (A) (A) (A) (A) (A) (A) (A) (A) (A) (A) (A) (A)
                 (A)
 The electronic state is 1-A.
 Alpha  occ. eigenvalues --  -19.62390 -19.61692 -10.57754 -10.57514 -10.57489
 Alpha  occ. eigenvalues --  -10.57280 -10.54711 -10.53992 -10.53980 -10.53774
 Alpha  occ. eigenvalues --  -10.53741 -10.53732 -10.53434 -10.53213 -10.52709
 Alpha  occ. eigenvalues --   -1.16831  -1.16014  -0.96020  -0.89789  -0.87163
 Alpha  occ. eigenvalues --   -0.83722  -0.83220  -0.77694  -0.76781  -0.72077
 Alpha  occ. eigenvalues --   -0.68331  -0.67835  -0.65163  -0.61998  -0.58705
 Alpha  occ. eigenvalues --   -0.58027  -0.56248  -0.56013  -0.54950  -0.52617
 Alpha  occ. eigenvalues --   -0.51908  -0.50534  -0.49420  -0.48845  -0.47859
 Alpha  occ. eigenvalues --   -0.46115  -0.45630  -0.45000  -0.43808  -0.41454
 Alpha  occ. eigenvalues --   -0.41158  -0.39909  -0.38986  -0.38280  -0.38048
 Alpha  occ. eigenvalues --   -0.37176  -0.36548  -0.32569  -0.31739  -0.30754
 Alpha  occ. eigenvalues --   -0.29665
 Alpha virt. eigenvalues --    0.02123   0.02343   0.07283   0.08844   0.09659
 Alpha virt. eigenvalues --    0.09877   0.10333   0.10680   0.10733   0.11985
 Alpha virt. eigenvalues --    0.12944   0.13728   0.13833   0.14539   0.15385
 Alpha virt. eigenvalues --    0.15626   0.16527   0.16730   0.17258   0.17456
 Alpha virt. eigenvalues --    0.18273   0.18847   0.18862   0.19772   0.20161
 Alpha virt. eigenvalues --    0.20695   0.22185   0.22645   0.23244   0.23565
 Alpha virt. eigenvalues --    0.24234   0.25047   0.25953   0.25989   0.27620
 Alpha virt. eigenvalues --    0.28076   0.28764   0.29192   0.29203   0.29503
 Alpha virt. eigenvalues --    0.30730   0.30998   0.32535   0.32603   0.33751
 Alpha virt. eigenvalues --    0.34099   0.34551   0.35132   0.35382   0.36059
 Alpha virt. eigenvalues --    0.36927   0.37492   0.38000   0.38161   0.39126
 Alpha virt. eigenvalues --    0.39353   0.39593   0.40277   0.41271   0.41743
 Alpha virt. eigenvalues --    0.42539   0.43284   0.43798   0.44193   0.44634
 Alpha virt. eigenvalues --    0.45412   0.46120   0.46261   0.46770   0.47438
 Alpha virt. eigenvalues --    0.48044   0.48373   0.48721   0.49083   0.49475
 Alpha virt. eigenvalues --    0.50054   0.50254   0.50406   0.51478   0.52113
 Alpha virt. eigenvalues --    0.52365   0.53216   0.53775   0.54030   0.54545
 Alpha virt. eigenvalues --    0.55047   0.55795   0.56012   0.56469   0.57557
 Alpha virt. eigenvalues --    0.58329   0.58602   0.59814   0.60750   0.61571
 Alpha virt. eigenvalues --    0.62219   0.63291   0.64777   0.66915   0.67897
 Alpha virt. eigenvalues --    0.69024   0.69509   0.70917   0.71489   0.71934
 Alpha virt. eigenvalues --    0.73278   0.73860   0.74719   0.76314   0.76895
 Alpha virt. eigenvalues --    0.78137   0.78692   0.78990   0.79240   0.82119
 Alpha virt. eigenvalues --    0.82818   0.83236   0.84793   0.85509   0.87054
 Alpha virt. eigenvalues --    0.88126   0.88801   0.89166   0.90043   0.90526
 Alpha virt. eigenvalues --    0.92035   0.92706   0.93209   0.95123   0.95387
 Alpha virt. eigenvalues --    0.96099   0.97004   0.98670   0.99355   1.00111
 Alpha virt. eigenvalues --    1.02564   1.03497   1.04446   1.05421   1.06227
 Alpha virt. eigenvalues --    1.06437   1.07007   1.08501   1.09406   1.11992
 Alpha virt. eigenvalues --    1.12183   1.12967   1.13712   1.14256   1.16656
 Alpha virt. eigenvalues --    1.17504   1.18488   1.19844   1.20058   1.21485
 Alpha virt. eigenvalues --    1.21965   1.23208   1.24728   1.25264   1.25959
 Alpha virt. eigenvalues --    1.26073   1.26625   1.28949   1.29784   1.31052
 Alpha virt. eigenvalues --    1.32561   1.33427   1.34002   1.35179   1.36695
 Alpha virt. eigenvalues --    1.37916   1.38897   1.40619   1.42341   1.43654
 Alpha virt. eigenvalues --    1.45679   1.48546   1.49171   1.50155   1.50225
 Alpha virt. eigenvalues --    1.52751   1.54490   1.54977   1.55823   1.56675
 Alpha virt. eigenvalues --    1.58705   1.59126   1.59471   1.59977   1.61381
 Alpha virt. eigenvalues --    1.62122   1.63835   1.64575   1.64974   1.65401
 Alpha virt. eigenvalues --    1.66357   1.66761   1.67001   1.67529   1.70005
 Alpha virt. eigenvalues --    1.70088   1.70754   1.70897   1.73414   1.74107
 Alpha virt. eigenvalues --    1.74616   1.75366   1.75862   1.76593   1.77888
 Alpha virt. eigenvalues --    1.78846   1.79490   1.80404   1.82860   1.83518
 Alpha virt. eigenvalues --    1.85071   1.86915   1.89021   1.89763   1.90092
 Alpha virt. eigenvalues --    1.91889   1.92828   1.94082   1.94282   1.96392
 Alpha virt. eigenvalues --    1.96436   1.96777   1.98304   1.98810   1.99735
 Alpha virt. eigenvalues --    2.02288   2.03502   2.04976   2.05718   2.06041
 Alpha virt. eigenvalues --    2.07600   2.07802   2.08821   2.11664   2.13097
 Alpha virt. eigenvalues --    2.13187   2.13875   2.15180   2.17256   2.17867
 Alpha virt. eigenvalues --    2.19197   2.20602   2.21282   2.22760   2.24249
 Alpha virt. eigenvalues --    2.24664   2.25765   2.26841   2.27850   2.28692
 Alpha virt. eigenvalues --    2.29828   2.33174   2.33943   2.34603   2.38338
 Alpha virt. eigenvalues --    2.39964   2.40639   2.41955   2.42514   2.43985
 Alpha virt. eigenvalues --    2.45141   2.45712   2.47040   2.47714   2.48107
 Alpha virt. eigenvalues --    2.50116   2.50752   2.52803   2.53512   2.54250
 Alpha virt. eigenvalues --    2.55219   2.55713   2.56309   2.57122   2.58805
 Alpha virt. eigenvalues --    2.59781   2.60088   2.61007   2.61758   2.62858
 Alpha virt. eigenvalues --    2.63280   2.64418   2.64770   2.65583   2.66310
 Alpha virt. eigenvalues --    2.66746   2.67039   2.67550   2.68155   2.68741
 Alpha virt. eigenvalues --    2.69697   2.69997   2.70610   2.71931   2.72432
 Alpha virt. eigenvalues --    2.73017   2.73655   2.73953   2.75925   2.76856
 Alpha virt. eigenvalues --    2.78016   2.79564   2.79703   2.80267   2.81705
 Alpha virt. eigenvalues --    2.81999   2.83701   2.84170   2.84729   2.85437
 Alpha virt. eigenvalues --    2.85750   2.86897   2.88409   2.88975   2.89978
 Alpha virt. eigenvalues --    2.91143   2.92155   2.93645   2.97244   2.98396
 Alpha virt. eigenvalues --    2.98710   3.00482   3.00873   3.01591   3.01963
 Alpha virt. eigenvalues --    3.05243   3.06111   3.07200   3.08422   3.09421
 Alpha virt. eigenvalues --    3.10709   3.11362   3.11910   3.12687   3.13151
 Alpha virt. eigenvalues --    3.14583   3.15166   3.15718   3.16418   3.17751
 Alpha virt. eigenvalues --    3.19160   3.19417   3.21168   3.21404   3.21895
 Alpha virt. eigenvalues --    3.23390   3.23509   3.24808   3.26051   3.26540
 Alpha virt. eigenvalues --    3.27233   3.27724   3.29112   3.30025   3.32424
 Alpha virt. eigenvalues --    3.32605   3.33664   3.33987   3.34613   3.35468
 Alpha virt. eigenvalues --    3.36466   3.36544   3.38503   3.39389   3.39937
 Alpha virt. eigenvalues --    3.40525   3.41690   3.41809   3.44210   3.45416
 Alpha virt. eigenvalues --    3.45857   3.46323   3.46941   3.47626   3.48583
 Alpha virt. eigenvalues --    3.49563   3.50678   3.50938   3.52202   3.52857
 Alpha virt. eigenvalues --    3.52979   3.54270   3.55164   3.57210   3.58194
 Alpha virt. eigenvalues --    3.58992   3.61112   3.62529   3.63006   3.64824
 Alpha virt. eigenvalues --    3.64998   3.66449   3.69191   3.71261   3.71993
 Alpha virt. eigenvalues --    3.73130   3.74713   3.75104   3.75980   3.76649
 Alpha virt. eigenvalues --    3.77475   3.79798   3.82840   3.83880   3.84352
 Alpha virt. eigenvalues --    3.87518   3.87989   3.89853   3.90557   3.92389
 Alpha virt. eigenvalues --    3.93305   3.94843   3.98043   4.00742   4.02255
 Alpha virt. eigenvalues --    4.03813   4.05063   4.06903   4.07594   4.09409
 Alpha virt. eigenvalues --    4.10448   4.11338   4.11820   4.15255   4.15825
 Alpha virt. eigenvalues --    4.16943   4.17403   4.19718   4.20693   4.20820
 Alpha virt. eigenvalues --    4.21356   4.23164   4.26215   4.28220   4.28912
 Alpha virt. eigenvalues --    4.29498   4.34871   4.36152   4.37746   4.40989
 Alpha virt. eigenvalues --    4.43220   4.44148   4.45975   4.48049   4.51874
 Alpha virt. eigenvalues --    4.52892   4.54221   4.56324   4.56703   4.58652
 Alpha virt. eigenvalues --    4.62150   4.64785   4.65105   4.66398   4.66558
 Alpha virt. eigenvalues --    4.69858   4.74956   4.77629   4.80641   4.81958
 Alpha virt. eigenvalues --    4.84514   4.88292   4.91706   4.92531   5.00481
 Alpha virt. eigenvalues --    5.03175   5.11264   5.15854   5.16620   5.32814
 Alpha virt. eigenvalues --    5.33469   5.42668   5.43869   5.50142   5.53344
 Alpha virt. eigenvalues --    5.58089   5.62612   5.63895   5.66505   5.78032
 Alpha virt. eigenvalues --    5.83494   5.86538   5.92235   5.99827   6.13325
 Alpha virt. eigenvalues --    6.18895   6.25869   6.71066   6.74187   6.76398
 Alpha virt. eigenvalues --    6.77256   6.78722   6.89930   7.05493   7.18544
 Alpha virt. eigenvalues --    7.26593   7.32087  22.14421  22.39924  22.50932
 Alpha virt. eigenvalues --   22.57218  22.60555  22.62095  22.68786  22.69652
 Alpha virt. eigenvalues --   22.72565  22.74631  22.79769  22.88559  23.28740
 Alpha virt. eigenvalues --   44.28578  44.38896
          Condensed to atoms (all electrons):
               1          2          3          4          5          6
     1  O    8.145256  -0.000404  -0.097252   0.223119   0.225502   0.006798
     2  O   -0.000404   8.107505  -0.050976   0.005583   0.007825   0.218501
     3  C   -0.097252  -0.050976   5.058287   0.329885   0.297496   0.320719
     4  C    0.223119   0.005583   0.329885   4.914583  -0.090969  -0.041241
     5  C    0.225502   0.007825   0.297496  -0.090969   4.909452  -0.025657
     6  C    0.006798   0.218501   0.320719  -0.041241  -0.025657   4.975311
     7  C    0.000058   0.246241   0.005858   0.000433  -0.000367  -0.069928
     8  H   -0.039675   0.006818  -0.026729   0.390780   0.006643  -0.002242
     9  H   -0.041998  -0.000663  -0.039448   0.405626   0.003912   0.005662
    10  H   -0.041206  -0.000207  -0.037624   0.005421   0.405336   0.005085
    11  H   -0.040653   0.000031  -0.023623   0.004273   0.393526  -0.003944
    12  H    0.009652  -0.051760  -0.038380  -0.020177   0.005866   0.430209
    13  H   -0.000787  -0.039712  -0.043044   0.012921  -0.003437   0.422432
    14  H    0.000007  -0.046155   0.000658   0.000106  -0.000055  -0.009187
    15  H   -0.000071  -0.048448  -0.000097  -0.000081   0.000424  -0.004599
    16  H    0.011293   0.001743   0.434745  -0.065313  -0.038555  -0.039471
    17  C    0.000007  -0.059513   0.000022  -0.000015  -0.000107   0.010588
    18  H   -0.000000   0.006532   0.000056  -0.000022   0.000022  -0.000136
    19  H    0.000001   0.005746  -0.000097  -0.000011   0.000012  -0.000438
    20  C   -0.000000   0.008747  -0.000027   0.000018   0.000012  -0.001052
    21  H    0.000000   0.000004   0.000001  -0.000001   0.000000  -0.000049
    22  H    0.000000  -0.000028   0.000010   0.000000  -0.000000  -0.000019
    23  C   -0.000000   0.000011  -0.000003   0.000001   0.000000   0.000031
    24  C   -0.000000  -0.000080   0.000000   0.000000  -0.000000   0.000001
    25  C    0.000000  -0.000077   0.000000  -0.000000  -0.000000   0.000003
    26  C    0.000000   0.000000  -0.000000  -0.000000  -0.000000   0.000000
    27  H   -0.000000  -0.000001   0.000000   0.000000   0.000000  -0.000000
    28  C   -0.000000   0.000000  -0.000000   0.000000  -0.000000  -0.000000
    29  H   -0.000000  -0.000000   0.000000  -0.000000   0.000000  -0.000000
    30  C   -0.000000  -0.000000  -0.000000   0.000000   0.000000   0.000000
    31  H    0.000000   0.000000   0.000000  -0.000000   0.000000  -0.000000
    32  H    0.000000   0.000000  -0.000000   0.000000  -0.000000  -0.000000
    33  H   -0.000000  -0.000000  -0.000000   0.000000   0.000000   0.000000
               7          8          9         10         11         12
     1  O    0.000058  -0.039675  -0.041998  -0.041206  -0.040653   0.009652
     2  O    0.246241   0.006818  -0.000663  -0.000207   0.000031  -0.051760
     3  C    0.005858  -0.026729  -0.039448  -0.037624  -0.023623  -0.038380
     4  C    0.000433   0.390780   0.405626   0.005421   0.004273  -0.020177
     5  C   -0.000367   0.006643   0.003912   0.405336   0.393526   0.005866
     6  C   -0.069928  -0.002242   0.005662   0.005085  -0.003944   0.430209
     7  C    4.939585  -0.001557   0.000045   0.000017  -0.000030  -0.012449
     8  H   -0.001557   0.589198  -0.051337  -0.003189   0.002617  -0.006656
     9  H    0.000045  -0.051337   0.596676   0.007520  -0.003211   0.001563
    10  H    0.000017  -0.003189   0.007520   0.590353  -0.050229   0.001299
    11  H   -0.000030   0.002617  -0.003211  -0.050229   0.585669  -0.004757
    12  H   -0.012449  -0.006656   0.001563   0.001299  -0.004757   0.567882
    13  H   -0.003295   0.000772  -0.000546  -0.000278   0.001557  -0.052893
    14  H    0.429473   0.000159  -0.000004  -0.000000   0.000007  -0.005863
    15  H    0.428703  -0.000203  -0.000018  -0.000005   0.000023   0.013005
    16  H   -0.000917   0.006444  -0.009211  -0.010489   0.006405   0.008081
    17  C    0.261431   0.000063  -0.000004   0.000001   0.000007   0.000112
    18  H   -0.038477  -0.000012  -0.000002  -0.000000   0.000000   0.000275
    19  H   -0.042791   0.000242  -0.000009  -0.000000   0.000000  -0.000318
    20  C   -0.019239   0.000013  -0.000001  -0.000000   0.000000   0.000136
    21  H   -0.003865  -0.000000   0.000000   0.000000  -0.000000  -0.000001
    22  H   -0.001413   0.000000   0.000000   0.000000   0.000000   0.000007
    23  C    0.001993   0.000003  -0.000000  -0.000000   0.000000   0.000000
    24  C    0.000590   0.000000  -0.000000  -0.000000   0.000000  -0.000002
    25  C    0.000681  -0.000001   0.000000   0.000000  -0.000000   0.000002
    26  C   -0.000069  -0.000000   0.000000   0.000000  -0.000000   0.000000
    27  H    0.000057   0.000000  -0.000000  -0.000000   0.000000  -0.000000
    28  C   -0.000086   0.000000  -0.000000  -0.000000   0.000000  -0.000000
    29  H    0.000067   0.000000  -0.000000  -0.000000   0.000000   0.000000
    30  C    0.000017  -0.000000   0.000000   0.000000  -0.000000  -0.000000
    31  H   -0.000002  -0.000000   0.000000   0.000000  -0.000000   0.000000
    32  H   -0.000002   0.000000  -0.000000  -0.000000   0.000000  -0.000000
    33  H    0.000000  -0.000000  -0.000000  -0.000000   0.000000   0.000000
              13         14         15         16         17         18
     1  O   -0.000787   0.000007  -0.000071   0.011293   0.000007  -0.000000
     2  O   -0.039712  -0.046155  -0.048448   0.001743  -0.059513   0.006532
     3  C   -0.043044   0.000658  -0.000097   0.434745   0.000022   0.000056
     4  C    0.012921   0.000106  -0.000081  -0.065313  -0.000015  -0.000022
     5  C   -0.003437  -0.000055   0.000424  -0.038555  -0.000107   0.000022
     6  C    0.422432  -0.009187  -0.004599  -0.039471   0.010588  -0.000136
     7  C   -0.003295   0.429473   0.428703  -0.000917   0.261431  -0.038477
     8  H    0.000772   0.000159  -0.000203   0.006444   0.000063  -0.000012
     9  H   -0.000546  -0.000004  -0.000018  -0.009211  -0.000004  -0.000002
    10  H   -0.000278  -0.000000  -0.000005  -0.010489   0.000001  -0.000000
    11  H    0.001557   0.000007   0.000023   0.006405   0.000007   0.000000
    12  H   -0.052893  -0.005863   0.013005   0.008081   0.000112   0.000275
    13  H    0.559605   0.013031  -0.005070  -0.009203  -0.000004  -0.000317
    14  H    0.013031   0.579421  -0.059595  -0.000227  -0.046775  -0.008121
    15  H   -0.005070  -0.059595   0.580774   0.000206  -0.050063   0.008190
    16  H   -0.009203  -0.000227   0.000206   0.549813   0.000015   0.000106
    17  C   -0.000004  -0.046775  -0.050063   0.000015   5.327789   0.411096
    18  H   -0.000317  -0.008121   0.008190   0.000106   0.411096   0.510409
    19  H    0.000227   0.007837  -0.007697  -0.000022   0.421193  -0.020509
    20  C    0.000287   0.005243   0.005722   0.000011   0.124763  -0.037604
    21  H   -0.000007  -0.000620   0.001610  -0.000001  -0.045677   0.000712
    22  H   -0.000002   0.001669  -0.000498   0.000000  -0.052392   0.003719
    23  C    0.000012   0.000443   0.000355   0.000000  -0.013295   0.006603
    24  C    0.000001   0.000721  -0.000470  -0.000000  -0.012661  -0.007371
    25  C   -0.000002  -0.000471   0.000717  -0.000000  -0.012463   0.005342
    26  C   -0.000000  -0.000031   0.000011   0.000000   0.001912   0.000186
    27  H    0.000000   0.000045   0.000004  -0.000000  -0.002505   0.000772
    28  C    0.000000   0.000012  -0.000032  -0.000000   0.002035  -0.000374
    29  H   -0.000000   0.000004   0.000048   0.000000  -0.002652   0.000103
    30  C    0.000000   0.000000   0.000000  -0.000000  -0.000453  -0.000031
    31  H   -0.000000  -0.000000   0.000000   0.000000   0.000027   0.000022
    32  H    0.000000   0.000000  -0.000000  -0.000000   0.000029  -0.000001
    33  H    0.000000  -0.000000  -0.000000  -0.000000   0.000001  -0.000001
              19         20         21         22         23         24
     1  O    0.000001  -0.000000   0.000000   0.000000  -0.000000  -0.000000
     2  O    0.005746   0.008747   0.000004  -0.000028   0.000011  -0.000080
     3  C   -0.000097  -0.000027   0.000001   0.000010  -0.000003   0.000000
     4  C   -0.000011   0.000018  -0.000001   0.000000   0.000001   0.000000
     5  C    0.000012   0.000012   0.000000  -0.000000   0.000000  -0.000000
     6  C   -0.000438  -0.001052  -0.000049  -0.000019   0.000031   0.000001
     7  C   -0.042791  -0.019239  -0.003865  -0.001413   0.001993   0.000590
     8  H    0.000242   0.000013  -0.000000   0.000000   0.000003   0.000000
     9  H   -0.000009  -0.000001   0.000000   0.000000  -0.000000  -0.000000
    10  H   -0.000000  -0.000000   0.000000   0.000000  -0.000000  -0.000000
    11  H    0.000000   0.000000  -0.000000   0.000000   0.000000   0.000000
    12  H   -0.000318   0.000136  -0.000001   0.000007   0.000000  -0.000002
    13  H    0.000227   0.000287  -0.000007  -0.000002   0.000012   0.000001
    14  H    0.007837   0.005243  -0.000620   0.001669   0.000443   0.000721
    15  H   -0.007697   0.005722   0.001610  -0.000498   0.000355  -0.000470
    16  H   -0.000022   0.000011  -0.000001   0.000000   0.000000  -0.000000
    17  C    0.421193   0.124763  -0.045677  -0.052392  -0.013295  -0.012661
    18  H   -0.020509  -0.037604   0.000712   0.003719   0.006603  -0.007371
    19  H    0.507400  -0.041928   0.003584   0.001084   0.007374   0.005414
    20  C   -0.041928   5.378605   0.435238   0.440897   0.253528  -0.066667
    21  H    0.003584   0.435238   0.484425  -0.014989  -0.044158  -0.004974
    22  H    0.001084   0.440897  -0.014989   0.483037  -0.045100   0.005924
    23  C    0.007374   0.253528  -0.044158  -0.045100   5.003851   0.469753
    24  C    0.005414  -0.066667  -0.004974   0.005924   0.469753   5.111036
    25  C   -0.007469  -0.066942   0.006243  -0.005806   0.469617  -0.069263
    26  C   -0.000355   0.006462  -0.000175  -0.000439  -0.064912   0.493292
    27  H    0.000095   0.002729   0.000571   0.000321  -0.040036   0.413208
    28  C    0.000225   0.006004  -0.000440  -0.000248  -0.064212  -0.028325
    29  H    0.000803   0.003086   0.000326   0.000440  -0.040417   0.006590
    30  C   -0.000029  -0.001940   0.000139   0.000133  -0.034683  -0.055284
    31  H   -0.000000  -0.000227  -0.000027   0.000010   0.005700  -0.035602
    32  H    0.000023  -0.000236   0.000009  -0.000027   0.005672  -0.000800
    33  H   -0.000001   0.000046  -0.000001  -0.000001   0.000024   0.003486
              25         26         27         28         29         30
     1  O    0.000000   0.000000  -0.000000  -0.000000  -0.000000  -0.000000
     2  O   -0.000077   0.000000  -0.000001   0.000000  -0.000000  -0.000000
     3  C    0.000000  -0.000000   0.000000  -0.000000   0.000000  -0.000000
     4  C   -0.000000  -0.000000   0.000000   0.000000  -0.000000   0.000000
     5  C   -0.000000  -0.000000   0.000000  -0.000000   0.000000   0.000000
     6  C    0.000003   0.000000  -0.000000  -0.000000  -0.000000   0.000000
     7  C    0.000681  -0.000069   0.000057  -0.000086   0.000067   0.000017
     8  H   -0.000001  -0.000000   0.000000   0.000000   0.000000  -0.000000
     9  H    0.000000   0.000000  -0.000000  -0.000000  -0.000000   0.000000
    10  H    0.000000   0.000000  -0.000000  -0.000000  -0.000000   0.000000
    11  H   -0.000000  -0.000000   0.000000   0.000000   0.000000  -0.000000
    12  H    0.000002   0.000000  -0.000000  -0.000000   0.000000  -0.000000
    13  H   -0.000002  -0.000000   0.000000   0.000000  -0.000000   0.000000
    14  H   -0.000471  -0.000031   0.000045   0.000012   0.000004   0.000000
    15  H    0.000717   0.000011   0.000004  -0.000032   0.000048   0.000000
    16  H   -0.000000   0.000000  -0.000000  -0.000000   0.000000  -0.000000
    17  C   -0.012463   0.001912  -0.002505   0.002035  -0.002652  -0.000453
    18  H    0.005342   0.000186   0.000772  -0.000374   0.000103  -0.000031
    19  H   -0.007469  -0.000355   0.000095   0.000225   0.000803  -0.000029
    20  C   -0.066942   0.006462   0.002729   0.006004   0.003086  -0.001940
    21  H    0.006243  -0.000175   0.000571  -0.000440   0.000326   0.000139
    22  H   -0.005806  -0.000439   0.000321  -0.000248   0.000440   0.000133
    23  C    0.469617  -0.064912  -0.040036  -0.064212  -0.040417  -0.034683
    24  C   -0.069263   0.493292   0.413208  -0.028325   0.006590  -0.055284
    25  C    5.112512  -0.028420   0.006638   0.493307   0.413290  -0.055224
    26  C   -0.028420   4.979918  -0.029601  -0.067662  -0.001476   0.499674
    27  H    0.006638  -0.029601   0.460393  -0.001473  -0.000148   0.004352
    28  C    0.493307  -0.067662  -0.001473   4.980015  -0.029490   0.498940
    29  H    0.413290  -0.001476  -0.000148  -0.029490   0.459959   0.004380
    30  C   -0.055224   0.499674   0.004352   0.498940   0.004380   4.994528
    31  H   -0.000825   0.419324  -0.003291   0.004423   0.000049  -0.033224
    32  H   -0.035501   0.004399   0.000049   0.419278  -0.003294  -0.033227
    33  H    0.003477  -0.031638  -0.000176  -0.031574  -0.000176   0.416266
              31         32         33
     1  O    0.000000   0.000000  -0.000000
     2  O    0.000000   0.000000  -0.000000
     3  C    0.000000  -0.000000  -0.000000
     4  C   -0.000000   0.000000   0.000000
     5  C    0.000000  -0.000000   0.000000
     6  C   -0.000000  -0.000000   0.000000
     7  C   -0.000002  -0.000002   0.000000
     8  H   -0.000000   0.000000  -0.000000
     9  H    0.000000  -0.000000  -0.000000
    10  H    0.000000  -0.000000  -0.000000
    11  H   -0.000000   0.000000   0.000000
    12  H    0.000000  -0.000000   0.000000
    13  H   -0.000000   0.000000   0.000000
    14  H   -0.000000   0.000000  -0.000000
    15  H    0.000000  -0.000000  -0.000000
    16  H    0.000000  -0.000000  -0.000000
    17  C    0.000027   0.000029   0.000001
    18  H    0.000022  -0.000001  -0.000001
    19  H   -0.000000   0.000023  -0.000001
    20  C   -0.000227  -0.000236   0.000046
    21  H   -0.000027   0.000009  -0.000001
    22  H    0.000010  -0.000027  -0.000001
    23  C    0.005700   0.005672   0.000024
    24  C   -0.035602  -0.000800   0.003486
    25  C   -0.000825  -0.035501   0.003477
    26  C    0.419324   0.004399  -0.031638
    27  H   -0.003291   0.000049  -0.000176
    28  C    0.004423   0.419278  -0.031574
    29  H    0.000049  -0.003294  -0.000176
    30  C   -0.033224  -0.033227   0.416266
    31  H    0.464778  -0.000172  -0.003325
    32  H   -0.000172   0.464660  -0.003312
    33  H   -0.003325  -0.003312   0.463463
 Mulliken charges:
               1
     1  O   -0.359649
     2  O   -0.317260
     3  C   -0.090440
     4  C   -0.074919
     5  C   -0.096880
     6  C   -0.197376
     7  C   -0.120760
     8  H    0.127852
     9  H    0.125449
    10  H    0.128197
    11  H    0.132334
    12  H    0.155169
    13  H    0.147753
    14  H    0.138272
    15  H    0.137156
    16  H    0.154547
    17  C   -0.262511
    18  H    0.158831
    19  H    0.160416
    20  C   -0.435686
    21  H    0.182122
    22  H    0.183710
    23  C    0.121844
    24  C   -0.228514
    25  C   -0.229365
    26  C   -0.180399
    27  H    0.187998
    28  C   -0.180322
    29  H    0.188509
    30  C   -0.204335
    31  H    0.182363
    32  H    0.182452
    33  H    0.183443
 Sum of Mulliken charges =  -0.00000
 Mulliken charges with hydrogens summed into heavy atoms:
               1
     1  O   -0.359649
     2  O   -0.317260
     3  C    0.064107
     4  C    0.178382
     5  C    0.163651
     6  C    0.105546
     7  C    0.154667
    17  C    0.056737
    20  C   -0.069853
    23  C    0.121844
    24  C   -0.040516
    25  C   -0.040856
    26  C    0.001964
    28  C    0.002130
    30  C   -0.020892
 Electronic spatial extent (au):  <R**2>=           6826.8677
 Charge=             -0.0000 electrons
 Dipole moment (field-independent basis, Debye):
    X=             -0.8402    Y=             -2.4478    Z=              0.1826  Tot=              2.5944
 Quadrupole moment (field-independent basis, Debye-Ang):
   XX=           -101.8683   YY=            -87.2371   ZZ=            -90.0759
   XY=            -13.1057   XZ=             -1.3881   YZ=              1.4247
 Traceless Quadrupole moment (field-independent basis, Debye-Ang):
   XX=             -8.8079   YY=              5.8234   ZZ=              2.9845
   XY=            -13.1057   XZ=             -1.3881   YZ=              1.4247
 Octapole moment (field-independent basis, Debye-Ang**2):
  XXX=            -59.7526  YYY=             -0.4393  ZZZ=             -0.1664  XYY=             -7.1416
  XXY=            -50.9221  XXZ=            -61.6793  XZZ=             19.1670  YZZ=             -0.3435
  YYZ=             -0.4311  XYZ=            -20.3196
 Hexadecapole moment (field-independent basis, Debye-Ang**3):
 XXXX=          -8782.6924 YYYY=           -549.9090 ZZZZ=           -358.3850 XXXY=           -524.1708
 XXXZ=             40.5255 YYYX=            -10.3306 YYYZ=             12.7124 ZZZX=             -5.8140
 ZZZY=              8.8889 XXYY=          -1475.5249 XXZZ=          -1427.9392 YYZZ=           -151.1627
 XXYZ=              8.9961 YYXZ=            -13.4496 ZZXY=             14.7857
 N-N= 9.128133421203D+02 E-N=-3.353772227179D+03  KE= 6.530794165719D+02
 There are a total of      758226 grid points.
 ElSum from          density=      112.0000482408
 ElSum from atomic densities=      112.0001022814
 Hirshfeld populations at iteration   1 (CA, CB, DipXYZ):
               1          2          3          4          5
     1  O    4.111092   4.111092  -0.121486  -0.118753  -0.104620
     2  O    4.087801   4.087801   0.024882  -0.086174   0.133652
     3  C    3.015234   3.015234  -0.008461  -0.029311  -0.015572
     4  C    2.988168   2.988168   0.020273   0.023716   0.003527
     5  C    2.985792   2.985792   0.021068   0.002645   0.007024
     6  C    2.988380   2.988380  -0.044027   0.007042  -0.021535
     7  C    2.988048   2.988048   0.028963   0.017831  -0.030723
     8  H    0.482572   0.482572  -0.091899   0.075278   0.072736
     9  H    0.481432   0.481432   0.011284   0.071176  -0.125228
    10  H    0.480626   0.480626   0.097247  -0.041154  -0.099557
    11  H    0.480060   0.480060   0.022464  -0.091098   0.109180
    12  H    0.484467   0.484467   0.026071   0.037473   0.124731
    13  H    0.483247   0.483247   0.017681  -0.136800  -0.003776
    14  H    0.484736   0.484736  -0.008195  -0.134661   0.003940
    15  H    0.484720   0.484720   0.009975   0.045989   0.126259
    16  H    0.478903   0.478903  -0.011481  -0.051326  -0.140813
    17  C    3.026468   3.026468  -0.002049  -0.021545   0.032059
    18  H    0.484818   0.484818  -0.014445  -0.055275  -0.126527
    19  H    0.484781   0.484781   0.006261   0.138520   0.004467
    20  C    3.023042   3.023042   0.009358   0.007668  -0.012841
    21  H    0.480241   0.480241   0.001200  -0.146004   0.004293
    22  H    0.480205   0.480205   0.022311   0.047810   0.136204
    23  C    3.002154   3.002154   0.068543  -0.024927   0.025553
    24  C    3.027529   3.027529   0.029199  -0.055665  -0.019256
    25  C    3.027408   3.027408   0.040332   0.033564   0.040087
    26  C    3.027245   3.027245  -0.035219  -0.037739  -0.046515
    27  H    0.475135   0.475135   0.051728  -0.146292  -0.049872
    28  C    3.027218   3.027218  -0.023465   0.062455   0.019679
    29  H    0.475066   0.475066   0.080132   0.091874   0.108161
    30  C    3.029715   3.029715  -0.058471   0.024164  -0.025670
    31  H    0.474433   0.474433  -0.085274  -0.091185  -0.110815
    32  H    0.474418   0.474418  -0.056611   0.149331   0.048623
    33  H    0.474872   0.474872  -0.143072   0.058847  -0.063056
       Tot  56.000024  56.000024  -0.115184  -0.372524   0.003797

 Dip from Atomic Chgs             -0.215121  -0.590585   0.068100
         Total Dipole             -0.330306  -0.963110   0.071897

 Hirshfeld charges, spin densities, dipoles, and CM5 charges using IRadAn=      5:
              Q-H        S-H        Dx         Dy         Dz        Q-CM5   
     1  O   -0.222183   0.000000  -0.121486  -0.118753  -0.104620  -0.309536
     2  O   -0.175602   0.000000   0.024882  -0.086174   0.133652  -0.278764
     3  C   -0.030469   0.000000  -0.008461  -0.029311  -0.015572  -0.089643
     4  C    0.023664   0.000000   0.020273   0.023716   0.003527  -0.052571
     5  C    0.028416   0.000000   0.021068   0.002645   0.007024  -0.048446
     6  C    0.023240   0.000000  -0.044027   0.007042  -0.021535  -0.052755
     7  C    0.023903   0.000000   0.028963   0.017831  -0.030723  -0.055669
     8  H    0.034855   0.000000  -0.091899   0.075278   0.072736   0.096708
     9  H    0.037137   0.000000   0.011284   0.071176  -0.125228   0.097150
    10  H    0.038748   0.000000   0.097247  -0.041154  -0.099557   0.098636
    11  H    0.039880   0.000000   0.022464  -0.091098   0.109180   0.100041
    12  H    0.031067   0.000000   0.026071   0.037473   0.124731   0.094887
    13  H    0.033507   0.000000   0.017681  -0.136800  -0.003776   0.095062
    14  H    0.030527   0.000000  -0.008195  -0.134661   0.003940   0.092198
    15  H    0.030560   0.000000   0.009975   0.045989   0.126259   0.092294
    16  H    0.042195   0.000000  -0.011481  -0.051326  -0.140813   0.101661
    17  C   -0.052935   0.000000  -0.002049  -0.021545   0.032059  -0.157550
    18  H    0.030364   0.000000  -0.014445  -0.055275  -0.126527   0.087540
    19  H    0.030437   0.000000   0.006261   0.138520   0.004467   0.087674
    20  C   -0.046084   0.000000   0.009358   0.007668  -0.012841  -0.148715
    21  H    0.039518   0.000000   0.001200  -0.146004   0.004293   0.094897
    22  H    0.039589   0.000000   0.022311   0.047810   0.136204   0.094975
    23  C   -0.004308   0.000000   0.068543  -0.024927   0.025553  -0.020066
    24  C   -0.055057   0.000000   0.029199  -0.055665  -0.019256  -0.107701
    25  C   -0.054817   0.000000   0.040332   0.033564   0.040087  -0.107475
    26  C   -0.054490   0.000000  -0.035219  -0.037739  -0.046515  -0.109081
    27  H    0.049731   0.000000   0.051728  -0.146292  -0.049872   0.105259
    28  C   -0.054436   0.000000  -0.023465   0.062455   0.019679  -0.109028
    29  H    0.049869   0.000000   0.080132   0.091874   0.108161   0.105417
    30  C   -0.059429   0.000000  -0.058471   0.024164  -0.025670  -0.114114
    31  H    0.051134   0.000000  -0.085274  -0.091185  -0.110815   0.105846
    32  H    0.051164   0.000000  -0.056611   0.149331   0.048623   0.105876
    33  H    0.050255   0.000000  -0.143072   0.058847  -0.063056   0.104944
       Tot  -0.000048   0.000000  -0.115184  -0.372524   0.003797  -0.000048
 Hirshfeld charges with hydrogens summed into heavy atoms:
              Q-H       Q-CM5   
     1  O   -0.222183  -0.309536
     2  O   -0.175602  -0.278764
     3  C    0.011726   0.012018
     4  C    0.095656   0.141287
     5  C    0.107045   0.150231
     6  C    0.087814   0.137194
     7  C    0.084990   0.128823
    17  C    0.007866   0.017664
    20  C    0.033024   0.041157
    23  C   -0.004308  -0.020066
    24  C   -0.005327  -0.002442
    25  C   -0.004948  -0.002057
    26  C   -0.003356  -0.003234
    28  C   -0.003272  -0.003152
    30  C   -0.009174  -0.009170
 
 EQQ= 0.000000000000E+00 EQD= 0.000000000000E+00 EDD= 0.691277451101E-02
 EQQ+QD+DD= 0.691277451101E-02
 
 1\1\GINC-X1001C1S5B1N1\SP\RM062X\def2TZVP\C13H18O2\ZHANGX5\25-Dec-2024
 \0\\# m062x def2tzvp scrf=(smd,solvent=n,n-DiMethylFormamide) pop=hirs
 hfeld\\Gaussian job\\0,1\O,0,-5.526535,1.121499,-0.187186\O,0,-1.78383
 9,-0.370074,0.196574\C,0,-4.094904,-0.194754,0.688176\C,0,-4.293488,1.
 316657,0.513745\C,0,-5.525149,-0.271595,0.13803\C,0,-3.05195,-0.783464
 ,-0.232325\C,0,-0.743825,-0.824489,-0.629923\H,0,-3.534175,1.832026,-0
 .096714\H,0,-4.437844,1.872906,1.454933\H,0,-6.290626,-0.521974,0.8909
 17\H,0,-5.670243,-0.913164,-0.747175\H,0,-3.242391,-0.438036,-1.26955\
 H,0,-3.124519,-1.889252,-0.238825\H,0,-0.74211,-1.932079,-0.672302\H,0
 ,-0.893141,-0.464279,-1.667433\H,0,-3.946892,-0.546338,1.717263\C,0,0.
 579159,-0.321391,-0.089191\H,0,0.704731,-0.683287,0.944058\H,0,0.55120
 2,0.779406,-0.044995\C,0,1.762922,-0.776244,-0.946255\H,0,1.781059,-1.
 876793,-0.984452\H,0,1.621484,-0.41699,-1.9778\C,0,3.079634,-0.268705,
 -0.413281\C,0,3.810899,-1.013321,0.521073\C,0,3.573314,0.983314,-0.802
 166\C,0,5.004978,-0.522747,1.050828\H,0,3.439109,-1.992896,0.833273\C,
 0,4.766621,1.477823,-0.274988\H,0,3.014389,1.57517,-1.531962\C,0,5.486
 868,0.725566,0.654316\H,0,5.563107,-1.119562,1.775024\H,0,5.137407,2.4
 54123,-0.593582\H,0,6.421976,1.109721,1.065978\\Version=ES64L-G16RevB.
 01\State=1-A\HF=-656.5926142\RMSD=6.563e-09\Dipole=0.3305725,-0.963039
 7,-0.0718387\Quadrupole=-6.5484278,4.3295316,2.2188962,9.7438024,-1.03
 20517,-1.0591976\PG=C01 [X(C13H18O2)]\\@


 SOME THINGS ARE EASY, THEY ARE ONLY HARD TO DO.
            -- A. EINSTEIN TO J. O. HIRSCHFELDER
 THE ONLY TROUBLE WITH A SURE THING IS THE UNCERTAINTY.
     -- FROM A TEABAG (BELONGING TO W.H.?)
 Job cpu time:       0 days  1 hours  7 minutes 38.3 seconds.
 Elapsed time:       0 days  0 hours  1 minutes  5.3 seconds.
 File lengths (MBytes):  RWF=    276 Int=      0 D2E=      0 Chk=     21 Scr=      1
 Normal termination of Gaussian 16 at Wed Dec 25 17:03:39 2024.
