 Entering Gaussian System, Link 0=/home/xinglong/programs/g16/g16
 Input=/home/xinglong/ozone.com
 Output=/home/xinglong/ozone.log
 Initial command:
 /home/xinglong/programs/g16/l1.exe "/home/xinglong/Gau-106394.inp" -scrdir="/home/xinglong/"
 Entering Link 1 = /home/xinglong/programs/g16/l1.exe PID=    106397.

 Copyright (c) 1988-2017, Gaussian, Inc.  All Rights Reserved.

 This is part of the Gaussian(R) 16 program.  It is based on
 the Gaussian(R) 09 system (copyright 2009, Gaussian, Inc.),
 the Gaussian(R) 03 system (copyright 2003, Gaussian, Inc.),
 the Gaussian(R) 98 system (copyright 1998, Gaussian, Inc.),
 the Gaussian(R) 94 system (copyright 1995, Gaussian, Inc.),
 the Gaussian 92(TM) system (copyright 1992, Gaussian, Inc.),
 the Gaussian 90(TM) system (copyright 1990, Gaussian, Inc.),
 the Gaussian 88(TM) system (copyright 1988, Gaussian, Inc.),
 the Gaussian 86(TM) system (copyright 1986, Carnegie Mellon
 University), and the Gaussian 82(TM) system (copyright 1983,
 Carnegie Mellon University). Gaussian is a federally registered
 trademark of Gaussian, Inc.

 This software contains proprietary and confidential information,
 including trade secrets, belonging to Gaussian, Inc.

 This software is provided under written license and may be
 used, copied, transmitted, or stored only in accord with that
 written license.

 The following legend is applicable only to US Government
 contracts under FAR:

                    RESTRICTED RIGHTS LEGEND

 Use, reproduction and disclosure by the US Government is
 subject to restrictions as set forth in subparagraphs (a)
 and (c) of the Commercial Computer Software - Restricted
 Rights clause in FAR 52.227-19.

 Gaussian, Inc.
 340 Quinnipiac St., Bldg. 40, Wallingford CT 06492


 ---------------------------------------------------------------
 Warning -- This program may not be used in any manner that
 competes with the business of Gaussian, Inc. or will provide
 assistance to any competitor of Gaussian, Inc.  The licensee
 of this program is prohibited from giving any competitor of
 Gaussian, Inc. access to this program.  By using this program,
 the user acknowledges that Gaussian, Inc. is engaged in the
 business of creating and licensing software in the field of
 computational chemistry and represents and warrants to the
 licensee that it is not a competitor of Gaussian, Inc. and that
 it will not use this program in any manner prohibited above.
 ---------------------------------------------------------------


 Cite this work as:
 Gaussian 16, Revision B.01,
 M. J. Frisch, G. W. Trucks, H. B. Schlegel, G. E. Scuseria,
 M. A. Robb, J. R. Cheeseman, G. Scalmani, V. Barone,
 G. A. Petersson, H. Nakatsuji, X. Li, M. Caricato, A. V. Marenich,
 J. Bloino, B. G. Janesko, R. Gomperts, B. Mennucci, H. P. Hratchian,
 J. V. Ortiz, A. F. Izmaylov, J. L. Sonnenberg, D. Williams-Young,
 F. Ding, F. Lipparini, F. Egidi, J. Goings, B. Peng, A. Petrone,
 T. Henderson, D. Ranasinghe, V. G. Zakrzewski, J. Gao, N. Rega,
 G. Zheng, W. Liang, M. Hada, M. Ehara, K. Toyota, R. Fukuda,
 J. Hasegawa, M. Ishida, T. Nakajima, Y. Honda, O. Kitao, H. Nakai,
 T. Vreven, K. Throssell, J. A. Montgomery, Jr., J. E. Peralta,
 F. Ogliaro, M. J. Bearpark, J. J. Heyd, E. N. Brothers, K. N. Kudin,
 V. N. Staroverov, T. A. Keith, R. Kobayashi, J. Normand,
 K. Raghavachari, A. P. Rendell, J. C. Burant, S. S. Iyengar,
 J. Tomasi, M. Cossi, J. M. Millam, M. Klene, C. Adamo, R. Cammi,
 J. W. Ochterski, R. L. Martin, K. Morokuma, O. Farkas,
 J. B. Foresman, and D. J. Fox, Gaussian, Inc., Wallingford CT, 2016.

 ******************************************
 Gaussian 16:  ES64L-G16RevB.01 20-Dec-2017
                 4-Feb-2025
 ******************************************
 %chk=ozone.chk
 %nprocshared=12
 Will use up to   12 processors via shared memory.
 %mem=40GB
 -----------------------------------------------------
 # opt m062x def2svp scrf=(smd,solvent=dichloroethane)
 -----------------------------------------------------
 1/18=20,19=15,26=3,38=1/1,3;
 2/9=110,12=2,17=6,18=5,40=1/2;
 3/5=43,7=101,11=2,25=1,30=1,70=32201,71=1,72=10,74=-55/1,2,3;
 4//1;
 5/5=2,38=5,53=10/2;
 6/7=2,8=2,9=2,10=2,28=1/1;
 7//1,2,3,16;
 1/18=20,19=15,26=3/3(2);
 2/9=110/2;
 99//99;
 2/9=110/2;
 3/5=43,7=101,11=2,25=1,30=1,70=32205,71=1,72=10,74=-55/1,2,3;
 4/5=5,16=3,69=1/1;
 5/5=2,38=5,53=10/2;
 7//1,2,3,16;
 1/18=20,19=15,26=3/3(-5);
 2/9=110/2;
 6/7=2,8=2,9=2,10=2,19=2,28=1/1;
 99/9=1/99;
 ----------------------------------
 Gaussian job with default settings
 ----------------------------------
 Symbolic Z-matrix:
 Charge =  0 Multiplicity = 1
 O                    -0.095    -0.4943    0.
 O                     1.1489    0.2152    0.
 O                    -1.054     0.2791    0.


 GradGradGradGradGradGradGradGradGradGradGradGradGradGradGradGradGradGrad
 Berny optimization.
 Initialization pass.
                           ----------------------------
                           !    Initial Parameters    !
                           ! (Angstroms and Degrees)  !
 --------------------------                            --------------------------
 ! Name  Definition              Value          Derivative Info.                !
 --------------------------------------------------------------------------------
 ! R1    R(1,2)                  1.432          estimate D2E/DX2                !
 ! R2    R(1,3)                  1.232          estimate D2E/DX2                !
 ! A1    A(2,1,3)              111.4153         estimate D2E/DX2                !
 --------------------------------------------------------------------------------
 Trust Radius=3.00D-01 FncErr=1.00D-07 GrdErr=1.00D-06 EigMax=2.50D+02 EigMin=1.00D-04
 Number of steps in this run=     20 maximum allowed number of steps=    100.
 GradGradGradGradGradGradGradGradGradGradGradGradGradGradGradGradGradGrad

                          Input orientation:
 ---------------------------------------------------------------------
 Center     Atomic      Atomic             Coordinates (Angstroms)
 Number     Number       Type             X           Y           Z
 ---------------------------------------------------------------------
      1          8           0       -0.095000   -0.494300    0.000000
      2          8           0        1.148900    0.215200    0.000000
      3          8           0       -1.054000    0.279100    0.000000
 ---------------------------------------------------------------------
                    Distance matrix (angstroms):
                    1          2          3
     1  O    0.000000
     2  O    1.432019   0.000000
     3  O    1.232002   2.203827   0.000000
 Stoichiometry    O3
 Framework group  CS[SG(O3)]
 Deg. of freedom     3
 Full point group                 CS      NOp   2
 Largest Abelian subgroup         CS      NOp   2
 Largest concise Abelian subgroup C1      NOp   1
                         Standard orientation:
 ---------------------------------------------------------------------
 Center     Atomic      Atomic             Coordinates (Angstroms)
 Number     Number       Type             X           Y           Z
 ---------------------------------------------------------------------
      1          8           0       -0.000000    0.503340   -0.000000
      2          8           0        1.087696   -0.428108    0.000000
      3          8           0       -1.087696   -0.075232    0.000000
 ---------------------------------------------------------------------
 Rotational constants (GHZ):          85.7334383          12.9497407          11.2504057
 Standard basis: def2SVP (5D, 7F)
 There are    33 symmetry adapted cartesian basis functions of A'  symmetry.
 There are    12 symmetry adapted cartesian basis functions of A"  symmetry.
 There are    30 symmetry adapted basis functions of A'  symmetry.
 There are    12 symmetry adapted basis functions of A"  symmetry.
    42 basis functions,    75 primitive gaussians,    45 cartesian basis functions
    12 alpha electrons       12 beta electrons
       nuclear repulsion energy        66.5072703487 Hartrees.
 NAtoms=    3 NActive=    3 NUniq=    3 SFac= 1.00D+00 NAtFMM=   60 NAOKFM=F Big=F
 Integral buffers will be    131072 words long.
 Raffenetti 2 integral format.
 Two-electron integral symmetry is turned on.
 ------------------------------------------------------------------------------
 Polarizable Continuum Model (PCM)
 =================================
 Model                : PCM.
 Atomic radii         : SMD-Coulomb.
 Polarization charges : Total charges.
 Charge compensation  : None.
 Solution method      : On-the-fly selection.
 Cavity type          : VdW (van der Waals Surface) (Alpha=1.000).
 Cavity algorithm     : GePol (No added spheres)
                        Default sphere list used, NSphG=    3.
                        Lebedev-Laikov grids with approx.  5.0 points / Ang**2.
                        Smoothing algorithm: York/Karplus (Gamma=1.0000).
                        Polarization charges: spherical gaussians, with
                                              point-specific exponents (IZeta= 3).
                        Self-potential: point-specific (ISelfS= 7).
                        Self-field    : sphere-specific E.n sum rule (ISelfD= 2).
 1st derivatives      : Analytical E(r).r(x)/FMM algorithm (CHGder, D1EAlg=3).
                        Cavity 1st derivative terms included.
 Solvent              : DiChloroEthane, Eps=  10.125000 Eps(inf)=   2.087447
 ------------------------------------------------------------------------------
 Spheres list:
 ISph  on   Nord     Re0    Alpha      Xe            Ye            Ze
    1   O      1    2.1140  1.000     -0.000000      0.503340     -0.000000
    2   O      2    2.1140  1.000      1.087696     -0.428108     -0.000000
    3   O      3    2.1140  1.000     -1.087696     -0.075232      0.000000
 ------------------------------------------------------------------------------
 ------------------------------------------------------------------------------
 Atomic radii for non-electrostatic terms: SMD-CDS.
 ------------------------------------------------------------------------------
 Nuclear repulsion after PCM non-electrostatic terms =       66.5062561642 Hartrees.
 One-electron integrals computed using PRISM.
   2 Symmetry operations used in ECPInt.
 ECPInt:  NShTT=     171 NPrTT=     705 LenC2=     171 LenP2D=     616.
 LDataN:  DoStor=T MaxTD1= 4 Len=   56
 NBasis=    42 RedAO= T EigKep=  1.37D-02  NBF=    30    12
 NBsUse=    42 1.00D-06 EigRej= -1.00D+00 NBFU=    30    12
 ExpMin= 2.55D-01 ExpMax= 2.27D+03 ExpMxC= 3.41D+02 IAcc=3 IRadAn=         5 AccDes= 0.00D+00
 Harris functional with IExCor= 1009 and IRadAn=       5 diagonalized for initial guess.
 HarFok:  IExCor= 1009 AccDes= 0.00D+00 IRadAn=         5 IDoV= 1 UseB2=F ITyADJ=14
 ICtDFT=  3500011 ScaDFX=  1.000000  1.000000  1.000000  1.000000
 FoFCou: FMM=F IPFlag=           0 FMFlag=      100000 FMFlg1=           0
         NFxFlg=           0 DoJE=T BraDBF=F KetDBF=T FulRan=T
         wScrn=  0.000000 ICntrl=       500 IOpCl=  0 I1Cent=   200000004 NGrid=           0
         NMat0=    1 NMatS0=      1 NMatT0=    0 NMatD0=    1 NMtDS0=    0 NMtDT0=    0
 Petite list used in FoFCou.
 Initial guess orbital symmetries:
       Occupied  (A') (A') (A') (A') (A') (A') (A') (A') (A") (A")
                 (A') (A')
       Virtual   (A") (A') (A') (A') (A') (A') (A") (A') (A') (A")
                 (A") (A') (A') (A') (A') (A") (A') (A") (A') (A")
                 (A") (A') (A') (A') (A') (A") (A") (A') (A') (A')
 The electronic state of the initial guess is 1-A'.
 Keep R1 ints in memory in symmetry-blocked form, NReq=10841914.
 Requested convergence on RMS density matrix=1.00D-08 within 128 cycles.
 Requested convergence on MAX density matrix=1.00D-06.
 Requested convergence on             energy=1.00D-06.
 No special actions if energy rises.
 Inv3:  Mode=1 IEnd=      884547.
 Iteration    1 A*A^-1 deviation from unit magnitude is 3.44D-15 for    112.
 Iteration    1 A*A^-1 deviation from orthogonality  is 2.02D-15 for    538    398.
 Iteration    1 A^-1*A deviation from unit magnitude is 2.89D-15 for    238.
 Iteration    1 A^-1*A deviation from orthogonality  is 1.45D-15 for    531    405.
 EnCoef did     1 forward-backward iterations
 EnCoef did     6 forward-backward iterations
 Error on total polarization charges =  0.00022
 SCF Done:  E(RM062X) =  -225.097423518     A.U. after   15 cycles
            NFock= 15  Conv=0.29D-08     -V/T= 2.0058
 SMD-CDS (non-electrostatic) energy       (kcal/mol) =      -0.64
 (included in total energy above)

 **********************************************************************

            Population analysis using the SCF Density.

 **********************************************************************

 Orbital symmetries:
       Occupied  (A') (A') (A') (A') (A') (A') (A') (A") (A') (A')
                 (A') (A")
       Virtual   (A") (A') (A') (A') (A") (A') (A') (A') (A') (A")
                 (A") (A') (A') (A') (A') (A") (A') (A") (A') (A")
                 (A') (A') (A") (A') (A') (A") (A") (A') (A') (A')
 The electronic state is 1-A'.
 Alpha  occ. eigenvalues --  -19.93592 -19.78764 -19.73299  -1.47102  -1.14334
 Alpha  occ. eigenvalues --   -0.89704  -0.67711  -0.66860  -0.66701  -0.43337
 Alpha  occ. eigenvalues --   -0.41960  -0.40447
 Alpha virt. eigenvalues --   -0.15792   0.05377   0.23328   0.74366   0.85572
 Alpha virt. eigenvalues --    0.85965   0.86473   0.90651   0.96209   0.99085
 Alpha virt. eigenvalues --    1.03766   1.08289   1.12720   1.23970   1.30316
 Alpha virt. eigenvalues --    2.08242   2.10484   2.25239   2.34520   2.60418
 Alpha virt. eigenvalues --    2.64093   2.65391   2.66082   2.74046   2.77587
 Alpha virt. eigenvalues --    2.99833   3.26494   3.32613   3.63882   3.85901
          Condensed to atoms (all electrons):
               1          2          3
     1  O    7.543466   0.139444   0.125680
     2  O    0.139444   8.116920  -0.085689
     3  O    0.125680  -0.085689   7.980744
 Mulliken charges:
               1
     1  O    0.191410
     2  O   -0.170675
     3  O   -0.020735
 Sum of Mulliken charges =  -0.00000
 Mulliken charges with hydrogens summed into heavy atoms:
               1
     1  O    0.191410
     2  O   -0.170675
     3  O   -0.020735
 Electronic spatial extent (au):  <R**2>=            115.4567
 Charge=             -0.0000 electrons
 Dipole moment (field-independent basis, Debye):
    X=             -0.7670    Y=              0.9276    Z=              0.0000  Tot=              1.2036
 Quadrupole moment (field-independent basis, Debye-Ang):
   XX=            -17.2009   YY=            -15.6613   ZZ=            -14.5144
   XY=              0.1884   XZ=              0.0000   YZ=             -0.0000
 Traceless Quadrupole moment (field-independent basis, Debye-Ang):
   XX=             -1.4087   YY=              0.1309   ZZ=              1.2778
   XY=              0.1884   XZ=              0.0000   YZ=             -0.0000
 Octapole moment (field-independent basis, Debye-Ang**2):
  XXX=             -1.4602  YYY=              0.9207  ZZZ=              0.0000  XYY=             -0.0907
  XXY=             -0.2491  XXZ=              0.0000  XZZ=             -0.5801  YZZ=              0.3461
  YYZ=              0.0000  XYZ=             -0.0000
 Hexadecapole moment (field-independent basis, Debye-Ang**3):
 XXXX=            -85.8009 YYYY=            -24.0954 ZZZZ=             -9.4634 XXXY=              5.9259
 XXXZ=              0.0000 YYYX=              5.7272 YYYZ=             -0.0000 ZZZX=              0.0000
 ZZZY=             -0.0000 XXYY=            -17.2824 XXZZ=            -15.2967 YYZZ=             -5.4471
 XXYZ=             -0.0000 YYXZ=              0.0000 ZZXY=              2.0182
 N-N= 6.650625616422D+01 E-N=-6.643851915421D+02  KE= 2.237987200622D+02
 Symmetry A'   KE= 2.143802316392D+02
 Symmetry A"   KE= 9.418488423062D+00
   2 Symmetry operations used in ECPInt.
 ECPInt:  NShTT=     171 NPrTT=     705 LenC2=     171 LenP2D=     616.
 LDataN:  DoStor=T MaxTD1= 5 Len=  102
 D1PCM: PCM CHGder 1st derivatives, ID1Alg=3 FixD1E=F DoIter=F DoCFld=F I1PDM=0.
 Calling FoFJK, ICntrl=      2127 FMM=F ISym2X=1 I1Cent= 0 IOpClX= 0 NMat=1 NMatS=1 NMatT=0.
 ***** Axes restored to original set *****
 -------------------------------------------------------------------
 Center     Atomic                   Forces (Hartrees/Bohr)
 Number     Number              X              Y              Z
 -------------------------------------------------------------------
      1        8           0.063478444    0.106612886   -0.000000000
      2        8          -0.090209971   -0.066054037    0.000000000
      3        8           0.026731527   -0.040558849   -0.000000000
 -------------------------------------------------------------------
 Cartesian Forces:  Max     0.106612886 RMS     0.057981213

 GradGradGradGradGradGradGradGradGradGradGradGradGradGradGradGradGradGrad
 Berny optimization.
 FormGI is forming the generalized inverse of G from B-inverse, IUseBI=4.
 Internal  Forces:  Max     0.111094529 RMS     0.072259205
 Search for a local minimum.
 Step number   1 out of a maximum of   20
 All quantities printed in internal units (Hartrees-Bohrs-Radians)
 Mixed Optimization -- RFO/linear search
 Second derivative matrix not updated -- first step.
 The second derivative matrix:
                          R1        R2        A1
           R1           0.40701
           R2           0.00000   0.90257
           A1           0.00000   0.00000   0.25000
 ITU=  0
     Eigenvalues ---    0.25000   0.40701   0.90257
 RFO step:  Lambda=-3.44013626D-02 EMin= 2.50000000D-01
 Linear search not attempted -- first point.
 Iteration  1 RMS(Cart)=  0.10071933 RMS(Int)=  0.03177080
 Iteration  2 RMS(Cart)=  0.02755736 RMS(Int)=  0.00007290
 Iteration  3 RMS(Cart)=  0.00007756 RMS(Int)=  0.00000000
 Iteration  4 RMS(Cart)=  0.00000000 RMS(Int)=  0.00000000
 ClnCor:  largest displacement from symmetrization is 4.44D-16 for atom     2.
 Variable       Old X    -DE/DX   Delta X   Delta X   Delta X     New X
                                 (Linear)    (Quad)   (Total)
    R1        2.70612  -0.11109   0.00000  -0.25168  -0.25168   2.45444
    R2        2.32815  -0.04626   0.00000  -0.04937  -0.04937   2.27877
    A1        1.94456   0.03438   0.00000   0.12090   0.12090   2.06546
         Item               Value     Threshold  Converged?
 Maximum Force            0.111095     0.000450     NO
 RMS     Force            0.072259     0.000300     NO
 Maximum Displacement     0.130011     0.001800     NO
 RMS     Displacement     0.116517     0.001200     NO
 Predicted change in Energy=-1.858358D-02
 GradGradGradGradGradGradGradGradGradGradGradGradGradGradGradGradGradGrad

                          Input orientation:
 ---------------------------------------------------------------------
 Center     Atomic      Atomic             Coordinates (Angstroms)
 Number     Number       Type             X           Y           Z
 ---------------------------------------------------------------------
      1          8           0       -0.052255   -0.425501    0.000000
      2          8           0        1.100970    0.172030   -0.000000
      3          8           0       -1.048815    0.253471    0.000000
 ---------------------------------------------------------------------
                    Distance matrix (angstroms):
                    1          2          3
     1  O    0.000000
     2  O    1.298834   0.000000
     3  O    1.205876   2.151327   0.000000
 Stoichiometry    O3
 Framework group  CS[SG(O3)]
 Deg. of freedom     3
 Full point group                 CS      NOp   2
 Largest Abelian subgroup         CS      NOp   2
 Largest concise Abelian subgroup C1      NOp   1
                         Standard orientation:
 ---------------------------------------------------------------------
 Center     Atomic      Atomic             Coordinates (Angstroms)
 Number     Number       Type             X           Y           Z
 ---------------------------------------------------------------------
      1          8           0       -0.000000    0.428694    0.000000
      2          8           0        1.071848   -0.304867   -0.000000
      3          8           0       -1.071848   -0.123826   -0.000000
 ---------------------------------------------------------------------
 Rotational constants (GHZ):         115.5450064          13.6407192          12.2003958
 Standard basis: def2SVP (5D, 7F)
 There are    33 symmetry adapted cartesian basis functions of A'  symmetry.
 There are    12 symmetry adapted cartesian basis functions of A"  symmetry.
 There are    30 symmetry adapted basis functions of A'  symmetry.
 There are    12 symmetry adapted basis functions of A"  symmetry.
    42 basis functions,    75 primitive gaussians,    45 cartesian basis functions
    12 alpha electrons       12 beta electrons
       nuclear repulsion energy        69.9029906535 Hartrees.
 NAtoms=    3 NActive=    3 NUniq=    3 SFac= 1.00D+00 NAtFMM=   60 NAOKFM=F Big=F
 Integral buffers will be    131072 words long.
 Raffenetti 2 integral format.
 Two-electron integral symmetry is turned on.
 ------------------------------------------------------------------------------
 Polarizable Continuum Model (PCM)
 =================================
 Model                : PCM.
 Atomic radii         : SMD-Coulomb.
 Polarization charges : Total charges.
 Charge compensation  : None.
 Solution method      : On-the-fly selection.
 Cavity type          : VdW (van der Waals Surface) (Alpha=1.000).
 Cavity algorithm     : GePol (No added spheres)
                        Default sphere list used, NSphG=    3.
                        Lebedev-Laikov grids with approx.  5.0 points / Ang**2.
                        Smoothing algorithm: York/Karplus (Gamma=1.0000).
                        Polarization charges: spherical gaussians, with
                                              point-specific exponents (IZeta= 3).
                        Self-potential: point-specific (ISelfS= 7).
                        Self-field    : sphere-specific E.n sum rule (ISelfD= 2).
 1st derivatives      : Analytical E(r).r(x)/FMM algorithm (CHGder, D1EAlg=3).
                        Cavity 1st derivative terms included.
 Solvent              : DiChloroEthane, Eps=  10.125000 Eps(inf)=   2.087447
 ------------------------------------------------------------------------------
 Spheres list:
 ISph  on   Nord     Re0    Alpha      Xe            Ye            Ze
    1   O      1    2.1140  1.000     -0.000000      0.428694      0.000000
    2   O      2    2.1140  1.000      1.071848     -0.304867      0.000000
    3   O      3    2.1140  1.000     -1.071848     -0.123826      0.000000
 ------------------------------------------------------------------------------
 ------------------------------------------------------------------------------
 Atomic radii for non-electrostatic terms: SMD-CDS.
 ------------------------------------------------------------------------------
 Nuclear repulsion after PCM non-electrostatic terms =       69.9019514621 Hartrees.
 One-electron integrals computed using PRISM.
   2 Symmetry operations used in ECPInt.
 ECPInt:  NShTT=     171 NPrTT=     705 LenC2=     172 LenP2D=     619.
 LDataN:  DoStor=T MaxTD1= 4 Len=   56
 NBasis=    42 RedAO= T EigKep=  1.15D-02  NBF=    30    12
 NBsUse=    42 1.00D-06 EigRej= -1.00D+00 NBFU=    30    12
 Initial guess from the checkpoint file:  "ozone.chk"
 B after Tr=    -0.000000   -0.000000    0.000000
         Rot=    0.999433    0.000000   -0.000000   -0.033677 Ang=  -3.86 deg.
 Initial guess orbital symmetries:
       Occupied  (A') (A') (A') (A') (A') (A') (A') (A") (A') (A')
                 (A') (A")
       Virtual   (A") (A') (A') (A') (A") (A') (A') (A') (A') (A")
                 (A") (A') (A') (A') (A') (A") (A') (A") (A') (A")
                 (A') (A') (A") (A') (A') (A") (A") (A') (A') (A')
 ExpMin= 2.55D-01 ExpMax= 2.27D+03 ExpMxC= 3.41D+02 IAcc=3 IRadAn=         5 AccDes= 0.00D+00
 Harris functional with IExCor= 1009 and IRadAn=       5 diagonalized for initial guess.
 HarFok:  IExCor= 1009 AccDes= 0.00D+00 IRadAn=         5 IDoV= 1 UseB2=F ITyADJ=14
 ICtDFT=  3500011 ScaDFX=  1.000000  1.000000  1.000000  1.000000
 FoFCou: FMM=F IPFlag=           0 FMFlag=      100000 FMFlg1=           0
         NFxFlg=           0 DoJE=T BraDBF=F KetDBF=T FulRan=T
         wScrn=  0.000000 ICntrl=       500 IOpCl=  0 I1Cent=   200000004 NGrid=           0
         NMat0=    1 NMatS0=      1 NMatT0=    0 NMatD0=    1 NMtDS0=    0 NMtDT0=    0
 Petite list used in FoFCou.
 Keep R1 ints in memory in symmetry-blocked form, NReq=10841914.
 Requested convergence on RMS density matrix=1.00D-08 within 128 cycles.
 Requested convergence on MAX density matrix=1.00D-06.
 Requested convergence on             energy=1.00D-06.
 No special actions if energy rises.
 Inv3:  Mode=1 IEnd=      852267.
 Iteration    1 A*A^-1 deviation from unit magnitude is 3.44D-15 for    485.
 Iteration    1 A*A^-1 deviation from orthogonality  is 2.15D-15 for    532    191.
 Iteration    1 A^-1*A deviation from unit magnitude is 3.00D-15 for    485.
 Iteration    1 A^-1*A deviation from orthogonality  is 1.32D-15 for    410    327.
 Error on total polarization charges =  0.00021
 SCF Done:  E(RM062X) =  -225.123316416     A.U. after   13 cycles
            NFock= 13  Conv=0.60D-08     -V/T= 2.0046
 SMD-CDS (non-electrostatic) energy       (kcal/mol) =      -0.65
 (included in total energy above)
   2 Symmetry operations used in ECPInt.
 ECPInt:  NShTT=     171 NPrTT=     705 LenC2=     172 LenP2D=     619.
 LDataN:  DoStor=T MaxTD1= 5 Len=  102
 D1PCM: PCM CHGder 1st derivatives, ID1Alg=3 FixD1E=F DoIter=F DoCFld=F I1PDM=0.
 Calling FoFJK, ICntrl=      2127 FMM=F ISym2X=1 I1Cent= 0 IOpClX= 0 NMat=1 NMatS=1 NMatT=0.
 ***** Axes restored to original set *****
 -------------------------------------------------------------------
 Center     Atomic                   Forces (Hartrees/Bohr)
 Number     Number              X              Y              Z
 -------------------------------------------------------------------
      1        8           0.059054453    0.020492097   -0.000000000
      2        8          -0.055781858   -0.026032411    0.000000000
      3        8          -0.003272595    0.005540314    0.000000000
 -------------------------------------------------------------------
 Cartesian Forces:  Max     0.059054453 RMS     0.029322084

 GradGradGradGradGradGradGradGradGradGradGradGradGradGradGradGradGradGrad
 Berny optimization.
 Using GEDIIS/GDIIS optimizer.
 FormGI is forming the generalized inverse of G from B-inverse, IUseBI=4.
 Internal  Forces:  Max     0.061506022 RMS     0.035851181
 Search for a local minimum.
 Step number   2 out of a maximum of   20
 All quantities printed in internal units (Hartrees-Bohrs-Radians)
 Mixed Optimization -- RFO/linear search
 Update second derivatives using D2CorX and points    1    2
 DE= -2.59D-02 DEPred=-1.86D-02 R= 1.39D+00
 TightC=F SS=  1.41D+00  RLast= 2.84D-01 DXNew= 5.0454D-01 8.5064D-01
 Trust test= 1.39D+00 RLast= 2.84D-01 DXMaxT set to 5.05D-01
 The second derivative matrix:
                          R1        R2        A1
           R1           0.19849
           R2          -0.01491   0.97569
           A1          -0.00305  -0.06342   0.30380
 ITU=  1  0
 Use linear search instead of GDIIS.
     Eigenvalues ---    0.19802   0.29807   0.98190
 RFO step:  Lambda=-6.32229158D-03 EMin= 1.98022575D-01
 Quartic linear search produced a step of  0.42131.
 Iteration  1 RMS(Cart)=  0.10791244 RMS(Int)=  0.00826431
 Iteration  2 RMS(Cart)=  0.00583231 RMS(Int)=  0.00000553
 Iteration  3 RMS(Cart)=  0.00000550 RMS(Int)=  0.00000000
 Iteration  4 RMS(Cart)=  0.00000000 RMS(Int)=  0.00000000
 ClnCor:  largest displacement from symmetrization is 2.29D-16 for atom     2.
 Variable       Old X    -DE/DX   Delta X   Delta X   Delta X     New X
                                 (Linear)    (Quad)   (Total)
    R1        2.45444  -0.06151  -0.10604  -0.10594  -0.21198   2.24246
    R2        2.27877   0.00583  -0.02080   0.02393   0.00313   2.28191
    A1        2.06546  -0.00624   0.05094  -0.10070  -0.04976   2.01570
         Item               Value     Threshold  Converged?
 Maximum Force            0.061506     0.000450     NO
 RMS     Force            0.035851     0.000300     NO
 Maximum Displacement     0.157664     0.001800     NO
 RMS     Displacement     0.112478     0.001200     NO
 Predicted change in Energy=-8.538875D-03
 GradGradGradGradGradGradGradGradGradGradGradGradGradGradGradGradGradGrad

                          Input orientation:
 ---------------------------------------------------------------------
 Center     Atomic      Atomic             Coordinates (Angstroms)
 Number     Number       Type             X           Y           Z
 ---------------------------------------------------------------------
      1          8           0       -0.012887   -0.425757    0.000000
      2          8           0        1.017538    0.162787   -0.000000
      3          8           0       -1.004751    0.262970    0.000000
 ---------------------------------------------------------------------
                    Distance matrix (angstroms):
                    1          2          3
     1  O    0.000000
     2  O    1.186659   0.000000
     3  O    1.207534   2.024768   0.000000
 Stoichiometry    O3
 Framework group  CS[SG(O3)]
 Deg. of freedom     3
 Full point group                 CS      NOp   2
 Largest Abelian subgroup         CS      NOp   2
 Largest concise Abelian subgroup C1      NOp   1
                         Standard orientation:
 ---------------------------------------------------------------------
 Center     Atomic      Atomic             Coordinates (Angstroms)
 Number     Number       Type             X           Y           Z
 ---------------------------------------------------------------------
      1          8           0        0.000000    0.425951    0.000000
      2          8           0        1.012195   -0.193419   -0.000000
      3          8           0       -1.012195   -0.232532    0.000000
 ---------------------------------------------------------------------
 Rotational constants (GHZ):         116.1480061          15.4130939          13.6073666
 Standard basis: def2SVP (5D, 7F)
 There are    33 symmetry adapted cartesian basis functions of A'  symmetry.
 There are    12 symmetry adapted cartesian basis functions of A"  symmetry.
 There are    30 symmetry adapted basis functions of A'  symmetry.
 There are    12 symmetry adapted basis functions of A"  symmetry.
    42 basis functions,    75 primitive gaussians,    45 cartesian basis functions
    12 alpha electrons       12 beta electrons
       nuclear repulsion energy        73.3133130778 Hartrees.
 NAtoms=    3 NActive=    3 NUniq=    3 SFac= 1.00D+00 NAtFMM=   60 NAOKFM=F Big=F
 Integral buffers will be    131072 words long.
 Raffenetti 2 integral format.
 Two-electron integral symmetry is turned on.
 ------------------------------------------------------------------------------
 Polarizable Continuum Model (PCM)
 =================================
 Model                : PCM.
 Atomic radii         : SMD-Coulomb.
 Polarization charges : Total charges.
 Charge compensation  : None.
 Solution method      : On-the-fly selection.
 Cavity type          : VdW (van der Waals Surface) (Alpha=1.000).
 Cavity algorithm     : GePol (No added spheres)
                        Default sphere list used, NSphG=    3.
                        Lebedev-Laikov grids with approx.  5.0 points / Ang**2.
                        Smoothing algorithm: York/Karplus (Gamma=1.0000).
                        Polarization charges: spherical gaussians, with
                                              point-specific exponents (IZeta= 3).
                        Self-potential: point-specific (ISelfS= 7).
                        Self-field    : sphere-specific E.n sum rule (ISelfD= 2).
 1st derivatives      : Analytical E(r).r(x)/FMM algorithm (CHGder, D1EAlg=3).
                        Cavity 1st derivative terms included.
 Solvent              : DiChloroEthane, Eps=  10.125000 Eps(inf)=   2.087447
 ------------------------------------------------------------------------------
 Spheres list:
 ISph  on   Nord     Re0    Alpha      Xe            Ye            Ze
    1   O      1    2.1140  1.000      0.000000      0.425951      0.000000
    2   O      2    2.1140  1.000      1.012195     -0.193419     -0.000000
    3   O      3    2.1140  1.000     -1.012195     -0.232532      0.000000
 ------------------------------------------------------------------------------
 ------------------------------------------------------------------------------
 Atomic radii for non-electrostatic terms: SMD-CDS.
 ------------------------------------------------------------------------------
 Nuclear repulsion after PCM non-electrostatic terms =       73.3122352553 Hartrees.
 One-electron integrals computed using PRISM.
   2 Symmetry operations used in ECPInt.
 ECPInt:  NShTT=     171 NPrTT=     705 LenC2=     172 LenP2D=     624.
 LDataN:  DoStor=T MaxTD1= 4 Len=   56
 NBasis=    42 RedAO= T EigKep=  9.54D-03  NBF=    30    12
 NBsUse=    42 1.00D-06 EigRej= -1.00D+00 NBFU=    30    12
 Initial guess from the checkpoint file:  "ozone.chk"
 B after Tr=    -0.000000    0.000000   -0.000000
         Rot=    0.998942    0.000000   -0.000000   -0.045991 Ang=  -5.27 deg.
 Initial guess orbital symmetries:
       Occupied  (A') (A') (A') (A') (A') (A') (A") (A') (A') (A')
                 (A') (A")
       Virtual   (A") (A') (A') (A') (A") (A') (A') (A') (A') (A")
                 (A") (A') (A') (A') (A') (A") (A') (A") (A') (A")
                 (A') (A") (A') (A') (A') (A") (A") (A') (A') (A')
 ExpMin= 2.55D-01 ExpMax= 2.27D+03 ExpMxC= 3.41D+02 IAcc=3 IRadAn=         5 AccDes= 0.00D+00
 Harris functional with IExCor= 1009 and IRadAn=       5 diagonalized for initial guess.
 HarFok:  IExCor= 1009 AccDes= 0.00D+00 IRadAn=         5 IDoV= 1 UseB2=F ITyADJ=14
 ICtDFT=  3500011 ScaDFX=  1.000000  1.000000  1.000000  1.000000
 FoFCou: FMM=F IPFlag=           0 FMFlag=      100000 FMFlg1=           0
         NFxFlg=           0 DoJE=T BraDBF=F KetDBF=T FulRan=T
         wScrn=  0.000000 ICntrl=       500 IOpCl=  0 I1Cent=   200000004 NGrid=           0
         NMat0=    1 NMatS0=      1 NMatT0=    0 NMatD0=    1 NMtDS0=    0 NMtDT0=    0
 Petite list used in FoFCou.
 Keep R1 ints in memory in symmetry-blocked form, NReq=10841914.
 Requested convergence on RMS density matrix=1.00D-08 within 128 cycles.
 Requested convergence on MAX density matrix=1.00D-06.
 Requested convergence on             energy=1.00D-06.
 No special actions if energy rises.
 Inv3:  Mode=1 IEnd=      839523.
 Iteration    1 A*A^-1 deviation from unit magnitude is 3.11D-15 for    525.
 Iteration    1 A*A^-1 deviation from orthogonality  is 2.40D-15 for    525    388.
 Iteration    1 A^-1*A deviation from unit magnitude is 2.89D-15 for    525.
 Iteration    1 A^-1*A deviation from orthogonality  is 9.82D-16 for    519    394.
 Error on total polarization charges =  0.00022
 SCF Done:  E(RM062X) =  -225.124467953     A.U. after   12 cycles
            NFock= 12  Conv=0.76D-08     -V/T= 2.0032
 SMD-CDS (non-electrostatic) energy       (kcal/mol) =      -0.68
 (included in total energy above)
   2 Symmetry operations used in ECPInt.
 ECPInt:  NShTT=     171 NPrTT=     705 LenC2=     172 LenP2D=     624.
 LDataN:  DoStor=T MaxTD1= 5 Len=  102
 D1PCM: PCM CHGder 1st derivatives, ID1Alg=3 FixD1E=F DoIter=F DoCFld=F I1PDM=0.
 Calling FoFJK, ICntrl=      2127 FMM=F ISym2X=1 I1Cent= 0 IOpClX= 0 NMat=1 NMatS=1 NMatT=0.
 ***** Axes restored to original set *****
 -------------------------------------------------------------------
 Center     Atomic                   Forces (Hartrees/Bohr)
 Number     Number              X              Y              Z
 -------------------------------------------------------------------
      1        8          -0.022572114   -0.022776122    0.000000000
      2        8           0.062846376    0.015716081   -0.000000000
      3        8          -0.040274262    0.007060042    0.000000000
 -------------------------------------------------------------------
 Cartesian Forces:  Max     0.062846376 RMS     0.027682274

 GradGradGradGradGradGradGradGradGradGradGradGradGradGradGradGradGradGrad
 Berny optimization.
 Using GEDIIS/GDIIS optimizer.
 FormGI is forming the generalized inverse of G from B-inverse, IUseBI=4.
 Internal  Forces:  Max     0.062375873 RMS     0.047633520
 Search for a local minimum.
 Step number   3 out of a maximum of   20
 All quantities printed in internal units (Hartrees-Bohrs-Radians)
 Mixed Optimization -- RFO/linear search
 Update second derivatives using D2CorX and points    1    2    3
 DE= -1.15D-03 DEPred=-8.54D-03 R= 1.35D-01
 Trust test= 1.35D-01 RLast= 2.18D-01 DXMaxT set to 5.05D-01
 The second derivative matrix:
                          R1        R2        A1
           R1           0.55428
           R2           0.16294   1.04756
           A1           0.13857   0.00032   0.32378
 ITU=  0  1  0
 Use linear search instead of GDIIS.
     Eigenvalues ---    0.25234   0.57459   1.09868
 RFO step:  Lambda=-1.85349701D-03 EMin= 2.52342420D-01
 Quartic linear search produced a step of -0.42560.
 Iteration  1 RMS(Cart)=  0.07720034 RMS(Int)=  0.00192238
 Iteration  2 RMS(Cart)=  0.00144615 RMS(Int)=  0.00000138
 Iteration  3 RMS(Cart)=  0.00000170 RMS(Int)=  0.00000000
 Iteration  4 RMS(Cart)=  0.00000000 RMS(Int)=  0.00000000
 ClnCor:  largest displacement from symmetrization is 1.35D-15 for atom     3.
 Variable       Old X    -DE/DX   Delta X   Delta X   Delta X     New X
                                 (Linear)    (Quad)   (Total)
    R1        2.24246   0.06238   0.09022  -0.03060   0.05962   2.30208
    R2        2.28191   0.03710  -0.00133   0.02759   0.02625   2.30816
    A1        2.01570   0.03924   0.02118   0.06451   0.08569   2.10139
         Item               Value     Threshold  Converged?
 Maximum Force            0.062376     0.000450     NO
 RMS     Force            0.047634     0.000300     NO
 Maximum Displacement     0.092160     0.001800     NO
 RMS     Displacement     0.077390     0.001200     NO
 Predicted change in Energy=-4.556766D-03
 GradGradGradGradGradGradGradGradGradGradGradGradGradGradGradGradGradGrad

                          Input orientation:
 ---------------------------------------------------------------------
 Center     Atomic      Atomic             Coordinates (Angstroms)
 Number     Number       Type             X           Y           Z
 ---------------------------------------------------------------------
      1          8           0       -0.018086   -0.403737    0.000000
      2          8           0        1.066307    0.151349   -0.000000
      3          8           0       -1.048320    0.252389    0.000000
 ---------------------------------------------------------------------
                    Distance matrix (angstroms):
                    1          2          3
     1  O    0.000000
     2  O    1.218207   0.000000
     3  O    1.221427   2.117040   0.000000
 Stoichiometry    O3
 Framework group  CS[SG(O3)]
 Deg. of freedom     3
 Full point group                 CS      NOp   2
 Largest Abelian subgroup         CS      NOp   2
 Largest concise Abelian subgroup C1      NOp   1
                         Standard orientation:
 ---------------------------------------------------------------------
 Center     Atomic      Atomic             Coordinates (Angstroms)
 Number     Number       Type             X           Y           Z
 ---------------------------------------------------------------------
      1          8           0        0.000000    0.404141   -0.000000
      2          8           0        1.058515   -0.198831    0.000000
      3          8           0       -1.058515   -0.205309   -0.000000
 ---------------------------------------------------------------------
 Rotational constants (GHZ):         128.9683074          14.0995998          12.7100589
 Standard basis: def2SVP (5D, 7F)
 There are    33 symmetry adapted cartesian basis functions of A'  symmetry.
 There are    12 symmetry adapted cartesian basis functions of A"  symmetry.
 There are    30 symmetry adapted basis functions of A'  symmetry.
 There are    12 symmetry adapted basis functions of A"  symmetry.
    42 basis functions,    75 primitive gaussians,    45 cartesian basis functions
    12 alpha electrons       12 beta electrons
       nuclear repulsion energy        71.5261524337 Hartrees.
 NAtoms=    3 NActive=    3 NUniq=    3 SFac= 1.00D+00 NAtFMM=   60 NAOKFM=F Big=F
 Integral buffers will be    131072 words long.
 Raffenetti 2 integral format.
 Two-electron integral symmetry is turned on.
 ------------------------------------------------------------------------------
 Polarizable Continuum Model (PCM)
 =================================
 Model                : PCM.
 Atomic radii         : SMD-Coulomb.
 Polarization charges : Total charges.
 Charge compensation  : None.
 Solution method      : On-the-fly selection.
 Cavity type          : VdW (van der Waals Surface) (Alpha=1.000).
 Cavity algorithm     : GePol (No added spheres)
                        Default sphere list used, NSphG=    3.
                        Lebedev-Laikov grids with approx.  5.0 points / Ang**2.
                        Smoothing algorithm: York/Karplus (Gamma=1.0000).
                        Polarization charges: spherical gaussians, with
                                              point-specific exponents (IZeta= 3).
                        Self-potential: point-specific (ISelfS= 7).
                        Self-field    : sphere-specific E.n sum rule (ISelfD= 2).
 1st derivatives      : Analytical E(r).r(x)/FMM algorithm (CHGder, D1EAlg=3).
                        Cavity 1st derivative terms included.
 Solvent              : DiChloroEthane, Eps=  10.125000 Eps(inf)=   2.087447
 ------------------------------------------------------------------------------
 Spheres list:
 ISph  on   Nord     Re0    Alpha      Xe            Ye            Ze
    1   O      1    2.1140  1.000     -0.000000      0.404141     -0.000000
    2   O      2    2.1140  1.000      1.058515     -0.198831      0.000000
    3   O      3    2.1140  1.000     -1.058515     -0.205309     -0.000000
 ------------------------------------------------------------------------------
 ------------------------------------------------------------------------------
 Atomic radii for non-electrostatic terms: SMD-CDS.
 ------------------------------------------------------------------------------
 Nuclear repulsion after PCM non-electrostatic terms =       71.5251072133 Hartrees.
 One-electron integrals computed using PRISM.
   2 Symmetry operations used in ECPInt.
 ECPInt:  NShTT=     171 NPrTT=     705 LenC2=     172 LenP2D=     621.
 LDataN:  DoStor=T MaxTD1= 4 Len=   56
 NBasis=    42 RedAO= T EigKep=  1.07D-02  NBF=    30    12
 NBsUse=    42 1.00D-06 EigRej= -1.00D+00 NBFU=    30    12
 Initial guess from the checkpoint file:  "ozone.chk"
 B after Tr=     0.000000    0.000000   -0.000000
         Rot=    0.999974   -0.000000    0.000000    0.007255 Ang=   0.83 deg.
 Initial guess orbital symmetries:
       Occupied  (A') (A') (A') (A') (A') (A') (A") (A') (A') (A')
                 (A") (A')
       Virtual   (A") (A') (A') (A') (A") (A') (A') (A') (A') (A")
                 (A") (A') (A') (A') (A') (A") (A') (A") (A') (A')
                 (A") (A") (A') (A') (A') (A") (A") (A') (A') (A')
 ExpMin= 2.55D-01 ExpMax= 2.27D+03 ExpMxC= 3.41D+02 IAcc=3 IRadAn=         5 AccDes= 0.00D+00
 Harris functional with IExCor= 1009 and IRadAn=       5 diagonalized for initial guess.
 HarFok:  IExCor= 1009 AccDes= 0.00D+00 IRadAn=         5 IDoV= 1 UseB2=F ITyADJ=14
 ICtDFT=  3500011 ScaDFX=  1.000000  1.000000  1.000000  1.000000
 FoFCou: FMM=F IPFlag=           0 FMFlag=      100000 FMFlg1=           0
         NFxFlg=           0 DoJE=T BraDBF=F KetDBF=T FulRan=T
         wScrn=  0.000000 ICntrl=       500 IOpCl=  0 I1Cent=   200000004 NGrid=           0
         NMat0=    1 NMatS0=      1 NMatT0=    0 NMatD0=    1 NMtDS0=    0 NMtDT0=    0
 Petite list used in FoFCou.
 Keep R1 ints in memory in symmetry-blocked form, NReq=10841914.
 Requested convergence on RMS density matrix=1.00D-08 within 128 cycles.
 Requested convergence on MAX density matrix=1.00D-06.
 Requested convergence on             energy=1.00D-06.
 No special actions if energy rises.
 Inv3:  Mode=1 IEnd=      820587.
 Iteration    1 A*A^-1 deviation from unit magnitude is 3.11D-15 for    500.
 Iteration    1 A*A^-1 deviation from orthogonality  is 2.33D-15 for    523    189.
 Iteration    1 A^-1*A deviation from unit magnitude is 2.89D-15 for    500.
 Iteration    1 A^-1*A deviation from orthogonality  is 1.84D-15 for    407    121.
 Error on total polarization charges =  0.00019
 SCF Done:  E(RM062X) =  -225.127747093     A.U. after   12 cycles
            NFock= 12  Conv=0.33D-08     -V/T= 2.0040
 SMD-CDS (non-electrostatic) energy       (kcal/mol) =      -0.66
 (included in total energy above)
   2 Symmetry operations used in ECPInt.
 ECPInt:  NShTT=     171 NPrTT=     705 LenC2=     172 LenP2D=     621.
 LDataN:  DoStor=T MaxTD1= 5 Len=  102
 D1PCM: PCM CHGder 1st derivatives, ID1Alg=3 FixD1E=F DoIter=F DoCFld=F I1PDM=0.
 Calling FoFJK, ICntrl=      2127 FMM=F ISym2X=1 I1Cent= 0 IOpClX= 0 NMat=1 NMatS=1 NMatT=0.
 ***** Axes restored to original set *****
 -------------------------------------------------------------------
 Center     Atomic                   Forces (Hartrees/Bohr)
 Number     Number              X              Y              Z
 -------------------------------------------------------------------
      1        8          -0.003627655   -0.019307107    0.000000000
      2        8           0.002551667    0.010403774   -0.000000000
      3        8           0.001075987    0.008903333    0.000000000
 -------------------------------------------------------------------
 Cartesian Forces:  Max     0.019307107 RMS     0.008035345

 GradGradGradGradGradGradGradGradGradGradGradGradGradGradGradGradGradGrad
 Berny optimization.
 Using GEDIIS/GDIIS optimizer.
 FormGI is forming the generalized inverse of G from B-inverse, IUseBI=4.
 Internal  Forces:  Max     0.018655241 RMS     0.011721970
 Search for a local minimum.
 Step number   4 out of a maximum of   20
 All quantities printed in internal units (Hartrees-Bohrs-Radians)
 Mixed Optimization -- RFO/linear search
 Update second derivatives using D2CorX and points    1    2    3    4
 DE= -3.28D-03 DEPred=-4.56D-03 R= 7.20D-01
 TightC=F SS=  1.41D+00  RLast= 1.08D-01 DXNew= 8.4853D-01 3.2292D-01
 Trust test= 7.20D-01 RLast= 1.08D-01 DXMaxT set to 5.05D-01
 The second derivative matrix:
                          R1        R2        A1
           R1           0.61699
           R2           0.18365   0.92385
           A1           0.16054  -0.02308   0.57102
 ITU=  1  0  1  0
 Use linear search instead of GDIIS.
     Eigenvalues ---    0.39300   0.70351   1.01535
 RFO step:  Lambda=-7.61754855D-04 EMin= 3.93003794D-01
 Quartic linear search produced a step of -0.13374.
 Iteration  1 RMS(Cart)=  0.02515136 RMS(Int)=  0.00040188
 Iteration  2 RMS(Cart)=  0.00042155 RMS(Int)=  0.00000002
 Iteration  3 RMS(Cart)=  0.00000002 RMS(Int)=  0.00000000
 ClnCor:  largest displacement from symmetrization is 9.16D-16 for atom     3.
 Variable       Old X    -DE/DX   Delta X   Delta X   Delta X     New X
                                 (Linear)    (Quad)   (Total)
    R1        2.30208   0.00701  -0.00797   0.02905   0.02107   2.32315
    R2        2.30816   0.00387  -0.00351   0.00215  -0.00136   2.30680
    A1        2.10139  -0.01866  -0.01146  -0.02900  -0.04046   2.06093
         Item               Value     Threshold  Converged?
 Maximum Force            0.018655     0.000450     NO
 RMS     Force            0.011722     0.000300     NO
 Maximum Displacement     0.029791     0.001800     NO
 RMS     Displacement     0.025343     0.001200     NO
 Predicted change in Energy=-4.355054D-04
 GradGradGradGradGradGradGradGradGradGradGradGradGradGradGradGradGradGrad

                          Input orientation:
 ---------------------------------------------------------------------
 Center     Atomic      Atomic             Coordinates (Angstroms)
 Number     Number       Type             X           Y           Z
 ---------------------------------------------------------------------
      1          8           0       -0.022966   -0.419502    0.000000
      2          8           0        1.060807    0.160807   -0.000000
      3          8           0       -1.037941    0.258696    0.000000
 ---------------------------------------------------------------------
                    Distance matrix (angstroms):
                    1          2          3
     1  O    0.000000
     2  O    1.229359   0.000000
     3  O    1.220707   2.101030   0.000000
 Stoichiometry    O3
 Framework group  CS[SG(O3)]
 Deg. of freedom     3
 Full point group                 CS      NOp   2
 Largest Abelian subgroup         CS      NOp   2
 Largest concise Abelian subgroup C1      NOp   1
                         Standard orientation:
 ---------------------------------------------------------------------
 Center     Atomic      Atomic             Coordinates (Angstroms)
 Number     Number       Type             X           Y           Z
 ---------------------------------------------------------------------
      1          8           0       -0.000000    0.420129    0.000000
      2          8           0        1.050481   -0.218473   -0.000000
      3          8           0       -1.050481   -0.201655   -0.000000
 ---------------------------------------------------------------------
 Rotational constants (GHZ):         119.3468144          14.3151911          12.7820352
 Standard basis: def2SVP (5D, 7F)
 There are    33 symmetry adapted cartesian basis functions of A'  symmetry.
 There are    12 symmetry adapted cartesian basis functions of A"  symmetry.
 There are    30 symmetry adapted basis functions of A'  symmetry.
 There are    12 symmetry adapted basis functions of A"  symmetry.
    42 basis functions,    75 primitive gaussians,    45 cartesian basis functions
    12 alpha electrons       12 beta electrons
       nuclear repulsion energy        71.4122192852 Hartrees.
 NAtoms=    3 NActive=    3 NUniq=    3 SFac= 1.00D+00 NAtFMM=   60 NAOKFM=F Big=F
 Integral buffers will be    131072 words long.
 Raffenetti 2 integral format.
 Two-electron integral symmetry is turned on.
 ------------------------------------------------------------------------------
 Polarizable Continuum Model (PCM)
 =================================
 Model                : PCM.
 Atomic radii         : SMD-Coulomb.
 Polarization charges : Total charges.
 Charge compensation  : None.
 Solution method      : On-the-fly selection.
 Cavity type          : VdW (van der Waals Surface) (Alpha=1.000).
 Cavity algorithm     : GePol (No added spheres)
                        Default sphere list used, NSphG=    3.
                        Lebedev-Laikov grids with approx.  5.0 points / Ang**2.
                        Smoothing algorithm: York/Karplus (Gamma=1.0000).
                        Polarization charges: spherical gaussians, with
                                              point-specific exponents (IZeta= 3).
                        Self-potential: point-specific (ISelfS= 7).
                        Self-field    : sphere-specific E.n sum rule (ISelfD= 2).
 1st derivatives      : Analytical E(r).r(x)/FMM algorithm (CHGder, D1EAlg=3).
                        Cavity 1st derivative terms included.
 Solvent              : DiChloroEthane, Eps=  10.125000 Eps(inf)=   2.087447
 ------------------------------------------------------------------------------
 Spheres list:
 ISph  on   Nord     Re0    Alpha      Xe            Ye            Ze
    1   O      1    2.1140  1.000     -0.000000      0.420129      0.000000
    2   O      2    2.1140  1.000      1.050481     -0.218473      0.000000
    3   O      3    2.1140  1.000     -1.050481     -0.201655      0.000000
 ------------------------------------------------------------------------------
 ------------------------------------------------------------------------------
 Atomic radii for non-electrostatic terms: SMD-CDS.
 ------------------------------------------------------------------------------
 Nuclear repulsion after PCM non-electrostatic terms =       71.4111727126 Hartrees.
 One-electron integrals computed using PRISM.
   2 Symmetry operations used in ECPInt.
 ECPInt:  NShTT=     171 NPrTT=     705 LenC2=     172 LenP2D=     620.
 LDataN:  DoStor=T MaxTD1= 4 Len=   56
 NBasis=    42 RedAO= T EigKep=  1.08D-02  NBF=    30    12
 NBsUse=    42 1.00D-06 EigRej= -1.00D+00 NBFU=    30    12
 Initial guess from the checkpoint file:  "ozone.chk"
 B after Tr=     0.000000   -0.000000    0.000000
         Rot=    0.999988    0.000000    0.000000    0.004964 Ang=   0.57 deg.
 Initial guess orbital symmetries:
       Occupied  (A') (A') (A') (A') (A') (A') (A") (A') (A') (A')
                 (A") (A')
       Virtual   (A") (A') (A') (A') (A") (A') (A') (A') (A') (A")
                 (A") (A') (A') (A') (A') (A") (A') (A") (A') (A')
                 (A") (A") (A') (A') (A') (A") (A") (A') (A') (A')
 ExpMin= 2.55D-01 ExpMax= 2.27D+03 ExpMxC= 3.41D+02 IAcc=3 IRadAn=         5 AccDes= 0.00D+00
 Harris functional with IExCor= 1009 and IRadAn=       5 diagonalized for initial guess.
 HarFok:  IExCor= 1009 AccDes= 0.00D+00 IRadAn=         5 IDoV= 1 UseB2=F ITyADJ=14
 ICtDFT=  3500011 ScaDFX=  1.000000  1.000000  1.000000  1.000000
 FoFCou: FMM=F IPFlag=           0 FMFlag=      100000 FMFlg1=           0
         NFxFlg=           0 DoJE=T BraDBF=F KetDBF=T FulRan=T
         wScrn=  0.000000 ICntrl=       500 IOpCl=  0 I1Cent=   200000004 NGrid=           0
         NMat0=    1 NMatS0=      1 NMatT0=    0 NMatD0=    1 NMtDS0=    0 NMtDT0=    0
 Petite list used in FoFCou.
 Keep R1 ints in memory in symmetry-blocked form, NReq=10841914.
 Requested convergence on RMS density matrix=1.00D-08 within 128 cycles.
 Requested convergence on MAX density matrix=1.00D-06.
 Requested convergence on             energy=1.00D-06.
 No special actions if energy rises.
 Inv3:  Mode=1 IEnd=      839523.
 Iteration    1 A*A^-1 deviation from unit magnitude is 2.66D-15 for     66.
 Iteration    1 A*A^-1 deviation from orthogonality  is 1.14D-15 for    498    322.
 Iteration    1 A^-1*A deviation from unit magnitude is 2.44D-15 for    115.
 Iteration    1 A^-1*A deviation from orthogonality  is 1.01D-15 for    521    194.
 Error on total polarization charges =  0.00021
 SCF Done:  E(RM062X) =  -225.128107888     A.U. after   11 cycles
            NFock= 11  Conv=0.91D-08     -V/T= 2.0041
 SMD-CDS (non-electrostatic) energy       (kcal/mol) =      -0.66
 (included in total energy above)
   2 Symmetry operations used in ECPInt.
 ECPInt:  NShTT=     171 NPrTT=     705 LenC2=     172 LenP2D=     620.
 LDataN:  DoStor=T MaxTD1= 5 Len=  102
 D1PCM: PCM CHGder 1st derivatives, ID1Alg=3 FixD1E=F DoIter=F DoCFld=F I1PDM=0.
 Calling FoFJK, ICntrl=      2127 FMM=F ISym2X=1 I1Cent= 0 IOpClX= 0 NMat=1 NMatS=1 NMatT=0.
 ***** Axes restored to original set *****
 -------------------------------------------------------------------
 Center     Atomic                   Forces (Hartrees/Bohr)
 Number     Number              X              Y              Z
 -------------------------------------------------------------------
      1        8           0.006958348    0.001061398    0.000000000
      2        8          -0.002817490   -0.002614754   -0.000000000
      3        8          -0.004140858    0.001553356   -0.000000000
 -------------------------------------------------------------------
 Cartesian Forces:  Max     0.006958348 RMS     0.003052867

 GradGradGradGradGradGradGradGradGradGradGradGradGradGradGradGradGradGrad
 Berny optimization.
 Using GEDIIS/GDIIS optimizer.
 FormGI is forming the generalized inverse of G from B-inverse, IUseBI=4.
 Internal  Forces:  Max     0.004310801 RMS     0.003545774
 Search for a local minimum.
 Step number   5 out of a maximum of   20
 All quantities printed in internal units (Hartrees-Bohrs-Radians)
 Mixed Optimization -- RFO/linear search
 Update second derivatives using D2CorX and points    2    3    4    5
 DE= -3.61D-04 DEPred=-4.36D-04 R= 8.28D-01
 TightC=F SS=  1.41D+00  RLast= 4.56D-02 DXNew= 8.4853D-01 1.3692D-01
 Trust test= 8.28D-01 RLast= 4.56D-02 DXMaxT set to 5.05D-01
 The second derivative matrix:
                          R1        R2        A1
           R1           0.72184
           R2           0.13509   0.80645
           A1           0.10605   0.05407   0.57123
 ITU=  1  1  0  1
 Use linear search instead of GDIIS.
     Eigenvalues ---    0.51555   0.64658   0.93739
 RFO step:  Lambda=-3.44920997D-05 EMin= 5.15547220D-01
 Quartic linear search produced a step of -0.16437.
 Iteration  1 RMS(Cart)=  0.00458893 RMS(Int)=  0.00000789
 Iteration  2 RMS(Cart)=  0.00000575 RMS(Int)=  0.00000000
 Iteration  3 RMS(Cart)=  0.00000000 RMS(Int)=  0.00000000
 ClnCor:  largest displacement from symmetrization is 1.11D-16 for atom     1.
 Variable       Old X    -DE/DX   Delta X   Delta X   Delta X     New X
                                 (Linear)    (Quad)   (Total)
    R1        2.32315  -0.00372  -0.00346  -0.00354  -0.00700   2.31615
    R2        2.30680   0.00431   0.00022   0.00598   0.00620   2.31300
    A1        2.06093   0.00230   0.00665  -0.00194   0.00471   2.06564
         Item               Value     Threshold  Converged?
 Maximum Force            0.004311     0.000450     NO
 RMS     Force            0.003546     0.000300     NO
 Maximum Displacement     0.004754     0.001800     NO
 RMS     Displacement     0.004589     0.001200     NO
 Predicted change in Energy=-3.186398D-05
 GradGradGradGradGradGradGradGradGradGradGradGradGradGradGradGradGradGrad

                          Input orientation:
 ---------------------------------------------------------------------
 Center     Atomic      Atomic             Coordinates (Angstroms)
 Number     Number       Type             X           Y           Z
 ---------------------------------------------------------------------
      1          8           0       -0.020460   -0.417899    0.000000
      2          8           0        1.060817    0.159221   -0.000000
      3          8           0       -1.040456    0.258678    0.000000
 ---------------------------------------------------------------------
                    Distance matrix (angstroms):
                    1          2          3
     1  O    0.000000
     2  O    1.225654   0.000000
     3  O    1.223989   2.103626   0.000000
 Stoichiometry    O3
 Framework group  CS[SG(O3)]
 Deg. of freedom     3
 Full point group                 CS      NOp   2
 Largest Abelian subgroup         CS      NOp   2
 Largest concise Abelian subgroup C1      NOp   1
                         Standard orientation:
 ---------------------------------------------------------------------
 Center     Atomic      Atomic             Coordinates (Angstroms)
 Number     Number       Type             X           Y           Z
 ---------------------------------------------------------------------
      1          8           0       -0.000000    0.418398    0.000000
      2          8           0        1.051812   -0.210823    0.000000
      3          8           0       -1.051812   -0.207575    0.000000
 ---------------------------------------------------------------------
 Rotational constants (GHZ):         120.3278529          14.2800020          12.7650944
 Standard basis: def2SVP (5D, 7F)
 There are    33 symmetry adapted cartesian basis functions of A'  symmetry.
 There are    12 symmetry adapted cartesian basis functions of A"  symmetry.
 There are    30 symmetry adapted basis functions of A'  symmetry.
 There are    12 symmetry adapted basis functions of A"  symmetry.
    42 basis functions,    75 primitive gaussians,    45 cartesian basis functions
    12 alpha electrons       12 beta electrons
       nuclear repulsion energy        71.4012221805 Hartrees.
 NAtoms=    3 NActive=    3 NUniq=    3 SFac= 1.00D+00 NAtFMM=   60 NAOKFM=F Big=F
 Integral buffers will be    131072 words long.
 Raffenetti 2 integral format.
 Two-electron integral symmetry is turned on.
 ------------------------------------------------------------------------------
 Polarizable Continuum Model (PCM)
 =================================
 Model                : PCM.
 Atomic radii         : SMD-Coulomb.
 Polarization charges : Total charges.
 Charge compensation  : None.
 Solution method      : On-the-fly selection.
 Cavity type          : VdW (van der Waals Surface) (Alpha=1.000).
 Cavity algorithm     : GePol (No added spheres)
                        Default sphere list used, NSphG=    3.
                        Lebedev-Laikov grids with approx.  5.0 points / Ang**2.
                        Smoothing algorithm: York/Karplus (Gamma=1.0000).
                        Polarization charges: spherical gaussians, with
                                              point-specific exponents (IZeta= 3).
                        Self-potential: point-specific (ISelfS= 7).
                        Self-field    : sphere-specific E.n sum rule (ISelfD= 2).
 1st derivatives      : Analytical E(r).r(x)/FMM algorithm (CHGder, D1EAlg=3).
                        Cavity 1st derivative terms included.
 Solvent              : DiChloroEthane, Eps=  10.125000 Eps(inf)=   2.087447
 ------------------------------------------------------------------------------
 Spheres list:
 ISph  on   Nord     Re0    Alpha      Xe            Ye            Ze
    1   O      1    2.1140  1.000      0.000000      0.418398      0.000000
    2   O      2    2.1140  1.000      1.051812     -0.210823      0.000000
    3   O      3    2.1140  1.000     -1.051812     -0.207575      0.000000
 ------------------------------------------------------------------------------
 ------------------------------------------------------------------------------
 Atomic radii for non-electrostatic terms: SMD-CDS.
 ------------------------------------------------------------------------------
 Nuclear repulsion after PCM non-electrostatic terms =       71.4001758241 Hartrees.
 One-electron integrals computed using PRISM.
   2 Symmetry operations used in ECPInt.
 ECPInt:  NShTT=     171 NPrTT=     705 LenC2=     172 LenP2D=     620.
 LDataN:  DoStor=T MaxTD1= 4 Len=   56
 NBasis=    42 RedAO= T EigKep=  1.08D-02  NBF=    30    12
 NBsUse=    42 1.00D-06 EigRej= -1.00D+00 NBFU=    30    12
 Initial guess from the checkpoint file:  "ozone.chk"
 B after Tr=     0.000000    0.000000    0.000000
         Rot=    0.999996    0.000000   -0.000000   -0.002886 Ang=  -0.33 deg.
 Initial guess orbital symmetries:
       Occupied  (A') (A') (A') (A') (A') (A') (A") (A') (A') (A')
                 (A") (A')
       Virtual   (A") (A') (A') (A') (A") (A') (A') (A') (A') (A")
                 (A") (A') (A') (A') (A') (A") (A') (A") (A') (A')
                 (A") (A") (A') (A') (A') (A") (A") (A') (A') (A')
 Keep R1 ints in memory in symmetry-blocked form, NReq=10841914.
 Requested convergence on RMS density matrix=1.00D-08 within 128 cycles.
 Requested convergence on MAX density matrix=1.00D-06.
 Requested convergence on             energy=1.00D-06.
 No special actions if energy rises.
 Inv3:  Mode=1 IEnd=      833187.
 Iteration    1 A*A^-1 deviation from unit magnitude is 5.55D-15 for    101.
 Iteration    1 A*A^-1 deviation from orthogonality  is 1.92D-15 for    133    101.
 Iteration    1 A^-1*A deviation from unit magnitude is 4.66D-15 for    101.
 Iteration    1 A^-1*A deviation from orthogonality  is 1.08D-15 for    479     82.
 Error on total polarization charges =  0.00021
 SCF Done:  E(RM062X) =  -225.128143807     A.U. after   10 cycles
            NFock= 10  Conv=0.74D-08     -V/T= 2.0041
 SMD-CDS (non-electrostatic) energy       (kcal/mol) =      -0.66
 (included in total energy above)
   2 Symmetry operations used in ECPInt.
 ECPInt:  NShTT=     171 NPrTT=     705 LenC2=     172 LenP2D=     620.
 LDataN:  DoStor=T MaxTD1= 5 Len=  102
 D1PCM: PCM CHGder 1st derivatives, ID1Alg=3 FixD1E=F DoIter=F DoCFld=F I1PDM=0.
 Calling FoFJK, ICntrl=      2127 FMM=F ISym2X=1 I1Cent= 0 IOpClX= 0 NMat=1 NMatS=1 NMatT=0.
 ***** Axes restored to original set *****
 -------------------------------------------------------------------
 Center     Atomic                   Forces (Hartrees/Bohr)
 Number     Number              X              Y              Z
 -------------------------------------------------------------------
      1        8           0.001308792   -0.000489994   -0.000000000
      2        8          -0.000571462   -0.000153323   -0.000000000
      3        8          -0.000737330    0.000643316   -0.000000000
 -------------------------------------------------------------------
 Cartesian Forces:  Max     0.001308792 RMS     0.000601906

 GradGradGradGradGradGradGradGradGradGradGradGradGradGradGradGradGradGrad
 Berny optimization.
 Using GEDIIS/GDIIS optimizer.
 FormGI is forming the generalized inverse of G from B-inverse, IUseBI=4.
 Internal  Forces:  Max     0.000971020 RMS     0.000675364
 Search for a local minimum.
 Step number   6 out of a maximum of   20
 All quantities printed in internal units (Hartrees-Bohrs-Radians)
 Mixed Optimization -- En-DIIS/RFO-DIIS
 Update second derivatives using D2CorX and points    3    4    5    6
 DE= -3.59D-05 DEPred=-3.19D-05 R= 1.13D+00
 TightC=F SS=  1.41D+00  RLast= 1.05D-02 DXNew= 8.4853D-01 3.1421D-02
 Trust test= 1.13D+00 RLast= 1.05D-02 DXMaxT set to 5.05D-01
 The second derivative matrix:
                          R1        R2        A1
           R1           0.68142
           R2           0.19136   0.70034
           A1           0.09313   0.07138   0.59617
 ITU=  1  1  1  0
 Use linear search instead of GDIIS.
     Eigenvalues ---    0.49433   0.55999   0.92361
 RFO step:  Lambda=-1.28028347D-06 EMin= 4.94333400D-01
 Quartic linear search produced a step of  0.16126.
 Iteration  1 RMS(Cart)=  0.00086644 RMS(Int)=  0.00000022
 Iteration  2 RMS(Cart)=  0.00000018 RMS(Int)=  0.00000000
 ClnCor:  largest displacement from symmetrization is 4.48D-16 for atom     3.
 Variable       Old X    -DE/DX   Delta X   Delta X   Delta X     New X
                                 (Linear)    (Quad)   (Total)
    R1        2.31615  -0.00058  -0.00113  -0.00018  -0.00131   2.31484
    R2        2.31300   0.00097   0.00100   0.00081   0.00181   2.31482
    A1        2.06564  -0.00030   0.00076  -0.00127  -0.00051   2.06514
         Item               Value     Threshold  Converged?
 Maximum Force            0.000971     0.000450     NO
 RMS     Force            0.000675     0.000300     NO
 Maximum Displacement     0.001063     0.001800     YES
 RMS     Displacement     0.000866     0.001200     YES
 Predicted change in Energy=-1.316554D-06
 GradGradGradGradGradGradGradGradGradGradGradGradGradGradGradGradGradGrad

                          Input orientation:
 ---------------------------------------------------------------------
 Center     Atomic      Atomic             Coordinates (Angstroms)
 Number     Number       Type             X           Y           Z
 ---------------------------------------------------------------------
      1          8           0       -0.019898   -0.418149    0.000000
      2          8           0        1.060483    0.159177   -0.000000
      3          8           0       -1.040686    0.258972    0.000000
 ---------------------------------------------------------------------
                    Distance matrix (angstroms):
                    1          2          3
     1  O    0.000000
     2  O    1.224960   0.000000
     3  O    1.224949   2.103538   0.000000
 Stoichiometry    O3
 Framework group  CS[SG(O3)]
 Deg. of freedom     3
 Full point group                 CS      NOp   2
 Largest Abelian subgroup         CS      NOp   2
 Largest concise Abelian subgroup C1      NOp   1
                         Standard orientation:
 ---------------------------------------------------------------------
 Center     Atomic      Atomic             Coordinates (Angstroms)
 Number     Number       Type             X           Y           Z
 ---------------------------------------------------------------------
      1          8           0       -0.000000    0.418620    0.000000
      2          8           0        1.051769   -0.209321    0.000000
      3          8           0       -1.051769   -0.209299    0.000000
 ---------------------------------------------------------------------
 Rotational constants (GHZ):         120.1996877          14.2811979          12.7646060
 Standard basis: def2SVP (5D, 7F)
 There are    33 symmetry adapted cartesian basis functions of A'  symmetry.
 There are    12 symmetry adapted cartesian basis functions of A"  symmetry.
 There are    30 symmetry adapted basis functions of A'  symmetry.
 There are    12 symmetry adapted basis functions of A"  symmetry.
    42 basis functions,    75 primitive gaussians,    45 cartesian basis functions
    12 alpha electrons       12 beta electrons
       nuclear repulsion energy        71.3958360870 Hartrees.
 NAtoms=    3 NActive=    3 NUniq=    3 SFac= 1.00D+00 NAtFMM=   60 NAOKFM=F Big=F
 Integral buffers will be    131072 words long.
 Raffenetti 2 integral format.
 Two-electron integral symmetry is turned on.
 ------------------------------------------------------------------------------
 Polarizable Continuum Model (PCM)
 =================================
 Model                : PCM.
 Atomic radii         : SMD-Coulomb.
 Polarization charges : Total charges.
 Charge compensation  : None.
 Solution method      : On-the-fly selection.
 Cavity type          : VdW (van der Waals Surface) (Alpha=1.000).
 Cavity algorithm     : GePol (No added spheres)
                        Default sphere list used, NSphG=    3.
                        Lebedev-Laikov grids with approx.  5.0 points / Ang**2.
                        Smoothing algorithm: York/Karplus (Gamma=1.0000).
                        Polarization charges: spherical gaussians, with
                                              point-specific exponents (IZeta= 3).
                        Self-potential: point-specific (ISelfS= 7).
                        Self-field    : sphere-specific E.n sum rule (ISelfD= 2).
 1st derivatives      : Analytical E(r).r(x)/FMM algorithm (CHGder, D1EAlg=3).
                        Cavity 1st derivative terms included.
 Solvent              : DiChloroEthane, Eps=  10.125000 Eps(inf)=   2.087447
 ------------------------------------------------------------------------------
 Spheres list:
 ISph  on   Nord     Re0    Alpha      Xe            Ye            Ze
    1   O      1    2.1140  1.000      0.000000      0.418620     -0.000000
    2   O      2    2.1140  1.000      1.051769     -0.209321      0.000000
    3   O      3    2.1140  1.000     -1.051769     -0.209299     -0.000000
 ------------------------------------------------------------------------------
 ------------------------------------------------------------------------------
 Atomic radii for non-electrostatic terms: SMD-CDS.
 ------------------------------------------------------------------------------
 Nuclear repulsion after PCM non-electrostatic terms =       71.3947897263 Hartrees.
 One-electron integrals computed using PRISM.
   2 Symmetry operations used in ECPInt.
 ECPInt:  NShTT=     171 NPrTT=     705 LenC2=     172 LenP2D=     620.
 LDataN:  DoStor=T MaxTD1= 4 Len=   56
 NBasis=    42 RedAO= T EigKep=  1.08D-02  NBF=    30    12
 NBsUse=    42 1.00D-06 EigRej= -1.00D+00 NBFU=    30    12
 Initial guess from the checkpoint file:  "ozone.chk"
 B after Tr=    -0.000000    0.000000    0.000000
         Rot=    1.000000    0.000000   -0.000000   -0.000686 Ang=  -0.08 deg.
 Initial guess orbital symmetries:
       Occupied  (A') (A') (A') (A') (A') (A') (A") (A') (A') (A')
                 (A") (A')
       Virtual   (A") (A') (A') (A') (A") (A') (A') (A') (A') (A")
                 (A") (A') (A') (A') (A') (A") (A') (A") (A') (A')
                 (A") (A") (A') (A') (A') (A") (A") (A') (A') (A')
 Keep R1 ints in memory in symmetry-blocked form, NReq=10841914.
 Requested convergence on RMS density matrix=1.00D-08 within 128 cycles.
 Requested convergence on MAX density matrix=1.00D-06.
 Requested convergence on             energy=1.00D-06.
 No special actions if energy rises.
 Inv3:  Mode=1 IEnd=      826875.
 Iteration    1 A*A^-1 deviation from unit magnitude is 3.33D-15 for    102.
 Iteration    1 A*A^-1 deviation from orthogonality  is 1.60D-15 for    520    389.
 Iteration    1 A^-1*A deviation from unit magnitude is 2.89D-15 for    521.
 Iteration    1 A^-1*A deviation from orthogonality  is 1.63D-15 for    516    192.
 Error on total polarization charges =  0.00021
 SCF Done:  E(RM062X) =  -225.128145164     A.U. after    9 cycles
            NFock=  9  Conv=0.86D-08     -V/T= 2.0041
 SMD-CDS (non-electrostatic) energy       (kcal/mol) =      -0.66
 (included in total energy above)
   2 Symmetry operations used in ECPInt.
 ECPInt:  NShTT=     171 NPrTT=     705 LenC2=     172 LenP2D=     620.
 LDataN:  DoStor=T MaxTD1= 5 Len=  102
 D1PCM: PCM CHGder 1st derivatives, ID1Alg=3 FixD1E=F DoIter=F DoCFld=F I1PDM=0.
 Calling FoFJK, ICntrl=      2127 FMM=F ISym2X=1 I1Cent= 0 IOpClX= 0 NMat=1 NMatS=1 NMatT=0.
 ***** Axes restored to original set *****
 -------------------------------------------------------------------
 Center     Atomic                   Forces (Hartrees/Bohr)
 Number     Number              X              Y              Z
 -------------------------------------------------------------------
      1        8           0.000005289   -0.000075975   -0.000000000
      2        8           0.000014363    0.000034545    0.000000000
      3        8          -0.000019652    0.000041430    0.000000000
 -------------------------------------------------------------------
 Cartesian Forces:  Max     0.000075975 RMS     0.000032150

 GradGradGradGradGradGradGradGradGradGradGradGradGradGradGradGradGradGrad
 Berny optimization.
 Using GEDIIS/GDIIS optimizer.
 FormGI is forming the generalized inverse of G from B-inverse, IUseBI=4.
 Internal  Forces:  Max     0.000054815 RMS     0.000042370
 Search for a local minimum.
 Step number   7 out of a maximum of   20
 All quantities printed in internal units (Hartrees-Bohrs-Radians)
 Mixed Optimization -- En-DIIS/RFO-DIIS
 Swapping is turned off.
 Update second derivatives using D2CorX and points    4    5    6    7
 DE= -1.36D-06 DEPred=-1.32D-06 R= 1.03D+00
 TightC=F SS=  1.41D+00  RLast= 2.29D-03 DXNew= 8.4853D-01 6.8832D-03
 Trust test= 1.03D+00 RLast= 2.29D-03 DXMaxT set to 5.05D-01
 The second derivative matrix:
                          R1        R2        A1
           R1           0.69417
           R2           0.19241   0.67612
           A1           0.09147   0.08568   0.56333
 ITU=  1  1  1  1
     Eigenvalues ---    0.49248   0.51953   0.92160
 En-DIIS/RFO-DIIS/Sim-DIIS IScMMF=       -3 using points:     7    6
 RFO step:  Lambda= 0.00000000D+00.
 DidBck=F Rises=F RFO-DIIS coefs:    1.02206   -0.02206
 Iteration  1 RMS(Cart)=  0.00006820 RMS(Int)=  0.00000000
 Iteration  2 RMS(Cart)=  0.00000000 RMS(Int)=  0.00000000
 ClnCor:  largest displacement from symmetrization is 2.29D-16 for atom     3.
 Variable       Old X    -DE/DX   Delta X   Delta X   Delta X     New X
                                 (Linear)    (Quad)   (Total)
    R1        2.31484   0.00003  -0.00003   0.00007   0.00004   2.31488
    R2        2.31482   0.00004   0.00004   0.00002   0.00006   2.31488
    A1        2.06514  -0.00005  -0.00001  -0.00010  -0.00011   2.06502
         Item               Value     Threshold  Converged?
 Maximum Force            0.000055     0.000450     YES
 RMS     Force            0.000042     0.000300     YES
 Maximum Displacement     0.000092     0.001800     YES
 RMS     Displacement     0.000068     0.001200     YES
 Predicted change in Energy=-4.872961D-09
 Optimization completed.
    -- Stationary point found.
                           ----------------------------
                           !   Optimized Parameters   !
                           ! (Angstroms and Degrees)  !
 --------------------------                            --------------------------
 ! Name  Definition              Value          Derivative Info.                !
 --------------------------------------------------------------------------------
 ! R1    R(1,2)                  1.225          -DE/DX =    0.0                 !
 ! R2    R(1,3)                  1.2249         -DE/DX =    0.0                 !
 ! A1    A(2,1,3)              118.3236         -DE/DX =   -0.0001              !
 --------------------------------------------------------------------------------
 GradGradGradGradGradGradGradGradGradGradGradGradGradGradGradGradGradGrad

                          Input orientation:
 ---------------------------------------------------------------------
 Center     Atomic      Atomic             Coordinates (Angstroms)
 Number     Number       Type             X           Y           Z
 ---------------------------------------------------------------------
      1          8           0       -0.019898   -0.418149    0.000000
      2          8           0        1.060483    0.159177   -0.000000
      3          8           0       -1.040686    0.258972    0.000000
 ---------------------------------------------------------------------
                    Distance matrix (angstroms):
                    1          2          3
     1  O    0.000000
     2  O    1.224960   0.000000
     3  O    1.224949   2.103538   0.000000
 Stoichiometry    O3
 Framework group  CS[SG(O3)]
 Deg. of freedom     3
 Full point group                 CS      NOp   2
 Largest Abelian subgroup         CS      NOp   2
 Largest concise Abelian subgroup C1      NOp   1
                         Standard orientation:
 ---------------------------------------------------------------------
 Center     Atomic      Atomic             Coordinates (Angstroms)
 Number     Number       Type             X           Y           Z
 ---------------------------------------------------------------------
      1          8           0       -0.000000    0.418620    0.000000
      2          8           0        1.051769   -0.209321    0.000000
      3          8           0       -1.051769   -0.209299    0.000000
 ---------------------------------------------------------------------
 Rotational constants (GHZ):         120.1996877          14.2811979          12.7646060

 **********************************************************************

            Population analysis using the SCF Density.

 **********************************************************************

 Orbital symmetries:
       Occupied  (A') (A') (A') (A') (A') (A') (A") (A') (A') (A')
                 (A") (A')
       Virtual   (A") (A') (A') (A') (A") (A') (A') (A') (A') (A")
                 (A") (A') (A') (A') (A') (A") (A') (A") (A') (A')
                 (A") (A") (A') (A') (A') (A") (A") (A') (A') (A')
 The electronic state is 1-A'.
 Alpha  occ. eigenvalues --  -19.94328 -19.74599 -19.74586  -1.53144  -1.23313
 Alpha  occ. eigenvalues --   -0.86304  -0.70991  -0.70282  -0.67697  -0.43465
 Alpha  occ. eigenvalues --   -0.42176  -0.41711
 Alpha virt. eigenvalues --   -0.11966   0.21252   0.30062   0.73021   0.86023
 Alpha virt. eigenvalues --    0.86896   0.87498   0.91308   0.96120   1.00228
 Alpha virt. eigenvalues --    1.03446   1.04319   1.11719   1.23637   1.26653
 Alpha virt. eigenvalues --    2.01361   2.09787   2.19202   2.57231   2.57568
 Alpha virt. eigenvalues --    2.61887   2.63915   2.67414   2.79873   2.95719
 Alpha virt. eigenvalues --    3.18963   3.37506   3.42485   3.82686   3.89720
          Condensed to atoms (all electrons):
               1          2          3
     1  O    7.539853   0.109664   0.109663
     2  O    0.109664   8.112532  -0.101781
     3  O    0.109663  -0.101781   8.112523
 Mulliken charges:
               1
     1  O    0.240820
     2  O   -0.120415
     3  O   -0.120405
 Sum of Mulliken charges =  -0.00000
 Mulliken charges with hydrogens summed into heavy atoms:
               1
     1  O    0.240820
     2  O   -0.120415
     3  O   -0.120405
 Electronic spatial extent (au):  <R**2>=            105.9787
 Charge=             -0.0000 electrons
 Dipole moment (field-independent basis, Debye):
    X=             -0.0001    Y=              0.7684    Z=             -0.0000  Tot=              0.7684
 Quadrupole moment (field-independent basis, Debye-Ang):
   XX=            -17.5084   YY=            -15.6816   ZZ=            -14.2400
   XY=              0.0000   XZ=             -0.0000   YZ=             -0.0000
 Traceless Quadrupole moment (field-independent basis, Debye-Ang):
   XX=             -1.6984   YY=              0.1284   ZZ=              1.5700
   XY=              0.0000   XZ=             -0.0000   YZ=             -0.0000
 Octapole moment (field-independent basis, Debye-Ang**2):
  XXX=             -0.0001  YYY=              0.8340  ZZZ=              0.0000  XYY=             -0.0000
  XXY=             -0.0372  XXZ=              0.0000  XZZ=             -0.0000  YZZ=              0.2576
  YYZ=              0.0000  XYZ=              0.0000
 Hexadecapole moment (field-independent basis, Debye-Ang**3):
 XXXX=            -81.2243 YYYY=            -18.7503 ZZZZ=             -9.1589 XXXY=              0.0004
 XXXZ=             -0.0000 YYYX=              0.0004 YYYZ=              0.0000 ZZZX=             -0.0000
 ZZZY=              0.0000 XXYY=            -16.0919 XXZZ=            -14.4443 YYZZ=             -4.4988
 XXYZ=              0.0000 YYXZ=             -0.0000 ZZXY=              0.0001
 N-N= 7.139478972627D+01 E-N=-6.742008423821D+02  KE= 2.242169330372D+02
 Symmetry A'   KE= 2.147335705024D+02
 Symmetry A"   KE= 9.483362534757D+00
 1\1\GINC-IHP-SPD-E0M137\FOpt\RM062X\def2SVP\O3\XINGLONG\04-Feb-2025\0\
 \# opt m062x def2svp scrf=(smd,solvent=dichloroethane)\\Gaussian job w
 ith default settings\\0,1\O,-0.0198976804,-0.4181487844,0.\O,1.0604834
 504,0.1591767562,0.\O,-1.04068577,0.2589720282,0.\\Version=ES64L-G16Re
 vB.01\State=1-A'\HF=-225.1281452\RMSD=8.632e-09\RMSF=3.215e-05\Dipole=
 -0.0143653,-0.30197,0.\Quadrupole=-1.2596625,0.0924079,1.1672547,0.064
 364,0.,0.\PG=CS [SG(O3)]\\@


 Just remember, when you're over the hill, you begin to pick up speed.
 -- Charles Schulz
 Job cpu time:       0 days  0 hours  2 minutes 34.1 seconds.
 Elapsed time:       0 days  0 hours  0 minutes 13.1 seconds.
 File lengths (MBytes):  RWF=     12 Int=      0 D2E=      0 Chk=      2 Scr=      1
 Normal termination of Gaussian 16 at Tue Feb  4 18:19:27 2025.
