3
ozone.xyz    Empirical formula: O3    Energy(Hartree): -225.128145    
O       -0.0000000000    0.4186200000    0.0000000000
O        1.0517690000   -0.2093210000    0.0000000000
O       -1.0517690000   -0.2092990000    0.0000000000
