 Entering Gaussian System, Link 0=/jet/home/xzhangj/programs/g16/g16
 Input=/jet/home/xzhangj/scratch/ch_1c_meta_c1/ch_1c_meta_c1.com
 Output=/jet/home/xzhangj/scratch/ch_1c_meta_c1/ch_1c_meta_c1.log
 Initial command:
 /jet/home/xzhangj/programs/g16/l1.exe "/ocean/projects/che220035p/xzhangj/scratch/ch_1c_meta_c1/Gau-34775.inp" -scrdir="/ocean/projects/che220035p/xzhangj/scratch/ch_1c_meta_c1/"
 Entering Link 1 = /jet/home/xzhangj/programs/g16/l1.exe PID=     34777.
  
 Copyright (c) 1988-2017, Gaussian, Inc.  All Rights Reserved.
  
 This is part of the Gaussian(R) 16 program.  It is based on
 the Gaussian(R) 09 system (copyright 2009, Gaussian, Inc.),
 the Gaussian(R) 03 system (copyright 2003, Gaussian, Inc.),
 the Gaussian(R) 98 system (copyright 1998, Gaussian, Inc.),
 the Gaussian(R) 94 system (copyright 1995, Gaussian, Inc.),
 the Gaussian 92(TM) system (copyright 1992, Gaussian, Inc.),
 the Gaussian 90(TM) system (copyright 1990, Gaussian, Inc.),
 the Gaussian 88(TM) system (copyright 1988, Gaussian, Inc.),
 the Gaussian 86(TM) system (copyright 1986, Carnegie Mellon
 University), and the Gaussian 82(TM) system (copyright 1983,
 Carnegie Mellon University). Gaussian is a federally registered
 trademark of Gaussian, Inc.
  
 This software contains proprietary and confidential information,
 including trade secrets, belonging to Gaussian, Inc.
  
 This software is provided under written license and may be
 used, copied, transmitted, or stored only in accord with that
 written license.
  
 The following legend is applicable only to US Government
 contracts under FAR:
  
                    RESTRICTED RIGHTS LEGEND
  
 Use, reproduction and disclosure by the US Government is
 subject to restrictions as set forth in subparagraphs (a)
 and (c) of the Commercial Computer Software - Restricted
 Rights clause in FAR 52.227-19.
  
 Gaussian, Inc.
 340 Quinnipiac St., Bldg. 40, Wallingford CT 06492
  
  
 ---------------------------------------------------------------
 Warning -- This program may not be used in any manner that
 competes with the business of Gaussian, Inc. or will provide
 assistance to any competitor of Gaussian, Inc.  The licensee
 of this program is prohibited from giving any competitor of
 Gaussian, Inc. access to this program.  By using this program,
 the user acknowledges that Gaussian, Inc. is engaged in the
 business of creating and licensing software in the field of
 computational chemistry and represents and warrants to the
 licensee that it is not a competitor of Gaussian, Inc. and that
 it will not use this program in any manner prohibited above.
 ---------------------------------------------------------------
  

 Cite this work as:
 Gaussian 16, Revision B.01,
 M. J. Frisch, G. W. Trucks, H. B. Schlegel, G. E. Scuseria, 
 M. A. Robb, J. R. Cheeseman, G. Scalmani, V. Barone, 
 G. A. Petersson, H. Nakatsuji, X. Li, M. Caricato, A. V. Marenich, 
 J. Bloino, B. G. Janesko, R. Gomperts, B. Mennucci, H. P. Hratchian, 
 J. V. Ortiz, A. F. Izmaylov, J. L. Sonnenberg, D. Williams-Young, 
 F. Ding, F. Lipparini, F. Egidi, J. Goings, B. Peng, A. Petrone, 
 T. Henderson, D. Ranasinghe, V. G. Zakrzewski, J. Gao, N. Rega, 
 G. Zheng, W. Liang, M. Hada, M. Ehara, K. Toyota, R. Fukuda, 
 J. Hasegawa, M. Ishida, T. Nakajima, Y. Honda, O. Kitao, H. Nakai, 
 T. Vreven, K. Throssell, J. A. Montgomery, Jr., J. E. Peralta, 
 F. Ogliaro, M. J. Bearpark, J. J. Heyd, E. N. Brothers, K. N. Kudin, 
 V. N. Staroverov, T. A. Keith, R. Kobayashi, J. Normand, 
 K. Raghavachari, A. P. Rendell, J. C. Burant, S. S. Iyengar, 
 J. Tomasi, M. Cossi, J. M. Millam, M. Klene, C. Adamo, R. Cammi, 
 J. W. Ochterski, R. L. Martin, K. Morokuma, O. Farkas, 
 J. B. Foresman, and D. J. Fox, Gaussian, Inc., Wallingford CT, 2016.
 
 ******************************************
 Gaussian 16:  ES64L-G16RevB.01 20-Dec-2017
                 8-Nov-2023 
 ******************************************
 %chk=ch_1c_meta_c1.chk
 %nprocshared=64
 Will use up to   64 processors via shared memory.
 %mem=32GB
 ---------------------------------------------------------
 # opt=(ts,calcfc,noeigentest,maxstep=10) freq mn15 genecp
 ---------------------------------------------------------
 1/5=1,8=10,10=4,11=1,18=20,26=3,38=1/1,3;
 2/9=110,12=2,17=6,18=5,40=1/2;
 3/5=7,11=2,16=1,17=8,25=1,30=1,71=2,74=-73,140=1/1,2,3;
 4//1;
 5/5=2,38=5/2;
 8/6=4,10=90,11=11/1;
 11/6=1,8=1,9=11,15=111,16=1/1,2,10;
 10/6=1,13=1/2;
 6/7=2,8=2,9=2,10=2,28=1/1;
 7/10=1,18=20,25=1/1,2,3,16;
 1/5=1,8=10,10=4,11=1,18=20,26=3/3(2);
 2/9=110/2;
 99//99;
 2/9=110/2;
 3/5=7,6=1,11=2,16=1,17=8,25=1,30=1,71=1,74=-73,82=7/1,2,3;
 4/5=5,16=3,69=1/1;
 5/5=2,38=5/2;
 7//1,2,3,16;
 1/5=1,8=10,11=1,18=20,26=3/3(-5);
 2/9=110/2;
 6/7=2,8=2,9=2,10=2,19=2,28=1/1;
 99/9=1/99;
 ------------
 Gaussian job
 ------------
 Symbolic Z-matrix:
 Charge =  0 Multiplicity = 1
 C                     3.72556  -0.85465  -0.21721 
 C                     4.88575  -1.55805   0.10503 
 C                     6.08093  -1.2988   -0.53623 
 C                     6.14527  -0.30741  -1.50184 
 C                     5.00447   0.39184  -1.84732 
 C                     3.78686   0.11106  -1.23745 
 H                     4.8383   -2.33033   0.858 
 H                     6.96355  -1.86323  -0.27827 
 H                     7.07942  -0.08828  -1.99588 
 H                     5.03615   1.15168  -2.61433 
 C                     2.50597  -1.03744   0.57131 
 C                     2.56567  -1.22734   1.95719 
 C                     1.21939  -0.92178   0.04227 
 H                     3.51011  -1.30353   2.47866 
 H                     1.05168  -0.82578  -1.02621 
 C                     0.31854  -1.12996   2.12975 
 H                    -0.56675  -1.15917   2.76202 
 O                     2.64894   0.7413   -1.66741 
 C                     2.48315   2.1254   -1.34257 
 H                     3.43809   2.57224  -1.04845 
 H                     2.1154    2.6168   -2.24906 
 C                     1.46197   2.21152  -0.23546 
 C                     0.14224   1.86946  -0.51274 
 C                     1.83206   2.47765   1.07673 
 C                    -0.8136    1.71858   0.50609 
 H                    -0.14841   1.69696  -1.54869 
 C                     0.89419   2.4016    2.09514 
 H                     2.85647   2.73845   1.30425 
 C                    -0.40415   2.00567   1.81922 
 H                    -2.06576   2.02171   0.19095 
 H                    -1.1209    1.92988   2.62908 
 N                     1.48372  -1.30996   2.70984 
 N                     0.14406  -0.90935   0.82752 
 Pd                   -1.62257  -0.26657   0.14865 
 O                    -3.92722  -3.3367   -1.055 
 O                    -2.23683  -2.16949  -0.2536 
 O                    -3.2658    2.40945  -0.17822 
 N                    -3.4453    0.19362  -0.51921 
 C                    -4.2222   -0.96158  -0.93143 
 C                    -3.4171   -2.28183  -0.74205 
 C                    -3.94182   1.39595  -0.54551 
 C                    -5.35207   1.64478  -1.02148 
 H                    -5.14571  -1.05139  -0.34372 
 H                    -5.47137   1.28615  -2.042 
 H                    -6.05944   1.11513  -0.38609 
 H                    -5.55499   2.71083  -0.98194 
 H                    -4.50351  -0.8934   -1.99097 
 H                     1.19089   2.62441   3.10978 
 
 Add virtual bond connecting atoms C25        and H30        Dist= 2.51D+00.
 Add virtual bond connecting atoms O37        and H30        Dist= 2.48D+00.

 GradGradGradGradGradGradGradGradGradGradGradGradGradGradGradGradGradGrad
 Berny optimization.
 Initialization pass.
                           ----------------------------
                           !    Initial Parameters    !
                           ! (Angstroms and Degrees)  !
 --------------------------                            --------------------------
 ! Name  Definition              Value          Derivative Info.                !
 --------------------------------------------------------------------------------
 ! R1    R(1,2)                  1.3945         calculate D2E/DX2 analytically  !
 ! R2    R(1,6)                  1.4061         calculate D2E/DX2 analytically  !
 ! R3    R(1,11)                 1.4638         calculate D2E/DX2 analytically  !
 ! R4    R(2,3)                  1.3809         calculate D2E/DX2 analytically  !
 ! R5    R(2,7)                  1.0796         calculate D2E/DX2 analytically  !
 ! R6    R(3,4)                  1.3854         calculate D2E/DX2 analytically  !
 ! R7    R(3,8)                  1.079          calculate D2E/DX2 analytically  !
 ! R8    R(4,5)                  1.3819         calculate D2E/DX2 analytically  !
 ! R9    R(4,9)                  1.0792         calculate D2E/DX2 analytically  !
 ! R10   R(5,6)                  1.3905         calculate D2E/DX2 analytically  !
 ! R11   R(5,10)                 1.0801         calculate D2E/DX2 analytically  !
 ! R12   R(6,18)                 1.37           calculate D2E/DX2 analytically  !
 ! R13   R(11,12)                1.4001         calculate D2E/DX2 analytically  !
 ! R14   R(11,13)                1.3959         calculate D2E/DX2 analytically  !
 ! R15   R(12,14)                1.0815         calculate D2E/DX2 analytically  !
 ! R16   R(12,32)                1.3206         calculate D2E/DX2 analytically  !
 ! R17   R(13,15)                1.0858         calculate D2E/DX2 analytically  !
 ! R18   R(13,33)                1.3316         calculate D2E/DX2 analytically  !
 ! R19   R(16,17)                1.0883         calculate D2E/DX2 analytically  !
 ! R20   R(16,32)                1.314          calculate D2E/DX2 analytically  !
 ! R21   R(16,33)                1.3323         calculate D2E/DX2 analytically  !
 ! R22   R(18,19)                1.4313         calculate D2E/DX2 analytically  !
 ! R23   R(19,20)                1.0946         calculate D2E/DX2 analytically  !
 ! R24   R(19,21)                1.0947         calculate D2E/DX2 analytically  !
 ! R25   R(19,22)                1.5086         calculate D2E/DX2 analytically  !
 ! R26   R(22,23)                1.3912         calculate D2E/DX2 analytically  !
 ! R27   R(22,24)                1.3891         calculate D2E/DX2 analytically  !
 ! R28   R(23,25)                1.4051         calculate D2E/DX2 analytically  !
 ! R29   R(23,26)                1.0897         calculate D2E/DX2 analytically  !
 ! R30   R(24,27)                1.3866         calculate D2E/DX2 analytically  !
 ! R31   R(24,28)                1.0813         calculate D2E/DX2 analytically  !
 ! R32   R(25,29)                1.4051         calculate D2E/DX2 analytically  !
 ! R33   R(25,30)                1.3263         calculate D2E/DX2 analytically  !
 ! R34   R(25,34)                2.1733         calculate D2E/DX2 analytically  !
 ! R35   R(27,29)                1.3851         calculate D2E/DX2 analytically  !
 ! R36   R(27,48)                1.0803         calculate D2E/DX2 analytically  !
 ! R37   R(29,31)                1.0841         calculate D2E/DX2 analytically  !
 ! R38   R(30,37)                1.314          calculate D2E/DX2 analytically  !
 ! R39   R(33,34)                1.9988         calculate D2E/DX2 analytically  !
 ! R40   R(34,36)                2.0397         calculate D2E/DX2 analytically  !
 ! R41   R(34,38)                1.995          calculate D2E/DX2 analytically  !
 ! R42   R(35,40)                1.2128         calculate D2E/DX2 analytically  !
 ! R43   R(36,40)                1.2823         calculate D2E/DX2 analytically  !
 ! R44   R(37,41)                1.2724         calculate D2E/DX2 analytically  !
 ! R45   R(38,39)                1.4519         calculate D2E/DX2 analytically  !
 ! R46   R(38,41)                1.3011         calculate D2E/DX2 analytically  !
 ! R47   R(39,40)                1.5579         calculate D2E/DX2 analytically  !
 ! R48   R(39,43)                1.0983         calculate D2E/DX2 analytically  !
 ! R49   R(39,47)                1.0984         calculate D2E/DX2 analytically  !
 ! R50   R(41,42)                1.5091         calculate D2E/DX2 analytically  !
 ! R51   R(42,44)                1.0883         calculate D2E/DX2 analytically  !
 ! R52   R(42,45)                1.0884         calculate D2E/DX2 analytically  !
 ! R53   R(42,46)                1.0859         calculate D2E/DX2 analytically  !
 ! A1    A(2,1,6)              118.5423         calculate D2E/DX2 analytically  !
 ! A2    A(2,1,11)             120.3793         calculate D2E/DX2 analytically  !
 ! A3    A(6,1,11)             120.86           calculate D2E/DX2 analytically  !
 ! A4    A(1,2,3)              121.2032         calculate D2E/DX2 analytically  !
 ! A5    A(1,2,7)              119.0386         calculate D2E/DX2 analytically  !
 ! A6    A(3,2,7)              119.7491         calculate D2E/DX2 analytically  !
 ! A7    A(2,3,4)              119.8811         calculate D2E/DX2 analytically  !
 ! A8    A(2,3,8)              119.9189         calculate D2E/DX2 analytically  !
 ! A9    A(4,3,8)              120.1981         calculate D2E/DX2 analytically  !
 ! A10   A(3,4,5)              119.8671         calculate D2E/DX2 analytically  !
 ! A11   A(3,4,9)              120.3016         calculate D2E/DX2 analytically  !
 ! A12   A(5,4,9)              119.8254         calculate D2E/DX2 analytically  !
 ! A13   A(4,5,6)              120.7348         calculate D2E/DX2 analytically  !
 ! A14   A(4,5,10)             120.6154         calculate D2E/DX2 analytically  !
 ! A15   A(6,5,10)             118.6334         calculate D2E/DX2 analytically  !
 ! A16   A(1,6,5)              119.6763         calculate D2E/DX2 analytically  !
 ! A17   A(1,6,18)             120.4928         calculate D2E/DX2 analytically  !
 ! A18   A(5,6,18)             119.7885         calculate D2E/DX2 analytically  !
 ! A19   A(1,11,12)            120.9734         calculate D2E/DX2 analytically  !
 ! A20   A(1,11,13)            123.6023         calculate D2E/DX2 analytically  !
 ! A21   A(12,11,13)           115.1939         calculate D2E/DX2 analytically  !
 ! A22   A(11,12,14)           121.6042         calculate D2E/DX2 analytically  !
 ! A23   A(11,12,32)           122.5273         calculate D2E/DX2 analytically  !
 ! A24   A(14,12,32)           115.8645         calculate D2E/DX2 analytically  !
 ! A25   A(11,13,15)           121.5086         calculate D2E/DX2 analytically  !
 ! A26   A(11,13,33)           121.4382         calculate D2E/DX2 analytically  !
 ! A27   A(15,13,33)           117.049          calculate D2E/DX2 analytically  !
 ! A28   A(17,16,32)           117.4636         calculate D2E/DX2 analytically  !
 ! A29   A(17,16,33)           117.7618         calculate D2E/DX2 analytically  !
 ! A30   A(32,16,33)           124.774          calculate D2E/DX2 analytically  !
 ! A31   A(6,18,19)            118.0228         calculate D2E/DX2 analytically  !
 ! A32   A(18,19,20)           110.7743         calculate D2E/DX2 analytically  !
 ! A33   A(18,19,21)           106.5619         calculate D2E/DX2 analytically  !
 ! A34   A(18,19,22)           107.4665         calculate D2E/DX2 analytically  !
 ! A35   A(20,19,21)           109.4103         calculate D2E/DX2 analytically  !
 ! A36   A(20,19,22)           111.7189         calculate D2E/DX2 analytically  !
 ! A37   A(21,19,22)           110.7725         calculate D2E/DX2 analytically  !
 ! A38   A(19,22,23)           118.8032         calculate D2E/DX2 analytically  !
 ! A39   A(19,22,24)           121.5886         calculate D2E/DX2 analytically  !
 ! A40   A(23,22,24)           119.2158         calculate D2E/DX2 analytically  !
 ! A41   A(22,23,25)           121.8139         calculate D2E/DX2 analytically  !
 ! A42   A(22,23,26)           118.7779         calculate D2E/DX2 analytically  !
 ! A43   A(25,23,26)           119.3984         calculate D2E/DX2 analytically  !
 ! A44   A(22,24,27)           120.2055         calculate D2E/DX2 analytically  !
 ! A45   A(22,24,28)           119.8265         calculate D2E/DX2 analytically  !
 ! A46   A(27,24,28)           119.9668         calculate D2E/DX2 analytically  !
 ! A47   A(23,25,29)           117.2225         calculate D2E/DX2 analytically  !
 ! A48   A(23,25,30)           116.4482         calculate D2E/DX2 analytically  !
 ! A49   A(23,25,34)           103.4171         calculate D2E/DX2 analytically  !
 ! A50   A(29,25,30)           116.7735         calculate D2E/DX2 analytically  !
 ! A51   A(29,25,34)           116.6667         calculate D2E/DX2 analytically  !
 ! A52   A(30,25,34)            79.5288         calculate D2E/DX2 analytically  !
 ! A53   A(24,27,29)           120.2241         calculate D2E/DX2 analytically  !
 ! A54   A(24,27,48)           119.5211         calculate D2E/DX2 analytically  !
 ! A55   A(29,27,48)           120.229          calculate D2E/DX2 analytically  !
 ! A56   A(25,29,27)           121.178          calculate D2E/DX2 analytically  !
 ! A57   A(25,29,31)           119.4175         calculate D2E/DX2 analytically  !
 ! A58   A(27,29,31)           119.3984         calculate D2E/DX2 analytically  !
 ! A59   A(12,32,16)           117.7967         calculate D2E/DX2 analytically  !
 ! A60   A(13,33,16)           117.9773         calculate D2E/DX2 analytically  !
 ! A61   A(13,33,34)           121.0961         calculate D2E/DX2 analytically  !
 ! A62   A(16,33,34)           120.0662         calculate D2E/DX2 analytically  !
 ! A63   A(25,34,33)            84.7722         calculate D2E/DX2 analytically  !
 ! A64   A(25,34,38)           100.6287         calculate D2E/DX2 analytically  !
 ! A65   A(33,34,36)            91.899          calculate D2E/DX2 analytically  !
 ! A66   A(36,34,38)            82.7636         calculate D2E/DX2 analytically  !
 ! A67   A(34,36,40)           115.7253         calculate D2E/DX2 analytically  !
 ! A68   A(30,37,41)           109.3451         calculate D2E/DX2 analytically  !
 ! A69   A(34,38,39)           113.6027         calculate D2E/DX2 analytically  !
 ! A70   A(34,38,41)           124.6517         calculate D2E/DX2 analytically  !
 ! A71   A(39,38,41)           121.69           calculate D2E/DX2 analytically  !
 ! A72   A(38,39,40)           111.2989         calculate D2E/DX2 analytically  !
 ! A73   A(38,39,43)           111.2879         calculate D2E/DX2 analytically  !
 ! A74   A(38,39,47)           111.1946         calculate D2E/DX2 analytically  !
 ! A75   A(40,39,43)           107.4685         calculate D2E/DX2 analytically  !
 ! A76   A(40,39,47)           107.5915         calculate D2E/DX2 analytically  !
 ! A77   A(43,39,47)           107.8126         calculate D2E/DX2 analytically  !
 ! A78   A(35,40,36)           124.1692         calculate D2E/DX2 analytically  !
 ! A79   A(35,40,39)           119.2325         calculate D2E/DX2 analytically  !
 ! A80   A(36,40,39)           116.5982         calculate D2E/DX2 analytically  !
 ! A81   A(37,41,38)           121.8345         calculate D2E/DX2 analytically  !
 ! A82   A(37,41,42)           117.1426         calculate D2E/DX2 analytically  !
 ! A83   A(38,41,42)           121.0226         calculate D2E/DX2 analytically  !
 ! A84   A(41,42,44)           110.1134         calculate D2E/DX2 analytically  !
 ! A85   A(41,42,45)           110.0596         calculate D2E/DX2 analytically  !
 ! A86   A(41,42,46)           108.9667         calculate D2E/DX2 analytically  !
 ! A87   A(44,42,45)           108.4111         calculate D2E/DX2 analytically  !
 ! A88   A(44,42,46)           109.7046         calculate D2E/DX2 analytically  !
 ! A89   A(45,42,46)           109.5743         calculate D2E/DX2 analytically  !
 ! A90   L(25,30,37,35,-1)     183.5737         calculate D2E/DX2 analytically  !
 ! A91   L(25,34,36,38,-1)     183.3923         calculate D2E/DX2 analytically  !
 ! A92   L(33,34,38,36,-1)     174.6627         calculate D2E/DX2 analytically  !
 ! A93   L(25,30,37,35,-2)     183.3472         calculate D2E/DX2 analytically  !
 ! A94   L(25,34,36,38,-2)     176.8212         calculate D2E/DX2 analytically  !
 ! A95   L(33,34,38,36,-2)     178.7068         calculate D2E/DX2 analytically  !
 ! D1    D(6,1,2,3)              1.455          calculate D2E/DX2 analytically  !
 ! D2    D(6,1,2,7)           -177.4424         calculate D2E/DX2 analytically  !
 ! D3    D(11,1,2,3)          -173.222          calculate D2E/DX2 analytically  !
 ! D4    D(11,1,2,7)             7.8806         calculate D2E/DX2 analytically  !
 ! D5    D(2,1,6,5)             -3.3939         calculate D2E/DX2 analytically  !
 ! D6    D(2,1,6,18)           174.233          calculate D2E/DX2 analytically  !
 ! D7    D(11,1,6,5)           171.2566         calculate D2E/DX2 analytically  !
 ! D8    D(11,1,6,18)          -11.1166         calculate D2E/DX2 analytically  !
 ! D9    D(2,1,11,12)           36.7231         calculate D2E/DX2 analytically  !
 ! D10   D(2,1,11,13)         -149.0607         calculate D2E/DX2 analytically  !
 ! D11   D(6,1,11,12)         -137.8293         calculate D2E/DX2 analytically  !
 ! D12   D(6,1,11,13)           36.3869         calculate D2E/DX2 analytically  !
 ! D13   D(1,2,3,4)              1.1815         calculate D2E/DX2 analytically  !
 ! D14   D(1,2,3,8)           -179.3125         calculate D2E/DX2 analytically  !
 ! D15   D(7,2,3,4)           -179.9288         calculate D2E/DX2 analytically  !
 ! D16   D(7,2,3,8)             -0.4229         calculate D2E/DX2 analytically  !
 ! D17   D(2,3,4,5)             -1.8766         calculate D2E/DX2 analytically  !
 ! D18   D(2,3,4,9)            179.0096         calculate D2E/DX2 analytically  !
 ! D19   D(8,3,4,5)            178.6189         calculate D2E/DX2 analytically  !
 ! D20   D(8,3,4,9)             -0.495          calculate D2E/DX2 analytically  !
 ! D21   D(3,4,5,6)             -0.0999         calculate D2E/DX2 analytically  !
 ! D22   D(3,4,5,10)          -178.6064         calculate D2E/DX2 analytically  !
 ! D23   D(9,4,5,6)            179.0182         calculate D2E/DX2 analytically  !
 ! D24   D(9,4,5,10)             0.5117         calculate D2E/DX2 analytically  !
 ! D25   D(4,5,6,1)              2.7591         calculate D2E/DX2 analytically  !
 ! D26   D(4,5,6,18)          -174.8847         calculate D2E/DX2 analytically  !
 ! D27   D(10,5,6,1)          -178.7053         calculate D2E/DX2 analytically  !
 ! D28   D(10,5,6,18)            3.651          calculate D2E/DX2 analytically  !
 ! D29   D(1,6,18,19)          109.6665         calculate D2E/DX2 analytically  !
 ! D30   D(5,6,18,19)          -72.7093         calculate D2E/DX2 analytically  !
 ! D31   D(1,11,12,14)          -3.6744         calculate D2E/DX2 analytically  !
 ! D32   D(1,11,12,32)         175.572          calculate D2E/DX2 analytically  !
 ! D33   D(13,11,12,14)       -178.352          calculate D2E/DX2 analytically  !
 ! D34   D(13,11,12,32)          0.8943         calculate D2E/DX2 analytically  !
 ! D35   D(1,11,13,15)           8.8255         calculate D2E/DX2 analytically  !
 ! D36   D(1,11,13,33)        -170.4135         calculate D2E/DX2 analytically  !
 ! D37   D(12,11,13,15)       -176.6539         calculate D2E/DX2 analytically  !
 ! D38   D(12,11,13,33)          4.1071         calculate D2E/DX2 analytically  !
 ! D39   D(11,12,32,16)         -3.8869         calculate D2E/DX2 analytically  !
 ! D40   D(14,12,32,16)        175.3998         calculate D2E/DX2 analytically  !
 ! D41   D(11,13,33,16)         -5.8531         calculate D2E/DX2 analytically  !
 ! D42   D(11,13,33,34)        163.5324         calculate D2E/DX2 analytically  !
 ! D43   D(15,13,33,16)        174.8754         calculate D2E/DX2 analytically  !
 ! D44   D(15,13,33,34)        -15.7392         calculate D2E/DX2 analytically  !
 ! D45   D(17,16,32,12)       -177.5811         calculate D2E/DX2 analytically  !
 ! D46   D(33,16,32,12)          2.1266         calculate D2E/DX2 analytically  !
 ! D47   D(17,16,33,13)       -177.5695         calculate D2E/DX2 analytically  !
 ! D48   D(17,16,33,34)         12.9316         calculate D2E/DX2 analytically  !
 ! D49   D(32,16,33,13)          2.7236         calculate D2E/DX2 analytically  !
 ! D50   D(32,16,33,34)       -166.7753         calculate D2E/DX2 analytically  !
 ! D51   D(6,18,19,20)          17.3502         calculate D2E/DX2 analytically  !
 ! D52   D(6,18,19,21)         136.2735         calculate D2E/DX2 analytically  !
 ! D53   D(6,18,19,22)        -104.945          calculate D2E/DX2 analytically  !
 ! D54   D(18,19,22,23)        -67.6599         calculate D2E/DX2 analytically  !
 ! D55   D(18,19,22,24)        105.0915         calculate D2E/DX2 analytically  !
 ! D56   D(20,19,22,23)        170.6326         calculate D2E/DX2 analytically  !
 ! D57   D(20,19,22,24)        -16.616          calculate D2E/DX2 analytically  !
 ! D58   D(21,19,22,23)         48.3775         calculate D2E/DX2 analytically  !
 ! D59   D(21,19,22,24)       -138.871          calculate D2E/DX2 analytically  !
 ! D60   D(19,22,23,25)        169.6196         calculate D2E/DX2 analytically  !
 ! D61   D(19,22,23,26)         -9.2324         calculate D2E/DX2 analytically  !
 ! D62   D(24,22,23,25)         -3.3068         calculate D2E/DX2 analytically  !
 ! D63   D(24,22,23,26)        177.8412         calculate D2E/DX2 analytically  !
 ! D64   D(19,22,24,27)       -172.696          calculate D2E/DX2 analytically  !
 ! D65   D(19,22,24,28)          6.8994         calculate D2E/DX2 analytically  !
 ! D66   D(23,22,24,27)          0.0263         calculate D2E/DX2 analytically  !
 ! D67   D(23,22,24,28)        179.6217         calculate D2E/DX2 analytically  !
 ! D68   D(22,23,25,29)          3.7127         calculate D2E/DX2 analytically  !
 ! D69   D(22,23,25,30)        148.9675         calculate D2E/DX2 analytically  !
 ! D70   D(22,23,25,34)       -126.197          calculate D2E/DX2 analytically  !
 ! D71   D(26,23,25,29)       -177.4422         calculate D2E/DX2 analytically  !
 ! D72   D(26,23,25,30)        -32.1874         calculate D2E/DX2 analytically  !
 ! D73   D(26,23,25,34)         52.6481         calculate D2E/DX2 analytically  !
 ! D74   D(22,24,27,29)          2.7019         calculate D2E/DX2 analytically  !
 ! D75   D(22,24,27,48)       -179.1407         calculate D2E/DX2 analytically  !
 ! D76   D(28,24,27,29)       -176.893          calculate D2E/DX2 analytically  !
 ! D77   D(28,24,27,48)          1.2644         calculate D2E/DX2 analytically  !
 ! D78   D(23,25,29,27)         -0.9233         calculate D2E/DX2 analytically  !
 ! D79   D(23,25,29,31)        178.178          calculate D2E/DX2 analytically  !
 ! D80   D(30,25,29,27)       -146.0648         calculate D2E/DX2 analytically  !
 ! D81   D(30,25,29,31)         33.0365         calculate D2E/DX2 analytically  !
 ! D82   D(34,25,29,27)        122.4681         calculate D2E/DX2 analytically  !
 ! D83   D(34,25,29,31)        -58.4306         calculate D2E/DX2 analytically  !
 ! D84   D(23,25,36,40)       -107.9411         calculate D2E/DX2 analytically  !
 ! D85   D(29,25,36,40)        123.1553         calculate D2E/DX2 analytically  !
 ! D86   D(30,25,36,40)          7.4491         calculate D2E/DX2 analytically  !
 ! D87   D(23,25,37,41)         95.9382         calculate D2E/DX2 analytically  !
 ! D88   D(29,25,37,41)       -120.6001         calculate D2E/DX2 analytically  !
 ! D89   D(34,25,37,41)         -4.9506         calculate D2E/DX2 analytically  !
 ! D90   D(23,25,34,33)         72.002          calculate D2E/DX2 analytically  !
 ! D91   D(23,25,34,38)       -108.9971         calculate D2E/DX2 analytically  !
 ! D92   D(29,25,34,33)        -58.2434         calculate D2E/DX2 analytically  !
 ! D93   D(29,25,34,38)        120.7574         calculate D2E/DX2 analytically  !
 ! D94   D(30,25,34,33)       -173.0654         calculate D2E/DX2 analytically  !
 ! D95   D(30,25,34,38)          5.9355         calculate D2E/DX2 analytically  !
 ! D96   D(24,27,29,25)         -2.2335         calculate D2E/DX2 analytically  !
 ! D97   D(24,27,29,31)        178.665          calculate D2E/DX2 analytically  !
 ! D98   D(48,27,29,25)        179.6222         calculate D2E/DX2 analytically  !
 ! D99   D(48,27,29,31)          0.5207         calculate D2E/DX2 analytically  !
 ! D100  D(13,33,34,25)        -80.004          calculate D2E/DX2 analytically  !
 ! D101  D(13,33,34,36)         96.7823         calculate D2E/DX2 analytically  !
 ! D102  D(16,33,34,25)         89.1619         calculate D2E/DX2 analytically  !
 ! D103  D(16,33,34,36)        -94.0517         calculate D2E/DX2 analytically  !
 ! D104  D(13,33,38,39)         94.9135         calculate D2E/DX2 analytically  !
 ! D105  D(13,33,38,41)        -88.624          calculate D2E/DX2 analytically  !
 ! D106  D(16,33,38,39)        -92.7852         calculate D2E/DX2 analytically  !
 ! D107  D(16,33,38,41)         83.6772         calculate D2E/DX2 analytically  !
 ! D108  D(33,34,36,40)        179.6593         calculate D2E/DX2 analytically  !
 ! D109  D(38,34,36,40)          0.9525         calculate D2E/DX2 analytically  !
 ! D110  D(25,34,38,39)        176.3721         calculate D2E/DX2 analytically  !
 ! D111  D(25,34,38,41)         -6.3092         calculate D2E/DX2 analytically  !
 ! D112  D(36,34,38,39)         -0.4491         calculate D2E/DX2 analytically  !
 ! D113  D(36,34,38,41)        176.8696         calculate D2E/DX2 analytically  !
 ! D114  D(34,36,40,35)        178.8883         calculate D2E/DX2 analytically  !
 ! D115  D(34,36,40,39)         -1.2041         calculate D2E/DX2 analytically  !
 ! D116  D(30,37,41,38)          0.404          calculate D2E/DX2 analytically  !
 ! D117  D(30,37,41,42)       -179.3852         calculate D2E/DX2 analytically  !
 ! D118  D(34,38,39,40)         -0.0061         calculate D2E/DX2 analytically  !
 ! D119  D(34,38,39,43)        119.841          calculate D2E/DX2 analytically  !
 ! D120  D(34,38,39,47)       -119.9461         calculate D2E/DX2 analytically  !
 ! D121  D(41,38,39,40)       -177.414          calculate D2E/DX2 analytically  !
 ! D122  D(41,38,39,43)        -57.5669         calculate D2E/DX2 analytically  !
 ! D123  D(41,38,39,47)         62.646          calculate D2E/DX2 analytically  !
 ! D124  D(34,38,41,37)          2.5107         calculate D2E/DX2 analytically  !
 ! D125  D(34,38,41,42)       -177.7082         calculate D2E/DX2 analytically  !
 ! D126  D(39,38,41,37)        179.6231         calculate D2E/DX2 analytically  !
 ! D127  D(39,38,41,42)         -0.5958         calculate D2E/DX2 analytically  !
 ! D128  D(38,39,40,35)       -179.2823         calculate D2E/DX2 analytically  !
 ! D129  D(38,39,40,36)          0.8053         calculate D2E/DX2 analytically  !
 ! D130  D(43,39,40,35)         58.6314         calculate D2E/DX2 analytically  !
 ! D131  D(43,39,40,36)       -121.281          calculate D2E/DX2 analytically  !
 ! D132  D(47,39,40,35)        -57.2305         calculate D2E/DX2 analytically  !
 ! D133  D(47,39,40,36)        122.8571         calculate D2E/DX2 analytically  !
 ! D134  D(37,41,42,44)        121.3336         calculate D2E/DX2 analytically  !
 ! D135  D(37,41,42,45)       -119.2082         calculate D2E/DX2 analytically  !
 ! D136  D(37,41,42,46)          0.9662         calculate D2E/DX2 analytically  !
 ! D137  D(38,41,42,44)        -58.4574         calculate D2E/DX2 analytically  !
 ! D138  D(38,41,42,45)         61.0008         calculate D2E/DX2 analytically  !
 ! D139  D(38,41,42,46)       -178.8248         calculate D2E/DX2 analytically  !
 --------------------------------------------------------------------------------
 Trust Radius=1.00D-01 FncErr=1.00D-07 GrdErr=1.00D-06 EigMax=2.50D+02 EigMin=1.00D-04
 Number of steps in this run=    288 maximum allowed number of steps=    288.
 Search for a saddle point of order  1.
 GradGradGradGradGradGradGradGradGradGradGradGradGradGradGradGradGradGrad

                          Input orientation:                          
 ---------------------------------------------------------------------
 Center     Atomic      Atomic             Coordinates (Angstroms)
 Number     Number       Type             X           Y           Z
 ---------------------------------------------------------------------
      1          6           0        3.725560   -0.854649   -0.217208
      2          6           0        4.885749   -1.558052    0.105027
      3          6           0        6.080932   -1.298797   -0.536227
      4          6           0        6.145274   -0.307411   -1.501841
      5          6           0        5.004473    0.391844   -1.847320
      6          6           0        3.786861    0.111065   -1.237449
      7          1           0        4.838296   -2.330332    0.858004
      8          1           0        6.963547   -1.863235   -0.278271
      9          1           0        7.079418   -0.088285   -1.995881
     10          1           0        5.036150    1.151681   -2.614332
     11          6           0        2.505974   -1.037436    0.571314
     12          6           0        2.565670   -1.227338    1.957192
     13          6           0        1.219386   -0.921784    0.042266
     14          1           0        3.510114   -1.303531    2.478662
     15          1           0        1.051683   -0.825776   -1.026210
     16          6           0        0.318539   -1.129958    2.129746
     17          1           0       -0.566752   -1.159165    2.762021
     18          8           0        2.648939    0.741301   -1.667406
     19          6           0        2.483149    2.125401   -1.342570
     20          1           0        3.438094    2.572240   -1.048449
     21          1           0        2.115399    2.616803   -2.249064
     22          6           0        1.461967    2.211518   -0.235457
     23          6           0        0.142239    1.869461   -0.512744
     24          6           0        1.832056    2.477652    1.076731
     25          6           0       -0.813600    1.718584    0.506090
     26          1           0       -0.148409    1.696957   -1.548689
     27          6           0        0.894194    2.401597    2.095144
     28          1           0        2.856474    2.738449    1.304251
     29          6           0       -0.404149    2.005665    1.819225
     30          1           0       -2.065762    2.021708    0.190945
     31          1           0       -1.120902    1.929883    2.629083
     32          7           0        1.483719   -1.309963    2.709837
     33          7           0        0.144064   -0.909348    0.827524
     34         46           0       -1.622566   -0.266572    0.148648
     35          8           0       -3.927221   -3.336699   -1.055001
     36          8           0       -2.236825   -2.169488   -0.253601
     37          8           0       -3.265798    2.409445   -0.178222
     38          7           0       -3.445303    0.193621   -0.519209
     39          6           0       -4.222200   -0.961582   -0.931433
     40          6           0       -3.417102   -2.281826   -0.742050
     41          6           0       -3.941817    1.395953   -0.545514
     42          6           0       -5.352071    1.644776   -1.021478
     43          1           0       -5.145709   -1.051390   -0.343722
     44          1           0       -5.471368    1.286147   -2.042000
     45          1           0       -6.059441    1.115128   -0.386089
     46          1           0       -5.554991    2.710827   -0.981945
     47          1           0       -4.503509   -0.893396   -1.990975
     48          1           0        1.190887    2.624408    3.109776
 ---------------------------------------------------------------------
                    Distance matrix (angstroms):
                    1          2          3          4          5
     1  C    0.000000
     2  C    1.394507   0.000000
     3  C    2.418019   1.380899   0.000000
     4  C    2.793700   2.394270   1.385422   0.000000
     5  C    2.417980   2.761856   2.394994   1.381933   0.000000
     6  C    1.406147   2.407436   2.782478   2.409800   1.390453
     7  H    2.138201   1.079650   2.133563   3.371834   3.841437
     8  H    3.391980   2.134782   1.078953   2.141794   3.374206
     9  H    3.872900   3.374346   2.143106   1.079221   2.134945
    10  H    3.389573   3.841898   3.378599   2.144001   1.080121
    11  C    1.463752   2.480282   3.751705   4.251519   3.759672
    12  C    2.492440   2.987081   4.310373   5.062088   4.800398
    13  C    2.520465   3.721692   4.910338   5.198662   4.429790
    14  H    2.741465   2.755231   3.962157   4.876548   4.880730
    15  H    2.793732   4.063987   5.075153   5.141944   4.216796
    16  C    4.146297   5.014196   6.351464   6.914900   6.331738
    17  H    5.233783   6.078528   7.422240   7.997330   7.395282
    18  O    2.410237   3.664950   4.149716   3.653980   2.388102
    19  C    3.419169   4.629886   5.031835   4.399443   3.101139
    20  H    3.537961   4.526094   4.715071   3.978288   2.801048
    21  H    4.332671   5.535883   5.830196   5.034805   3.668595
    22  C    3.811242   5.103711   5.809269   5.466451   4.296354
    23  C    4.510910   5.884758   6.731009   6.461695   5.254119
    24  C    4.045227   5.153266   5.908988   5.745385   4.792170
    25  C    5.267700   6.586333   7.597736   7.520796   6.414730
    26  H    4.826093   6.218731   6.986008   6.605311   5.323973
    27  C    4.895585   5.964219   6.893423   6.917432   6.039580
    28  H    3.997562   4.900614   5.484874   5.288441   4.478041
    29  C    5.420605   6.604664   7.650092   7.699009   6.730614
    30  H    6.479154   7.819564   8.827410   8.701231   7.536525
    31  H    6.272414   7.390291   8.503527   8.652590   7.741057
    32  N    3.714937   4.291898   5.627737   6.361873   6.004959
    33  N    3.731162   4.840082   6.103924   6.465507   5.698374
    34  Pd   5.392786   6.635359   7.802463   7.941355   6.952341
    35  O    8.088729   9.065192  10.226696  10.527649   9.711074
    36  O    6.105748   7.157760   8.367979   8.676693   7.844537
    37  O    7.715887   9.070225  10.061838   9.884409   8.674905
    38  N    7.253369   8.536069   9.642446   9.653795   8.555810
    39  C    7.980504   9.186119  10.316222  10.403741   9.370278
    40  C    7.302734   8.377275   9.550988   9.793602   8.904665
    41  C    7.997604   9.331413  10.378693  10.274502   9.096100
    42  C    9.449728  10.786106  11.815822  11.671791  10.464696
    43  H    8.874352  10.054265  11.231017  11.374578  10.361946
    44  H    9.617503  10.953040  11.933354  11.737869  10.515747
    45  H    9.982725  11.277601  12.378943  12.337892  11.183404
    46  H    9.971263  11.331986  12.315456  12.094472  10.845683
    47  H    8.418155   9.643296  10.691634  10.676104   9.595530
    48  H    5.440334   6.338257   7.252408   7.376213   6.640827
                    6          7          8          9         10
     6  C    0.000000
     7  H    3.384798   0.000000
     8  H    3.861245   2.454789   0.000000
     9  H    3.384656   4.265450   2.472662   0.000000
    10  H    2.130590   4.921451   4.273377   2.468793   0.000000
    11  C    2.496267   2.682070   4.612342   5.329894   4.619780
    12  C    3.672649   2.754930   4.974231   6.107221   5.715053
    13  C    3.048995   3.968116   5.829618   6.260091   5.091607
    14  H    3.985869   2.333435   4.454227   5.851349   5.856231
    15  H    2.898877   4.489141   6.048625   6.149613   4.723182
    16  C    4.990730   4.846280   7.105798   7.988452   7.068805
    17  H    6.046749   5.849056   8.151348   9.069086   8.101709
    18  O    1.370010   4.539373   5.227728   4.519431   2.600742
    19  C    2.401721   5.499345   6.092282   5.143239   3.013855
    20  H    2.492939   5.443376   5.717992   4.608174   2.650238
    21  H    3.177401   6.445323   6.889071   5.658895   3.287977
    22  C    3.289532   5.763996   6.846372   6.320122   4.422339
    23  C    4.111012   6.447493   7.779346   7.359138   5.374220
    24  C    3.844141   5.674683   6.856495   6.599983   5.064421
    25  C    5.175740   6.961430   8.598178   8.474926   6.654171
    26  H    4.254206   6.846785   8.054120   7.458455   5.320956
    27  C    4.971945   6.283121   7.788384   7.822596   6.395096
    28  H    3.772135   5.460704   6.367724   6.059253   4.756480
    29  C    5.522439   6.870812   8.582006   8.656988   7.069835
    30  H    6.320131   8.188482   9.840801   9.636836   7.685291
    31  H    6.507249   7.536457   9.391419   9.628527   8.124548
    32  N    4.785900   3.965302   6.266051   7.412700   6.857567
    33  N    4.309909   4.904685   6.974096   7.532921   6.326667
    34  Pd   5.596943   6.819460   8.743736   8.964113   7.347381
    35  O    8.451474   9.028104  11.017406  11.514493  10.144905
    36  O    6.515648   7.163720   9.205500   9.703573   8.336629
    37  O    7.492964   9.445401  11.086266  10.796575   8.742937
    38  N    7.268210   8.768414  10.612863  10.631547   8.788770
    39  C    8.086363   9.336389  11.241020  11.385178   9.644433
    40  C    7.607130   8.409170  10.399432  10.796326   9.314070
    41  C    7.865250   9.640822  11.385107  11.214907   9.216484
    42  C    9.269249  11.098537  12.827039  12.589475  10.521191
    43  H    9.052118  10.137070  12.136616  12.373800  10.662056
    44  H    9.367119  11.303899  12.948222  12.625903  10.523953
    45  H    9.933912  11.496940  13.359658  13.291698  11.317179
    46  H    9.700219  11.696971  13.346572  12.980424  10.829031
    47  H    8.384925   9.871717  11.634746  11.610875   9.776299
    48  H    5.652817   6.551604   8.058622   8.252347   7.051268
                   11         12         13         14         15
    11  C    0.000000
    12  C    1.400101   0.000000
    13  C    1.395914   2.360674   0.000000
    14  H    2.171884   1.081532   3.365886   0.000000
    15  H    2.170678   3.369584   1.085810   4.307698   0.000000
    16  C    2.687404   2.255849   2.283076   3.215279   3.254241
    17  H    3.775666   3.234883   3.262469   4.089251   4.132937
    18  O    2.862902   4.125552   2.780728   4.702429   2.327678
    19  C    3.696892   4.704901   3.577737   5.235842   3.295242
    20  H    4.064757   4.922580   4.280249   5.240926   4.152345
    21  H    4.632553   5.716008   4.309829   6.298067   3.805025
    22  C    3.506641   4.225115   3.154926   4.890493   3.165245
    23  C    3.900317   4.643680   3.042915   5.509898   2.890508
    24  C    3.614617   3.878189   3.605779   4.367910   3.992991
    25  C    4.315029   4.712072   3.364478   5.631939   3.507277
    26  H    4.360857   5.311208   3.355564   6.213476   2.842075
    27  C    4.092290   3.997754   3.919811   4.551714   4.492615
    28  H    3.862299   4.029685   4.203566   4.259588   4.625150
    29  C    4.391647   4.392172   3.789909   5.167891   4.270012
    30  H    5.513965   5.926727   4.413440   6.883405   4.394098
    31  H    5.117970   4.900030   4.505616   5.650124   5.067045
    32  N    2.385907   1.320575   2.708595   2.039549   3.791983
    33  N    2.379215   2.690993   1.331579   3.769871   2.065693
    34  Pd   4.221104   4.662105   2.918444   5.731375   2.973989
    35  O    7.022642   7.461926   5.789937   8.481421   5.576293
    36  O    4.945318   5.370215   3.686421   6.422029   3.635488
    37  O    6.764329   7.196680   5.591295   8.170570   5.461354
    38  N    6.174337   6.654584   4.828945   7.720527   4.638869
    39  C    6.894369   7.381732   5.528159   8.457799   5.276483
    40  C    6.193243   6.647663   4.895089   7.701713   4.708596
    41  C    6.981596   7.449334   5.688181   8.483168   5.486546
    42  C    8.454591   8.933764   7.134622   9.974058   6.863797
    43  H    7.706214   8.049256   6.378105   9.107838   6.238939
    44  H    8.710134   9.322292   7.347470  10.383152   6.931251
    45  H    8.883495   9.239624   7.570589  10.277797   7.398983
    46  H    9.024480   9.491723   7.754809  10.500810   7.493842
    47  H    7.464511   8.103877   6.073418   9.184989   5.638750
    48  H    4.645680   4.249050   4.688913   4.604978   5.387906
                   16         17         18         19         20
    16  C    0.000000
    17  H    1.088285   0.000000
    18  O    4.832259   5.794157   0.000000
    19  C    5.228754   6.077658   1.431341   0.000000
    20  H    5.791270   6.669472   2.087634   1.094574   0.000000
    21  H    6.036630   6.823697   2.034822   1.094737   1.786893
    22  C    4.250538   4.945915   2.370847   1.508618   2.167061
    23  C    4.001294   4.516562   2.981532   2.496793   3.412262
    24  C    4.051471   4.671287   3.348507   2.530023   2.665463
    25  C    3.468745   3.664914   4.203373   3.801526   4.606758
    26  H    4.662658   5.187935   2.958467   2.674163   3.725502
    27  C    3.578331   3.906163   4.471297   3.797228   4.047558
    28  H    4.699694   5.388410   3.586421   2.742418   2.429218
    29  C    3.232775   3.306275   4.803806   4.283430   4.827773
    30  H    4.401913   4.356078   5.226980   4.801564   5.668476
    31  H    3.418179   3.141173   5.838171   5.366697   5.892479
    32  N    1.313983   2.056671   4.972491   5.405791   5.745937
    33  N    1.332251   2.076041   3.901757   4.403445   5.146976
    34  Pd   2.904837   2.956549   4.749696   4.980177   5.924709
    35  O    5.747939   5.532094   7.762151   8.426747   9.442641
    36  O    3.645662   3.592196   5.860223   6.473799   7.437773
    37  O    5.540899   5.353957   6.323328   5.872545   6.762097
    38  N    4.789085   4.569744   6.225600   6.289375   7.301991
    39  C    5.478821   5.200283   7.117163   7.393254   8.436925
    40  C    4.850674   4.654393   6.840499   7.388995   8.405329
    41  C    5.629199   5.372102   6.717534   6.515181   7.489972
    42  C    7.055862   6.713883   8.077725   7.856512   8.839000
    43  H    5.998519   5.533905   8.106936   8.324012   9.343929
    44  H    7.534193   7.287896   8.147181   8.029190   9.056473
    45  H    7.214463   6.727008   8.810073   8.655134   9.631462
    46  H    7.676758   7.340071   8.464831   8.067495   8.994399
    47  H    6.347318   6.177350   7.344007   7.638518   8.715965
    48  H    3.977023   4.186365   5.337928   4.662868   4.726891
                   21         22         23         24         25
    21  H    0.000000
    22  C    2.155421   0.000000
    23  C    2.732523   1.391249   0.000000
    24  C    3.340742   1.389111   2.398293   0.000000
    25  C    4.120280   2.443580   1.405139   2.810927   0.000000
    26  H    2.541941   2.140715   1.089686   3.380023   2.159876
    27  C    4.517721   2.406284   2.765807   1.386556   2.430671
    28  H    3.631809   2.143130   3.379894   1.081301   3.891867
    29  C    4.824167   2.783251   2.398994   2.403057   1.405129
    30  H    4.877488   3.558472   2.322419   4.023119   1.326314
    31  H    5.894219   3.867314   3.386777   3.380800   2.155500
    32  N    6.356823   4.590866   4.721582   4.139372   4.393891
    33  N    5.077922   3.550577   3.085142   3.792517   2.815399
    34  Pd   5.294833   3.975275   2.848616   4.508494   2.173255
    35  O    8.566401   7.778027   6.630132   8.456963   6.139017
    36  O    6.769956   5.733638   4.694700   6.318345   4.209490
    37  O    5.769633   4.732252   3.466728   5.250493   2.637962
    38  N    6.307584   5.313542   3.959664   5.967775   3.209768
    39  C    7.396361   6.546961   5.219046   7.246728   4.568185
    40  C    7.541633   6.652225   5.473087   7.315344   4.933494
    41  C    6.409557   5.473770   4.111544   6.094207   3.315977
    42  C    7.629869   6.882597   5.522385   7.530461   4.789220
    43  H    8.355217   7.370188   6.043371   7.947391   5.211727
    44  H    7.705359   7.224337   5.847347   8.030329   5.326779
    45  H    8.517846   7.602390   6.248671   8.140764   5.355276
    46  H    7.774916   7.074197   5.778104   7.672091   5.067503
    47  H    7.496535   6.950485   5.603706   7.804753   5.164610
    48  H    5.438010   3.381501   3.846071   2.136799   3.408470
                   26         27         28         29         30
    26  H    0.000000
    27  C    3.855005   0.000000
    28  H    4.272387   2.142318   0.000000
    29  C    3.391688   1.385131   3.381396   0.000000
    30  H    2.609221   3.540004   5.097213   2.326480   0.000000
    31  H    4.295786   2.137338   4.269482   1.084134   2.616431
    32  N    5.462642   3.808026   4.499974   3.917988   5.481210
    33  N    3.539033   3.623798   4.570652   3.127509   3.725541
    34  Pd   2.984885   4.152355   5.516101   3.072203   2.331188
    35  O    6.313544   8.130036   9.407019   7.015273   5.807747
    36  O    4.581281   6.017865   7.242682   5.008714   4.218175
    37  O    3.479071   4.740652   6.307787   3.513098   1.314043
    38  N    3.766877   5.526412   7.036587   4.242687   2.397781
    39  C    4.903530   6.829980   8.294344   5.563109   3.848373
    40  C    5.212077   6.969319   8.291458   5.832718   4.606192
    41  C    3.935341   5.601017   7.172216   4.298701   2.110337
    42  C    5.230561   7.021534   8.601474   5.716796   3.523049
    43  H    5.829096   7.372354   9.006310   6.042045   4.383591
    44  H    5.361531   7.673368   9.091729   6.411199   4.138266
    45  H    6.052310   7.494301   9.218783   6.135046   4.135737
    46  H    5.529942   7.152348   8.716662   5.905504   3.745033
    47  H    5.086496   7.529179   8.844103   6.302930   4.381919
    48  H    4.935097   1.080347   2.459087   2.143014   4.414588
                   31         32         33         34         35
    31  H    0.000000
    32  N    4.157784   0.000000
    33  N    3.592629   2.344839   0.000000
    34  Pd   3.350916   4.159010   1.998754   0.000000
    35  O    7.013186   6.896371   5.100127   4.023168   0.000000
    36  O    5.134198   4.833549   2.902657   2.039658   2.205008
    37  O    3.565322   6.688258   4.863443   3.157233   5.850162
    38  N    4.281260   6.081346   3.989209   1.995039   3.603121
    39  C    5.536776   6.777738   4.707539   2.899605   2.396552
    40  C    5.863068   6.072734   4.126641   2.841646   1.212813
    41  C    4.280270   6.881550   4.888156   2.936796   4.760019
    42  C    5.595595   8.329539   6.336392   4.351052   5.181352
    43  H    5.824485   7.303451   5.419750   3.642925   2.685753
    44  H    6.415604   8.814362   6.677383   4.692883   4.972852
    45  H    5.843309   8.506767   6.637382   4.677702   4.981221
    46  H    5.771529   8.907270   6.989927   5.060347   6.263189
    47  H    6.384189   7.623520   5.435451   3.642900   2.679157
    48  H    2.461259   3.965473   4.334967   5.004155   8.892423
                   36         37         38         39         40
    36  O    0.000000
    37  O    4.693730   0.000000
    38  N    2.667443   2.249082   0.000000
    39  C    2.420787   3.584112   1.451892   0.000000
    40  C    1.282286   4.727455   2.485618   1.557914   0.000000
    41  C    3.962900   1.272428   1.301083   2.405310   3.720217
    42  C    4.984275   2.376623   2.448241   2.842150   4.386387
    43  H    3.117671   3.941933   2.114764   1.098334   2.158870
    44  H    5.059847   3.098389   2.759972   2.801082   4.317443
    45  H    5.041691   3.085921   2.774997   2.825876   4.318329
    46  H    5.946275   2.444833   3.316810   3.907105   5.436424
    47  H    3.128056   3.965698   2.113646   1.098368   2.160517
    48  H    6.785496   5.542488   6.369656   7.648020   7.755080
                   41         42         43         44         45
    41  C    0.000000
    42  C    1.509063   0.000000
    43  H    2.734879   2.787696   0.000000
    44  H    2.142675   1.088261   2.907624   0.000000
    45  H    2.142104   1.088401   2.351702   1.765536   0.000000
    46  H    2.126428   1.085912   3.837853   1.777758   1.776448
    47  H    2.765135   2.846453   1.775056   2.385322   3.005121
    48  H    6.419883   7.799823   8.098802   8.527449   8.189399
                   46         47         48
    46  H    0.000000
    47  H    3.887696   0.000000
    48  H    7.890280   8.415388   0.000000
 Stoichiometry    C21H19N3O4Pd
 Framework group  C1[X(C21H19N3O4Pd)]
 Deg. of freedom   138
 Full point group                 C1      NOp   1
 Largest Abelian subgroup         C1      NOp   1
 Largest concise Abelian subgroup C1      NOp   1
                         Standard orientation:                         
 ---------------------------------------------------------------------
 Center     Atomic      Atomic             Coordinates (Angstroms)
 Number     Number       Type             X           Y           Z
 ---------------------------------------------------------------------
      1          6           0        3.670165   -0.853719   -0.227367
      2          6           0        4.837265   -1.551256    0.082421
      3          6           0        6.028496   -1.272847   -0.558157
      4          6           0        6.081717   -0.267891   -1.510325
      5          6           0        4.933981    0.425985   -1.843459
      6          6           0        3.720429    0.126285   -1.234499
      7          1           0        4.798477   -2.334095    0.824918
      8          1           0        6.916657   -1.832993   -0.310071
      9          1           0        7.012647   -0.033894   -2.003613
     10          1           0        4.957067    1.196435   -2.600120
     11          6           0        2.454241   -1.057887    0.561567
     12          6           0        2.519139   -1.266096    1.944578
     13          6           0        1.165344   -0.946317    0.037286
     14          1           0        3.465544   -1.341105    2.462655
     15          1           0        0.994075   -0.837253   -1.029370
     16          6           0        0.271694   -1.190750    2.123928
     17          1           0       -0.611688   -1.236306    2.757905
     18          8           0        2.575957    0.752326   -1.653049
     19          6           0        2.398935    2.130374   -1.308979
     20          1           0        3.350696    2.581514   -1.011129
     21          1           0        2.024594    2.630825   -2.207793
     22          6           0        1.379879    2.192477   -0.198307
     23          6           0        0.062478    1.842683   -0.477007
     24          6           0        1.750990    2.443964    1.116479
     25          6           0       -0.889398    1.669597    0.542007
     26          1           0       -0.229305    1.681751   -1.514494
     27          6           0        0.816437    2.345853    2.136048
     28          1           0        2.773674    2.710601    1.345030
     29          6           0       -0.479106    1.942360    1.857928
     30          1           0       -2.144958    1.966006    0.234080
     31          1           0       -1.193094    1.849294    2.668426
     32          7           0        1.439881   -1.368422    2.698666
     33          7           0        0.091968   -0.953980    0.825263
     34         46           0       -1.681933   -0.317519    0.159523
     35          8           0       -3.962799   -3.391046   -1.080221
     36          8           0       -2.280601   -2.220091   -0.267119
     37          8           0       -3.349271    2.348209   -0.126839
     38          7           0       -3.510318    0.135742   -0.497550
     39          6           0       -4.278163   -1.020503   -0.923579
     40          6           0       -3.461100   -2.336103   -0.754171
     41          6           0       -4.017363    1.333927   -0.506257
     42          6           0       -5.430948    1.576846   -0.975342
     43          1           0       -5.199346   -1.126381   -0.334895
     44          1           0       -5.549725    1.231103   -2.000362
     45          1           0       -6.132043    1.032430   -0.345505
     46          1           0       -5.643056    2.640443   -0.920790
     47          1           0       -4.562767   -0.940374   -1.981404
     48          1           0        1.113773    2.557428    3.152894
 ---------------------------------------------------------------------
 Rotational constants (GHZ):           0.2971425           0.0996149           0.0909374
 General basis read from cards:  (5D, 7F)
 ======================================================================================================
                                       Pseudopotential Parameters
 ======================================================================================================
  Center     Atomic      Valence      Angular      Power
  Number     Number     Electrons     Momentum     of R      Exponent        Coefficient   SO-Coeffient
 ======================================================================================================
    1          6
                                   No pseudopotential on this center.
    2          6
                                   No pseudopotential on this center.
    3          6
                                   No pseudopotential on this center.
    4          6
                                   No pseudopotential on this center.
    5          6
                                   No pseudopotential on this center.
    6          6
                                   No pseudopotential on this center.
    7          1
                                   No pseudopotential on this center.
    8          1
                                   No pseudopotential on this center.
    9          1
                                   No pseudopotential on this center.
   10          1
                                   No pseudopotential on this center.
   11          6
                                   No pseudopotential on this center.
   12          6
                                   No pseudopotential on this center.
   13          6
                                   No pseudopotential on this center.
   14          1
                                   No pseudopotential on this center.
   15          1
                                   No pseudopotential on this center.
   16          6
                                   No pseudopotential on this center.
   17          1
                                   No pseudopotential on this center.
   18          8
                                   No pseudopotential on this center.
   19          6
                                   No pseudopotential on this center.
   20          1
                                   No pseudopotential on this center.
   21          1
                                   No pseudopotential on this center.
   22          6
                                   No pseudopotential on this center.
   23          6
                                   No pseudopotential on this center.
   24          6
                                   No pseudopotential on this center.
   25          6
                                   No pseudopotential on this center.
   26          1
                                   No pseudopotential on this center.
   27          6
                                   No pseudopotential on this center.
   28          1
                                   No pseudopotential on this center.
   29          6
                                   No pseudopotential on this center.
   30          1
                                   No pseudopotential on this center.
   31          1
                                   No pseudopotential on this center.
   32          7
                                   No pseudopotential on this center.
   33          7
                                   No pseudopotential on this center.
   34         46           18
                                      F and up 
                                                     2       13.2700000      -31.92955431    0.00000000
                                                     2        6.6300000       -5.39821694    0.00000000
                                      S - F
                                                     2       12.4300000      240.22904033    0.00000000
                                                     2        6.1707594       35.17194347    0.00000000
                                                     2       13.2700000       31.92955431    0.00000000
                                                     2        6.6300000        5.39821694    0.00000000
                                      P - F
                                                     2       11.0800000      170.41727605    0.00000000
                                                     2        5.8295541       28.47213287    0.00000000
                                                     2       13.2700000       31.92955431    0.00000000
                                                     2        6.6300000        5.39821694    0.00000000
                                      D - F
                                                     2        9.5100000       69.01384488    0.00000000
                                                     2        4.1397811       11.75086158    0.00000000
                                                     2       13.2700000       31.92955431    0.00000000
                                                     2        6.6300000        5.39821694    0.00000000
   35          8
                                   No pseudopotential on this center.
   36          8
                                   No pseudopotential on this center.
   37          8
                                   No pseudopotential on this center.
   38          7
                                   No pseudopotential on this center.
   39          6
                                   No pseudopotential on this center.
   40          6
                                   No pseudopotential on this center.
   41          6
                                   No pseudopotential on this center.
   42          6
                                   No pseudopotential on this center.
   43          1
                                   No pseudopotential on this center.
   44          1
                                   No pseudopotential on this center.
   45          1
                                   No pseudopotential on this center.
   46          1
                                   No pseudopotential on this center.
   47          1
                                   No pseudopotential on this center.
   48          1
                                   No pseudopotential on this center.
 ======================================================================================================
 There are   586 symmetry adapted cartesian basis functions of A   symmetry.
 There are   543 symmetry adapted basis functions of A   symmetry.
   543 basis functions,   932 primitive gaussians,   586 cartesian basis functions
   108 alpha electrons      108 beta electrons
       nuclear repulsion energy      3069.4384814590 Hartrees.
 NAtoms=   48 NActive=   48 NUniq=   48 SFac= 1.00D+00 NAtFMM=   60 NAOKFM=F Big=F
 Integral buffers will be    131072 words long.
 Raffenetti 2 integral format.
 Two-electron integral symmetry is turned on.
 One-electron integrals computed using PRISM.
   1 Symmetry operations used in ECPInt.
 ECPInt:  NShTT=   29161 NPrTT=  103719 LenC2=   25353 LenP2D=   61164.
 LDataN:  DoStor=T MaxTD1= 8 Len=  415
 NBasis=   543 RedAO= T EigKep=  2.25D-04  NBF=   543
 NBsUse=   543 1.00D-06 EigRej= -1.00D+00 NBFU=   543
 Defaulting to unpruned grid for atomic number  46.
 ExpMin= 3.70D-02 ExpMax= 2.27D+03 ExpMxC= 3.41D+02 IAcc=3 IRadAn=         5 AccDes= 0.00D+00
 Harris functional with IExCor= 1009 and IRadAn=       5 diagonalized for initial guess.
 HarFok:  IExCor= 1009 AccDes= 0.00D+00 IRadAn=         5 IDoV= 1 UseB2=F ITyADJ=14
 ICtDFT=  3500011 ScaDFX=  1.000000  1.000000  1.000000  1.000000
 Defaulting to unpruned grid for atomic number  46.
 FoFCou: FMM=F IPFlag=           0 FMFlag=      100000 FMFlg1=           0
         NFxFlg=           0 DoJE=T BraDBF=F KetDBF=T FulRan=T
         wScrn=  0.000000 ICntrl=       500 IOpCl=  0 I1Cent=   200000004 NGrid=           0
         NMat0=    1 NMatS0=      1 NMatT0=    0 NMatD0=    1 NMtDS0=    0 NMtDT0=    0
 Petite list used in FoFCou.
 Requested convergence on RMS density matrix=1.00D-08 within 128 cycles.
 Requested convergence on MAX density matrix=1.00D-06.
 Requested convergence on             energy=1.00D-06.
 No special actions if energy rises.
 Defaulting to unpruned grid for atomic number  46.
 Defaulting to unpruned grid for atomic number  46.
 Defaulting to unpruned grid for atomic number  46.
 Defaulting to unpruned grid for atomic number  46.
 Defaulting to unpruned grid for atomic number  46.
 Defaulting to unpruned grid for atomic number  46.
 Defaulting to unpruned grid for atomic number  46.
 Defaulting to unpruned grid for atomic number  46.
 Defaulting to unpruned grid for atomic number  46.
 Defaulting to unpruned grid for atomic number  46.
 Defaulting to unpruned grid for atomic number  46.
 Defaulting to unpruned grid for atomic number  46.
 Defaulting to unpruned grid for atomic number  46.
 Defaulting to unpruned grid for atomic number  46.
 Defaulting to unpruned grid for atomic number  46.
 Defaulting to unpruned grid for atomic number  46.
 Defaulting to unpruned grid for atomic number  46.
 Defaulting to unpruned grid for atomic number  46.
 Defaulting to unpruned grid for atomic number  46.
 Defaulting to unpruned grid for atomic number  46.
 Defaulting to unpruned grid for atomic number  46.
 Defaulting to unpruned grid for atomic number  46.
 Defaulting to unpruned grid for atomic number  46.
 Defaulting to unpruned grid for atomic number  46.
 Defaulting to unpruned grid for atomic number  46.
 Defaulting to unpruned grid for atomic number  46.
 Defaulting to unpruned grid for atomic number  46.
 Defaulting to unpruned grid for atomic number  46.
 Defaulting to unpruned grid for atomic number  46.
 Defaulting to unpruned grid for atomic number  46.
 Defaulting to unpruned grid for atomic number  46.
 Defaulting to unpruned grid for atomic number  46.
 Defaulting to unpruned grid for atomic number  46.
 Defaulting to unpruned grid for atomic number  46.
 Defaulting to unpruned grid for atomic number  46.
 Defaulting to unpruned grid for atomic number  46.
 Defaulting to unpruned grid for atomic number  46.
 Defaulting to unpruned grid for atomic number  46.
 Defaulting to unpruned grid for atomic number  46.
 Defaulting to unpruned grid for atomic number  46.
 Defaulting to unpruned grid for atomic number  46.
 Defaulting to unpruned grid for atomic number  46.
 Defaulting to unpruned grid for atomic number  46.
 Defaulting to unpruned grid for atomic number  46.
 Defaulting to unpruned grid for atomic number  46.
 Defaulting to unpruned grid for atomic number  46.
 Defaulting to unpruned grid for atomic number  46.
 Defaulting to unpruned grid for atomic number  46.
 Defaulting to unpruned grid for atomic number  46.
 Defaulting to unpruned grid for atomic number  46.
 Defaulting to unpruned grid for atomic number  46.
 Defaulting to unpruned grid for atomic number  46.
 Defaulting to unpruned grid for atomic number  46.
 Defaulting to unpruned grid for atomic number  46.
 Defaulting to unpruned grid for atomic number  46.
 Defaulting to unpruned grid for atomic number  46.
 Defaulting to unpruned grid for atomic number  46.
 Defaulting to unpruned grid for atomic number  46.
 Defaulting to unpruned grid for atomic number  46.
 Defaulting to unpruned grid for atomic number  46.
 Defaulting to unpruned grid for atomic number  46.
 Defaulting to unpruned grid for atomic number  46.
 Defaulting to unpruned grid for atomic number  46.
 Defaulting to unpruned grid for atomic number  46.
 EnCoef did     6 forward-backward iterations
 EnCoef did   100 forward-backward iterations
 EnCoef did     6 forward-backward iterations
 Restarting incremental Fock formation.
 SCF Done:  E(RMN15) =  -1401.98332555     A.U. after   22 cycles
            NFock= 22  Conv=0.53D-08     -V/T= 2.0720
 DoSCS=F DFT=T ScalE2(SS,OS)=  1.000000  1.000000
 Range of M.O.s used for correlation:     1   543
 NBasis=   543 NAE=   108 NBE=   108 NFC=     0 NFV=     0
 NROrb=    543 NOA=   108 NOB=   108 NVA=   435 NVB=   435

 **** Warning!!: The largest alpha MO coefficient is  0.13176555D+02

   1 Symmetry operations used in ECPInt.
 ECPInt:  NShTT=   29161 NPrTT=  103719 LenC2=   25353 LenP2D=   61164.
 LDataN:  DoStor=T MaxTD1= 9 Len=  602
 Number of processors reduced to  12 by ecpmxn.
 Symmetrizing basis deriv contribution to polar:
 IMax=3 JMax=2 DiffMx= 0.00D+00
 G2DrvN: will do    49 centers at a time, making    1 passes.
 Calling FoFCou, ICntrl=  3107 FMM=F I1Cent=   0 AccDes= 0.00D+00.
 Defaulting to unpruned grid for atomic number  46.
 Defaulting to unpruned grid for atomic number  46.
 Defaulting to unpruned grid for atomic number  46.
 Defaulting to unpruned grid for atomic number  46.
 Defaulting to unpruned grid for atomic number  46.
 Defaulting to unpruned grid for atomic number  46.
 Defaulting to unpruned grid for atomic number  46.
 Defaulting to unpruned grid for atomic number  46.
 Defaulting to unpruned grid for atomic number  46.
 Defaulting to unpruned grid for atomic number  46.
 Defaulting to unpruned grid for atomic number  46.
 Defaulting to unpruned grid for atomic number  46.
 Defaulting to unpruned grid for atomic number  46.
 Defaulting to unpruned grid for atomic number  46.
 Defaulting to unpruned grid for atomic number  46.
 Defaulting to unpruned grid for atomic number  46.
 Defaulting to unpruned grid for atomic number  46.
 Defaulting to unpruned grid for atomic number  46.
 Defaulting to unpruned grid for atomic number  46.
 Defaulting to unpruned grid for atomic number  46.
 Defaulting to unpruned grid for atomic number  46.
 Defaulting to unpruned grid for atomic number  46.
 Defaulting to unpruned grid for atomic number  46.
 Defaulting to unpruned grid for atomic number  46.
 Defaulting to unpruned grid for atomic number  46.
 Defaulting to unpruned grid for atomic number  46.
 Defaulting to unpruned grid for atomic number  46.
 Defaulting to unpruned grid for atomic number  46.
 Defaulting to unpruned grid for atomic number  46.
 Defaulting to unpruned grid for atomic number  46.
 Defaulting to unpruned grid for atomic number  46.
 Defaulting to unpruned grid for atomic number  46.
 Defaulting to unpruned grid for atomic number  46.
 Defaulting to unpruned grid for atomic number  46.
 Defaulting to unpruned grid for atomic number  46.
 Defaulting to unpruned grid for atomic number  46.
 Defaulting to unpruned grid for atomic number  46.
 Defaulting to unpruned grid for atomic number  46.
 Defaulting to unpruned grid for atomic number  46.
 Defaulting to unpruned grid for atomic number  46.
 Defaulting to unpruned grid for atomic number  46.
 Defaulting to unpruned grid for atomic number  46.
 Defaulting to unpruned grid for atomic number  46.
 Defaulting to unpruned grid for atomic number  46.
 Defaulting to unpruned grid for atomic number  46.
 Defaulting to unpruned grid for atomic number  46.
 Defaulting to unpruned grid for atomic number  46.
 Defaulting to unpruned grid for atomic number  46.
 Defaulting to unpruned grid for atomic number  46.
 Defaulting to unpruned grid for atomic number  46.
 Defaulting to unpruned grid for atomic number  46.
 Defaulting to unpruned grid for atomic number  46.
 Defaulting to unpruned grid for atomic number  46.
 Defaulting to unpruned grid for atomic number  46.
 Defaulting to unpruned grid for atomic number  46.
 Defaulting to unpruned grid for atomic number  46.
 Defaulting to unpruned grid for atomic number  46.
 Defaulting to unpruned grid for atomic number  46.
 Defaulting to unpruned grid for atomic number  46.
 Defaulting to unpruned grid for atomic number  46.
 Defaulting to unpruned grid for atomic number  46.
 Defaulting to unpruned grid for atomic number  46.
 Defaulting to unpruned grid for atomic number  46.
 Defaulting to unpruned grid for atomic number  46.
 End of G2Drv F.D. properties file   721 does not exist.
 End of G2Drv F.D. properties file   722 does not exist.
 End of G2Drv F.D. properties file   788 does not exist.
          IDoAtm=111111111111111111111111111111111111111111111111
          Differentiating once with respect to nuclear coordinates.
 Defaulting to unpruned grid for atomic number  46.
 CalDSu exits because no D1Ps are significant.
 Defaulting to unpruned grid for atomic number  46.
 Defaulting to unpruned grid for atomic number  46.
 Defaulting to unpruned grid for atomic number  46.
 Defaulting to unpruned grid for atomic number  46.
 Defaulting to unpruned grid for atomic number  46.
 Defaulting to unpruned grid for atomic number  46.
 Defaulting to unpruned grid for atomic number  46.
 Defaulting to unpruned grid for atomic number  46.
 Defaulting to unpruned grid for atomic number  46.
 Defaulting to unpruned grid for atomic number  46.
 Defaulting to unpruned grid for atomic number  46.
 Defaulting to unpruned grid for atomic number  46.
 Defaulting to unpruned grid for atomic number  46.
 Defaulting to unpruned grid for atomic number  46.
 Defaulting to unpruned grid for atomic number  46.
 Defaulting to unpruned grid for atomic number  46.
 Defaulting to unpruned grid for atomic number  46.
 Defaulting to unpruned grid for atomic number  46.
 Defaulting to unpruned grid for atomic number  46.
 Defaulting to unpruned grid for atomic number  46.
 Defaulting to unpruned grid for atomic number  46.
 Defaulting to unpruned grid for atomic number  46.
 Defaulting to unpruned grid for atomic number  46.
 Defaulting to unpruned grid for atomic number  46.
 Defaulting to unpruned grid for atomic number  46.
 Defaulting to unpruned grid for atomic number  46.
 Defaulting to unpruned grid for atomic number  46.
 Defaulting to unpruned grid for atomic number  46.
 Defaulting to unpruned grid for atomic number  46.
 Defaulting to unpruned grid for atomic number  46.
 Defaulting to unpruned grid for atomic number  46.
 Defaulting to unpruned grid for atomic number  46.
 Defaulting to unpruned grid for atomic number  46.
 Defaulting to unpruned grid for atomic number  46.
 Defaulting to unpruned grid for atomic number  46.
 Defaulting to unpruned grid for atomic number  46.
 Defaulting to unpruned grid for atomic number  46.
 Defaulting to unpruned grid for atomic number  46.
 Defaulting to unpruned grid for atomic number  46.
 Defaulting to unpruned grid for atomic number  46.
 Defaulting to unpruned grid for atomic number  46.
 Defaulting to unpruned grid for atomic number  46.
 Defaulting to unpruned grid for atomic number  46.
 Defaulting to unpruned grid for atomic number  46.
 Defaulting to unpruned grid for atomic number  46.
 Defaulting to unpruned grid for atomic number  46.
 Defaulting to unpruned grid for atomic number  46.
 Defaulting to unpruned grid for atomic number  46.
 Defaulting to unpruned grid for atomic number  46.
 Defaulting to unpruned grid for atomic number  46.
 Defaulting to unpruned grid for atomic number  46.
 Defaulting to unpruned grid for atomic number  46.
 Defaulting to unpruned grid for atomic number  46.
 Defaulting to unpruned grid for atomic number  46.
 Defaulting to unpruned grid for atomic number  46.
 Defaulting to unpruned grid for atomic number  46.
 Defaulting to unpruned grid for atomic number  46.
 Defaulting to unpruned grid for atomic number  46.
 Defaulting to unpruned grid for atomic number  46.
 Defaulting to unpruned grid for atomic number  46.
 Defaulting to unpruned grid for atomic number  46.
 Defaulting to unpruned grid for atomic number  46.
 Defaulting to unpruned grid for atomic number  46.
 Defaulting to unpruned grid for atomic number  46.
          There are   147 degrees of freedom in the 1st order CPHF.  IDoFFX=6 NUNeed=     0.
    141 vectors produced by pass  0 Test12= 4.70D-14 1.00D-09 XBig12= 1.09D-01 8.81D-02.
 AX will form    64 AO Fock derivatives at one time.
    141 vectors produced by pass  1 Test12= 4.70D-14 1.00D-09 XBig12= 2.07D-02 3.30D-02.
    141 vectors produced by pass  2 Test12= 4.70D-14 1.00D-09 XBig12= 4.04D-04 2.72D-03.
    141 vectors produced by pass  3 Test12= 4.70D-14 1.00D-09 XBig12= 3.59D-06 2.01D-04.
    141 vectors produced by pass  4 Test12= 4.70D-14 1.00D-09 XBig12= 1.92D-08 1.23D-05.
    141 vectors produced by pass  5 Test12= 4.70D-14 1.00D-09 XBig12= 8.33D-11 9.93D-07.
    115 vectors produced by pass  6 Test12= 4.70D-14 1.00D-09 XBig12= 2.95D-13 4.48D-08.
     22 vectors produced by pass  7 Test12= 4.70D-14 1.00D-09 XBig12= 1.04D-15 2.29D-09.
 InvSVY:  IOpt=1 It=  1 EMax= 1.89D-15
 Solved reduced A of dimension   983 with   147 vectors.
 End of Minotr F.D. properties file   721 does not exist.
 End of Minotr F.D. properties file   722 does not exist.
 End of Minotr F.D. properties file   788 does not exist.

 **********************************************************************

            Population analysis using the SCF Density.

 **********************************************************************

 Orbital symmetries:
       Occupied  (A) (A) (A) (A) (A) (A) (A) (A) (A) (A) (A) (A)
                 (A) (A) (A) (A) (A) (A) (A) (A) (A) (A) (A) (A)
                 (A) (A) (A) (A) (A) (A) (A) (A) (A) (A) (A) (A)
                 (A) (A) (A) (A) (A) (A) (A) (A) (A) (A) (A) (A)
                 (A) (A) (A) (A) (A) (A) (A) (A) (A) (A) (A) (A)
                 (A) (A) (A) (A) (A) (A) (A) (A) (A) (A) (A) (A)
                 (A) (A) (A) (A) (A) (A) (A) (A) (A) (A) (A) (A)
                 (A) (A) (A) (A) (A) (A) (A) (A) (A) (A) (A) (A)
                 (A) (A) (A) (A) (A) (A) (A) (A) (A) (A) (A) (A)
       Virtual   (A) (A) (A) (A) (A) (A) (A) (A) (A) (A) (A) (A)
                 (A) (A) (A) (A) (A) (A) (A) (A) (A) (A) (A) (A)
                 (A) (A) (A) (A) (A) (A) (A) (A) (A) (A) (A) (A)
                 (A) (A) (A) (A) (A) (A) (A) (A) (A) (A) (A) (A)
                 (A) (A) (A) (A) (A) (A) (A) (A) (A) (A) (A) (A)
                 (A) (A) (A) (A) (A) (A) (A) (A) (A) (A) (A) (A)
                 (A) (A) (A) (A) (A) (A) (A) (A) (A) (A) (A) (A)
                 (A) (A) (A) (A) (A) (A) (A) (A) (A) (A) (A) (A)
                 (A) (A) (A) (A) (A) (A) (A) (A) (A) (A) (A) (A)
                 (A) (A) (A) (A) (A) (A) (A) (A) (A) (A) (A) (A)
                 (A) (A) (A) (A) (A) (A) (A) (A) (A) (A) (A) (A)
                 (A) (A) (A) (A) (A) (A) (A) (A) (A) (A) (A) (A)
                 (A) (A) (A) (A) (A) (A) (A) (A) (A) (A) (A) (A)
                 (A) (A) (A) (A) (A) (A) (A) (A) (A) (A) (A) (A)
                 (A) (A) (A) (A) (A) (A) (A) (A) (A) (A) (A) (A)
                 (A) (A) (A) (A) (A) (A) (A) (A) (A) (A) (A) (A)
                 (A) (A) (A) (A) (A) (A) (A) (A) (A) (A) (A) (A)
                 (A) (A) (A) (A) (A) (A) (A) (A) (A) (A) (A) (A)
                 (A) (A) (A) (A) (A) (A) (A) (A) (A) (A) (A) (A)
                 (A) (A) (A) (A) (A) (A) (A) (A) (A) (A) (A) (A)
                 (A) (A) (A) (A) (A) (A) (A) (A) (A) (A) (A) (A)
                 (A) (A) (A) (A) (A) (A) (A) (A) (A) (A) (A) (A)
                 (A) (A) (A) (A) (A) (A) (A) (A) (A) (A) (A) (A)
                 (A) (A) (A) (A) (A) (A) (A) (A) (A) (A) (A) (A)
                 (A) (A) (A) (A) (A) (A) (A) (A) (A) (A) (A) (A)
                 (A) (A) (A) (A) (A) (A) (A) (A) (A) (A) (A) (A)
                 (A) (A) (A) (A) (A) (A) (A) (A) (A) (A) (A) (A)
                 (A) (A) (A) (A) (A) (A) (A) (A) (A) (A) (A) (A)
                 (A) (A) (A) (A) (A) (A) (A) (A) (A) (A) (A) (A)
                 (A) (A) (A) (A) (A) (A) (A) (A) (A) (A) (A) (A)
                 (A) (A) (A) (A) (A) (A) (A) (A) (A) (A) (A) (A)
[...]
 075,0.00000007,0.00000035,-0.00000033,0.00000043,0.00000013,-0.0000002
 8,0.00000007,0.00000042,0.00000050,0.00000011,0.00000016,0.00000294,0.
 00000363,-0.00000386,0.00000338,0.00000078,0.00000246,0.00001767,-0.00
 000053,0.00000120,-0.00000096,0.00000013,0.00000029,0.00000379,0.00000
 002,0.00000168,-0.00001062,0.00000469,0.00001149,-0.00000062,0.0000042
 4,0.00000295,-0.00000612,0.00000160,-0.00000236,0.00000015,-0.00000073
 ,0.00000041,-0.00000159,0.00000044,-0.00000039,0.00000139,0.00000041,-
 0.00000079,-0.00000655,-0.00000474,-0.00001122,0.00000178,-0.00000002,
 -0.00001435,-0.00000702,-0.00000117,0.00000860,-0.00011141,0.00003764,
 -0.00001550,0.00000166,-0.00000091,-0.00000200,0.00001150,-0.00000885,
 -0.00000949,-0.00000039,0.00000144,-0.00000080,-0.00002923,-0.00002176
 ,0.00003331,0.00022771,-0.00000737,0.00010463,-0.00000410,0.00001196,-
 0.00001567,-0.00000836,-0.00000119,-0.00001160,-0.00000696,0.00001792,
 -0.00008650,0.00011241,0.00013128,0.00036041,-0.00019490,0.00011307,-0
 .00002353,-0.00049170,-0.00003678,-0.00012674,-0.00057061,0.00069176,-
 0.00017764,-0.00021825,-0.00250676,0.00120944,0.00247902,0.00094012,-0
 .00085292,0.00060484,-0.00034169,0.00016429,0.00092387,0.00126630,-0.0
 0661726,-0.06662122,-0.08384191,0.07515487,-0.00041112,-0.00056136,0.0
 0068152,0.00985467,0.00454445,-0.00937811,0.07403078,0.08586928,0.0000
 0040,-0.00000027,-0.00000125,0.00000022,-0.00000052,0.00000089,-0.0000
 0038,-0.00000120,0.00000102,-0.00000152,0.00000040,-0.00000005,0.00000
 104,0.00000078,-0.00000037,-0.00000519,0.00000366,-0.00000345,0.000000
 64,-0.00000029,0.00000036,-0.00000020,0.00000001,0.00000010,-0.0000002
 7,0.00000010,0.00000006,-0.00000044,-0.00000036,0.00000026,-0.00000342
 ,-0.00000312,-0.00000468,-0.00000207,0.00000152,0.00000488,-0.00000567
 ,0.00000789,-0.00001314,-0.00000025,0.00000090,-0.00000003,0.00000094,
 0.00000254,-0.00000355,0.00001971,-0.00000243,0.00001351,0.00000053,0.
 00000259,0.00000599,0.00000171,-0.00000632,0.00000695,-0.00000096,0.00
 000914,-0.00000883,-0.00000110,0.,0.00000055,-0.00000027,-0.00000088,0
 .00000249,0.00002219,-0.00002285,0.00001458,-0.00003983,-0.00005325,-0
 .00002921,-0.00001613,-0.00000186,-0.00001944,-0.00015874,0.00016867,0
 .00005767,-0.00001190,0.00001784,-0.00000069,-0.00000460,-0.00000985,0
 .00001213,0.00000013,0.00000218,-0.00000048,0.00000869,-0.00001028,0.0
 0003398,0.00042059,-0.00021813,-0.00029357,-0.00000163,0.00000887,-0.0
 0000775,-0.00000299,-0.00000696,0.00000063,-0.00001226,0.00001218,0.00
 011316,0.00002193,-0.00003749,-0.00045409,-0.00009570,0.00006811,-0.00
 003144,-0.00040948,0.00008081,-0.00020194,-0.00191679,-0.00079111,-0.0
 0217285,0.00091886,0.00028706,0.00013338,-0.00107166,0.00085250,0.0003
 8337,0.00016679,-0.00032284,0.00019559,-0.00748201,-0.00459984,0.00899
 041,0.12291863,0.07396137,-0.16754854,0.00028926,-0.00025738,0.0002419
 5,0.01732499,0.01080350,-0.01562996,-0.13113146,-0.07929710,0.17804372
 ,0.00000034,-0.00000115,-0.00001100,-0.00000125,-0.00000341,0.00000578
 ,-0.00000128,-0.00000443,0.00000479,-0.00000664,0.00000215,-0.00000075
 ,0.00000743,-0.00000095,0.00000101,-0.00003391,0.00002550,-0.00001870,
 0.00000263,-0.00000209,0.00000030,-0.00000124,-0.00000019,0.00000038,-
 0.00000028,-0.00000020,0.00000029,-0.00000206,-0.00000072,0.00000200,-
 0.00001430,0.00000114,0.00001160,0.00000977,0.00000064,0.00000207,0.00
 000339,0.00005031,-0.00011341,-0.00000387,0.00000079,-0.00000142,0.000
 00862,0.00000245,0.00000664,-0.00005131,-0.00002047,0.00011229,0.00000
 941,-0.00000340,-0.00000332,0.00002724,-0.00005826,0.00001135,-0.00001
 821,0.00004198,0.00000056,0.00000096,-0.00000417,0.00000088,-0.0000001
 4,-0.00000358,0.00000363,-0.00004208,0.00009920,0.00000205,-0.00002113
 ,0.00001581,0.00000916,0.00002734,-0.00000981,0.00001361,0.00091816,-0
 .00082190,0.00029633,0.00000137,-0.00005147,-0.00000178,-0.00001834,0.
 00009453,-0.00002409,0.00000321,-0.00001279,0.00000211,-0.00001595,0.0
 0001526,-0.00004169,-0.00208365,0.00070566,-0.00067037,0.00000177,-0.0
 0004985,0.00001120,-0.00004578,0.00001525,-0.00005763,-0.00047511,0.00
 006294,-0.00010661,0.00113410,0.00073548,0.00021712,0.00010562,0.00004
 088,0.00003684,0.00035475,-0.00006538,0.00013915,0.00432331,-0.0011109
 3,0.00167580,-0.00692502,0.00079068,-0.00266840,-0.00055844,-0.0014941
 5,0.00007286,-0.00022367,0.00026743,-0.00019487,-0.00403873,0.03294380
 ,-0.00222614,-0.05022049,0.03992869,-0.00380800,0.00022326,0.00002172,
 -0.00031619,-0.00026974,-0.00517115,0.00144440,0.00398153,-0.01920454,
 -0.00010993,0.05398395,-0.00000017,-0.00000124,0.00000668,-0.00000039,
 0.00000226,-0.00000476,0.00000161,0.00000364,-0.00000311,0.00000330,-0
 .00000130,0.00000032,0.00000045,-0.00000098,-0.00000026,0.00000177,-0.
 00000467,0.00000551,-0.00000235,0.00000126,-0.00000021,0.00000135,-0.0
 0000032,0.00000003,0.00000101,0.00000015,-0.00000051,0.00000019,0.0000
 0079,-0.00000055,0.00000185,-0.00000163,0.00000761,-0.00000600,0.00000
 032,-0.00000717,-0.00001398,-0.00001612,0.00004042,0.00000298,-0.00000
 079,0.00000062,-0.00000643,-0.00000151,0.00000042,0.00000756,0.0000041
 4,-0.00004332,-0.00000290,-0.00000190,-0.00000550,0.00000654,0.0000128
 4,-0.00000870,-0.00000521,-0.00001469,0.00000770,0.00000089,0.00000101
 ,0.00000094,-0.00000034,0.00000069,-0.00000288,0.00000388,-0.00001941,
 0.00001842,-0.00002435,0.00000505,-0.00000445,0.00000521,0.00000443,-0
 .00000312,-0.00021496,0.00017436,-0.00007331,-0.00000448,0.00000577,0.
 00000457,0.00000467,-0.00002481,-0.00001407,-0.00000006,0.00000332,-0.
 00000079,-0.00001915,0.00000969,-0.00000401,0.00051108,-0.00021831,0.0
 0016514,-0.00000197,0.00000572,-0.00000788,0.00003042,-0.00000159,0.00
 002612,0.00009842,-0.00003365,0.00001620,-0.00043781,0.00005187,-0.000
 11847,0.00000947,-0.00020697,0.00001579,0.00026659,-0.00012343,0.00009
 083,-0.00172793,0.00170711,-0.00066661,0.00077056,0.00040673,0.0003298
 3,0.00025438,-0.00020865,0.00008744,-0.00018623,0.00058090,-0.00008450
 ,-0.00199658,-0.00503660,-0.00053440,0.04587227,-0.33524566,0.02943106
 ,0.00009014,0.00010100,-0.00019350,0.00191132,-0.00848115,0.00322591,0
 .00253286,-0.00639483,-0.00084706,-0.04769532,0.35281835,-0.00000009,0
 .00000077,-0.00000308,-0.00000091,-0.00000098,0.00000107,-0.00000021,-
 0.00000079,0.00000042,-0.00000079,0.00000012,-0.00000034,0.00000018,-0
 .00000121,0.00000074,-0.00000220,0.00000237,-0.00000227,0.00000083,-0.
 00000017,0.00000010,-0.00000045,0.00000028,0.00000023,0.00000005,-0.00
 000002,0.00000043,0.00000009,0.00000026,0.00000062,-0.00000402,0.00000
 398,0.00000049,0.00000258,0.00000056,0.00000234,0.00002137,0.00001244,
 -0.00002439,-0.00000158,-0.00000027,0.00000010,0.00000591,-0.00000266,
 0.00000504,-0.00004078,-0.00000475,0.00003670,0.00000092,0.00000122,-0
 .00000120,0.00000304,-0.00001159,-0.00000536,-0.00000628,0.00000671,0.
 00001105,-0.00000021,-0.00000052,-0.00000086,0.00000202,-0.00000005,-0
 .00000240,-0.00001558,0.00003441,-0.00001431,-0.00000704,0.00001343,0.
 00002226,0.00000551,-0.00000434,0.00001205,0.00028815,-0.00026385,0.00
 013147,0.00000621,-0.00002280,-0.00000837,0.00000380,0.00003037,-0.000
 01430,0.00000136,-0.00000393,-0.00000032,-0.00001372,-0.00000116,0.000
 00126,-0.00065460,0.00022851,-0.00028416,0.00000051,-0.00000896,-0.000
 00559,-0.00001281,0.00000770,-0.00002782,-0.00010986,0.00001528,-0.000
 15368,0.00022192,0.00024109,0.00051024,0.00003732,0.00001826,-0.000011
 04,0.00012866,-0.00002341,-0.00003874,0.00159574,-0.00047746,-0.000072
 08,-0.00269804,0.00033596,0.00088892,-0.00002974,-0.00050937,-0.000507
 81,-0.00016374,0.00008770,0.00026267,-0.00020158,0.01034985,-0.0032478
 2,-0.00412815,0.02750182,-0.04792213,-0.00008417,-0.00023939,0.0000141
 1,0.00498226,-0.02555595,0.00522765,-0.00518570,0.01906911,-0.00124594
 ,0.00602334,-0.03104584,0.04621183,-0.00000106,0.00000687,-0.00001600,
 -0.00000216,-0.00000220,0.00001059,-0.00000319,-0.00000294,0.00000462,
 -0.00000564,0.00000177,0.00000175,-0.00000649,0.00000538,0.00000171,0.
 00001875,-0.00000786,-0.00000042,0.00000350,-0.00000300,-0.00000175,-0
 .00000334,-0.00000026,-0.00000087,-0.00000240,-0.00000084,0.00000007,-
 0.00000021,-0.00000328,-0.00000142,-0.00002588,-0.00002656,-0.00001720
 ,0.00000459,-0.00000359,0.00001963,0.00002783,0.00003926,-0.00013554,-
 0.00000440,0.00000314,0.00000036,0.00000934,0.00000730,-0.00000873,-0.
 00006514,-0.00003017,0.00013996,0.00000638,-0.00002154,-0.00000016,-0.
 00003748,0.00003373,0.00003507,0.00003010,-0.00001874,-0.00004875,-0.0
 0000582,0.00000230,0.00000258,-0.00000156,0.00000009,0.00000744,-0.000
 00724,-0.00002035,0.00000250,-0.00000126,-0.00003728,-0.00007449,-0.00
 002565,-0.00000259,-0.00000162,-0.00014391,0.00018652,-0.00003332,-0.0
 0000057,-0.00000534,0.00000456,-0.00000785,-0.00000685,0.00001849,-0.0
 0000485,-0.00000144,0.00000098,-0.00000178,-0.00003246,0.00003384,0.00
 065705,-0.00000693,0.00013531,0.00001364,0.00001373,0.00001388,-0.0000
 4029,0.00001081,-0.00007244,-0.00034330,0.00028445,0.00003499,0.000563
 17,-0.00133448,-0.00027068,0.00034558,-0.00143722,0.00276266,-0.001830
 29,0.00177318,0.00171720,-0.00063120,-0.00100572,0.00069480,-0.0091075
 0,-0.00814592,-0.01757073,-0.06327677,-0.00450095,-0.07596435,-0.00516
 934,0.00019986,-0.01860129,-0.00128443,0.00345174,-0.00153737,0.000978
 65,0.00020873,0.00028073,0.00715200,0.00075539,0.02332090,0.00023148,0
 .00002608,-0.00029028,0.00000620,-0.00037092,0.00037270,-0.00005408,-0
 .00004360,0.00003286,0.07205399,-0.00000301,0.00000513,-0.00001513,-0.
 00000159,-0.00000271,0.00000764,-0.00000235,-0.00000042,0.00000144,-0.
 00000131,0.00000022,0.00000094,-0.00000715,0.00000290,-0.00000025,0.00
 002751,-0.00001262,0.00000713,0.00000179,-0.00000128,-0.00000141,-0.00
 000214,0.00000020,-0.00000033,-0.00000161,-0.00000021,0.00000038,0.000
 00085,-0.00000119,-0.00000101,-0.00002493,-0.00003191,-0.00001433,-0.0
 0000705,-0.00000670,0.00001794,-0.00003573,0.00001936,-0.00008544,-0.0
 0000192,0.00000358,0.00000023,0.00000409,0.00001304,0.00000277,-0.0000
 6380,-0.00004576,0.00011498,0.00000538,-0.00001211,-0.00001021,-0.0000
 3888,0.00003085,0.00001301,0.00002621,-0.00001811,-0.00002816,-0.00000
 527,0.00000241,0.00000023,-0.00000118,0.00000217,0.00000471,0.00001995
 ,-0.00004526,0.00000886,-0.00001103,-0.00002674,-0.00001542,-0.0000198
 6,0.00000168,-0.00002034,-0.00024755,0.00048653,-0.00010816,0.00000001
 ,0.00001626,-0.00000499,-0.00001477,-0.00003791,0.00002359,-0.00000543
 ,0.00000280,-0.00000019,0.00002580,0.00001663,0.00001769,0.00125467,-0
 .00023174,0.00036292,-0.00000432,0.00000852,0.00001089,-0.00000404,0.0
 0001683,-0.00005172,-0.00036599,0.00028872,0.00015432,0.00036564,-0.00
 248621,-0.00042365,0.00073856,-0.00027765,-0.00333082,0.00493260,-0.00
 200473,-0.00150972,-0.00205547,-0.00276140,0.00093049,-0.01236599,-0.0
 1073366,-0.02535233,-0.00404942,-0.04322960,-0.00777969,0.00313039,0.0
 0375146,0.02570552,-0.00171132,0.00522693,-0.00266210,-0.00035683,-0.0
 0004398,-0.00112885,0.00013372,0.00059230,-0.00242939,0.00053208,-0.00
 053534,0.00068463,0.00022635,0.00009157,0.00019694,-0.00007415,0.00014
 169,0.00021648,0.01006334,0.05182412,-0.00000106,0.00000281,-0.0000107
 5,0.00000114,-0.00000238,0.00000880,-0.00000336,-0.00000395,0.00000388
 ,-0.00000343,0.00000152,0.00000090,-0.00000746,0.00000390,0.00000006,0
 .00002496,-0.00001009,0.00000384,0.00000305,-0.00000202,-0.00000101,-0
 .00000264,0.00000035,-0.00000072,-0.00000231,-0.00000048,0.00000050,0.
 00000074,-0.00000201,-0.00000088,-0.00000166,0.00000501,-0.00001789,0.
 00000676,-0.00000543,0.00001225,0.00001211,0.00001918,-0.00005051,-0.0
 0000419,-0.00000041,-0.00000121,0.00000546,-0.00000526,-0.00000810,0.0
 0002576,-0.00001731,0.00003759,0.00000739,-0.00000235,0.00001154,-0.00
 004142,0.00002752,0.00002029,0.00002714,-0.00001152,-0.00003607,-0.000
 00653,0.00000166,0.00000074,-0.00000023,0.00000219,0.00000672,-0.00000
 770,-0.00000798,0.00000116,-0.00000117,-0.00002315,-0.00003775,-0.0000
 1435,-0.00000238,-0.00000821,-0.00005823,0.00002531,-0.00000862,0.0000
 0675,-0.00000230,0.00000017,-0.00001791,-0.00000056,0.00001474,-0.0000
 0566,-0.00000125,0.00000010,0.00000660,-0.00001851,0.00002022,0.000317
 37,0.00001357,0.00009992,0.00000769,0.00000250,0.00001746,-0.00004337,
 0.00001062,-0.00001457,-0.00008773,-0.00001097,0.00007321,0.00078501,-
 0.00010907,-0.00029886,0.00019954,0.00050498,0.00198850,0.00010839,0.0
 0056015,0.00018421,0.00010786,-0.00099905,-0.00023209,-0.00352845,-0.0
 0673330,0.00307938,-0.07454401,-0.01197335,-0.29279987,-0.00077752,-0.
 00179093,-0.00555209,-0.00269862,0.00304574,0.00027984,0.00065331,0.00
 122158,0.00047795,-0.00586178,0.00053989,-0.01612635,0.00017102,-0.000
 78452,0.00014626,-0.00001832,-0.00015750,-0.00058407,0.00026339,0.0001
 9327,0.00025276,0.08500290,0.01649504,0.30905129,-0.00000728,0.0000181
 4,-0.00000310,-0.00001050,0.00000502,-0.00001086,-0.00000614,0.0000118
 4,-0.00001867,0.00001353,-0.00001132,0.00000814,-0.00004810,0.00000043
 ,-0.00001007,0.00018933,-0.00011714,0.00010760,-0.00000277,0.00000959,
 0.00000079,-0.00000004,0.00000323,0.00000086,-0.00000234,0.00000290,0.
 00000175,0.00000894,0.00000016,-0.00000624,-0.00005179,-0.00000551,-0.
 00000949,0.00001855,-0.00000856,0.00006400,0.00001690,-0.00004300,0.00
 010712,-0.00001400,0.00001864,0.00000257,-0.00002479,0.00001155,-0.000
 00368,0.00009261,-0.00000029,-0.00012508,-0.00002469,-0.00002025,-0.00
 001742,-0.00017015,0.00033075,-0.00001782,0.00047436,-0.00023502,0.000
 78443,-0.00001595,0.00001809,-0.00003332,-0.00018725,-0.00002602,0.000
 17364,-0.00245294,-0.00145725,0.00306622,-0.00121659,-0.00006714,0.000
 46011,0.00837556,0.00308586,0.02234444,-0.00399001,-0.00308229,-0.0007
 3263,0.00002260,0.00025907,-0.00005343,-0.06883042,-0.01288722,-0.0591
 9624,0.00069315,0.00093818,-0.00066896,-0.00036340,-0.00418957,-0.0281
 9194,0.00056376,-0.00063201,-0.00033742,0.00078031,0.00139917,0.000311
 40,0.00000551,-0.00003245,0.00000485,0.00003432,0.00002694,0.00001232,
 -0.00024999,0.00046572,-0.00054555,-0.00011809,-0.00009914,-0.00003793
 ,-0.00023496,-0.00031235,0.00007645,-0.00058728,0.00025685,-0.00009293
 ,0.00001071,-0.00005161,0.00001686,0.00000741,0.00003837,-0.00000509,0
 .00027951,0.00005305,0.00009951,0.00017145,0.00009179,0.00003514,-0.00
 002528,-0.00000780,-0.00001757,-0.00001352,-0.00000429,-0.00000078,-0.
 00000899,-0.00000156,-0.00000097,-0.00000691,-0.00000469,-0.00000307,-
 0.00000147,-0.00000057,-0.00000236,-0.00000716,-0.00000486,-0.00000526
 ,0.06691428,-0.00000118,-0.00000184,0.00001146,0.00001719,-0.00000368,
 0.00000933,-0.00000722,-0.00001716,0.00002259,-0.00002040,0.00001105,-
 0.00000728,0.00001901,0.00000286,0.00000287,-0.00011677,0.00006153,-0.
 00002644,0.00000517,-0.00000994,-0.00000182,-0.00000256,-0.00000058,-0
 .00000100,-0.00000270,-0.00000113,0.00000005,-0.00000363,-0.00000144,0
 .00000630,0.00015230,-0.00004233,0.00010589,0.00025240,0.00000990,-0.0
 0024260,-0.00021717,0.00004365,-0.00012410,0.00000800,-0.00000707,-0.0
 0000727,-0.00001464,0.00000926,0.00001381,-0.00014746,-0.00002228,-0.0
 0016321,-0.00002961,-0.00003108,-0.00001148,-0.00007722,-0.00000204,-0
 .00002506,0.00023928,0.00022655,0.00015949,-0.00001137,-0.00002375,-0.
 00001589,0.00005754,-0.00003475,0.00001025,-0.00203267,0.00665131,0.00
 001391,0.00009696,-0.00062742,0.00019011,0.00021674,0.00484744,0.00353
 340,-0.00309102,0.00599500,-0.00086616,0.00031187,-0.00112470,0.000080
 21,-0.01255042,-0.04782937,-0.04506463,0.00099578,-0.00390833,0.000313
 20,-0.00169981,0.00357972,-0.00766692,0.00015408,-0.00018929,-0.000426
 24,0.00132686,-0.00396209,0.00055931,-0.00010232,0.00023890,0.00027845
 ,0.00008025,-0.00000904,0.00004461,0.00000506,0.00045096,0.00044872,-0
 .00000549,0.00000208,0.00001259,0.00005068,-0.00001359,-0.00009919,-0.
 00025450,0.00003903,0.00002653,0.00004581,-0.00007824,0.00000149,0.000
 00080,-0.00000214,0.00000463,-0.00001660,-0.00002074,-0.00002285,0.000
 11396,0.00014998,0.00003919,-0.00000753,0.00000204,-0.00000230,-0.0000
 0151,-0.00000330,-0.00000016,0.00000399,-0.00000032,0.00000003,0.00000
 198,0.00000039,0.00000183,0.00000217,-0.00000289,0.00000081,-0.0000006
 3,0.00000131,0.00000123,0.01625657,0.03564759,0.00002117,-0.00001740,0
 .00002554,0.00000938,-0.00000281,0.00000834,0.00000984,-0.00001613,0.0
 0002025,-0.00001885,0.00001306,-0.00000804,0.00006700,-0.00001002,0.00
 001366,-0.00027766,0.00017575,-0.00014171,0.00000259,-0.00001059,0.000
 00076,0.00000120,-0.00000433,-0.00000071,0.00000505,-0.00000338,-0.000
 00202,-0.00001269,-0.00000055,0.00000880,0.00009768,-0.00003748,0.0000
 5687,0.00008161,-0.00001809,-0.00014948,-0.00010954,0.00003944,0.00001
 887,0.00001642,-0.00001071,-0.00000250,0.00000919,0.00001617,0.0000015
 8,-0.00005556,-0.00003610,-0.00010745,-0.00001160,-0.00000579,-0.00000
 800,0.00031411,-0.00047199,-0.00002076,-0.00074267,0.00029781,-0.00040
 862,0.00002846,-0.00002586,0.00002517,0.00016005,-0.00000734,-0.000177
 56,0.00374625,-0.00022636,-0.00057460,0.00035927,0.00020364,0.00081603
 ,-0.00769203,-0.00361904,-0.01392352,-0.00152235,-0.00090613,0.0012065
 6,-0.00005330,0.00010444,-0.00008299,-0.05884031,-0.04497006,-0.331565
 97,-0.00013559,0.00055110,0.00079432,0.00209482,-0.00030062,-0.0033243
 1,0.00060732,-0.00023142,0.00007993,-0.00022447,0.00041645,0.00052377,
 -0.00003106,0.00004267,0.00010688,0.00006493,-0.00001526,-0.00001267,-
 0.00001739,0.00019365,-0.00010395,-0.00007796,-0.00007812,-0.00001841,
 -0.00014115,-0.00012890,-0.00000738,-0.00045725,0.00005821,-0.00011849
 ,0.00001338,-0.00004052,0.00001440,0.00002007,0.00002630,0.00000330,0.
 00016459,0.00004414,0.00004857,0.00011064,0.00016308,0.00002004,-0.000
 02510,-0.00002008,-0.00001152,-0.00000962,-0.00000439,0.00000059,-0.00
 000857,-0.00000067,-0.00000209,-0.00000766,-0.00000303,-0.00000230,0.0
 0000337,0.00000013,-0.00000052,-0.00000569,-0.00000512,-0.00000467,0.0
 6246970,0.04888225,0.34698600\\-0.00000046,-0.00000153,-0.00000008,-0.
 00000046,-0.00000113,-0.00000081,-0.00000042,-0.00000124,-0.00000065,-
 0.00000024,-0.00000078,-0.00000021,0.00000020,-0.00000014,0.00000010,-
 0.00000093,-0.00000119,-0.00000029,-0.00000071,-0.00000171,-0.00000142
 ,-0.00000054,-0.00000164,-0.00000104,-0.00000004,-0.00000068,0.,0.0000
 0041,0.00000007,0.00000077,-0.00000115,-0.00000026,-0.00000143,0.00000
 057,-0.00000170,-0.00000163,-0.00000009,0.00000025,0.00000050,-0.00000
 051,-0.00000210,-0.00000090,-0.00000040,-0.00000023,0.00000011,-0.0000
 0116,-0.00000137,-0.00000148,-0.00000057,-0.00000126,-0.00000077,0.000
 00197,0.00000210,-0.00000005,0.,0.00000043,0.00000125,0.00000031,-0.00
 000016,0.00000111,0.00000041,0.00000044,0.00000156,0.00000106,0.000000
 19,0.00000181,-0.00000019,0.00000022,0.00000019,0.00000064,-0.00000146
 ,0.00000128,0.00000096,0.00000041,0.00000109,0.00000048,0.00000118,0.0
 0000086,0.00000058,-0.00000145,0.00000102,0.00000048,-0.00000141,0.000
 00143,0.00000078,-0.00000150,0.00000120,0.00000024,0.00000021,0.000000
 92,0.00000038,-0.00000091,0.00000089,-0.00000124,-0.00000172,-0.000000
 12,0.00000351,-0.00000016,0.00000028,-0.00000275,0.00000013,-0.0000029
 2,-0.00000081,0.00000154,-0.00000205,-0.00000065,0.00000072,-0.0000014
 6,0.00000044,0.00000051,0.00000077,-0.00000083,0.00000229,0.00000057,-
 0.00000037,0.00000149,-0.00000051,-0.00000118,0.00000120,-0.00000165,0
 .00000081,0.00000160,0.00000012,0.00000028,0.00000212,0.00000068,-0.00
 000034,0.00000149,-0.00000105,0.00000024,0.00000264,0.00000035,0.00000
 029,0.00000197,0.00000031,0.00000071,0.00000217,0.00000112,-0.00000018
 ,0.00000223,-0.00000102,0.00000048,-0.00000191,0.00000125\\\@


 A warm smile is the universal language of kindness.
                             -- William Arthur Ward
 Job cpu time:       0 days 17 hours 37 minutes 41.2 seconds.
 Elapsed time:       0 days  0 hours 16 minutes 41.5 seconds.
 File lengths (MBytes):  RWF=   1476 Int=      0 D2E=      0 Chk=     26 Scr=      1
 Normal termination of Gaussian 16 at Wed Nov  8 08:36:34 2023.
