 Entering Gaussian System, Link 0=/apps/GAU16/avx2/g16/g16
 Initial command:
 /apps/GAU16/avx2/g16/l1.exe "/localscratch/ochdurg/scratch/Gau-196544.inp" -scrdir="/localscratch/ochdurg/scratch/"
 Entering Link 1 = /apps/GAU16/avx2/g16/l1.exe PID=    196545.
  
 Copyright (c) 1988-2019, Gaussian, Inc.  All Rights Reserved.
  
 This is part of the Gaussian(R) 16 program.  It is based on
 the Gaussian(R) 09 system (copyright 2009, Gaussian, Inc.),
 the Gaussian(R) 03 system (copyright 2003, Gaussian, Inc.),
 the Gaussian(R) 98 system (copyright 1998, Gaussian, Inc.),
 the Gaussian(R) 94 system (copyright 1995, Gaussian, Inc.),
 the Gaussian 92(TM) system (copyright 1992, Gaussian, Inc.),
 the Gaussian 90(TM) system (copyright 1990, Gaussian, Inc.),
 the Gaussian 88(TM) system (copyright 1988, Gaussian, Inc.),
 the Gaussian 86(TM) system (copyright 1986, Carnegie Mellon
 University), and the Gaussian 82(TM) system (copyright 1983,
 Carnegie Mellon University). Gaussian is a federally registered
 trademark of Gaussian, Inc.
  
 This software contains proprietary and confidential information,
 including trade secrets, belonging to Gaussian, Inc.
  
 This software is provided under written license and may be
 used, copied, transmitted, or stored only in accord with that
 written license.
  
 The following legend is applicable only to US Government
 contracts under FAR:
  
                    RESTRICTED RIGHTS LEGEND
  
 Use, reproduction and disclosure by the US Government is
 subject to restrictions as set forth in subparagraphs (a)
 and (c) of the Commercial Computer Software - Restricted
 Rights clause in FAR 52.227-19.
  
 Gaussian, Inc.
 340 Quinnipiac St., Bldg. 40, Wallingford CT 06492
  
  
 ---------------------------------------------------------------
 Warning -- This program may not be used in any manner that
 competes with the business of Gaussian, Inc. or will provide
 assistance to any competitor of Gaussian, Inc.  The licensee
 of this program is prohibited from giving any competitor of
 Gaussian, Inc. access to this program.  By using this program,
 the user acknowledges that Gaussian, Inc. is engaged in the
 business of creating and licensing software in the field of
 computational chemistry and represents and warrants to the
 licensee that it is not a competitor of Gaussian, Inc. and that
 it will not use this program in any manner prohibited above.
 ---------------------------------------------------------------
  

 Cite this work as:
 Gaussian 16, Revision C.01,
 M. J. Frisch, G. W. Trucks, H. B. Schlegel, G. E. Scuseria, 
 M. A. Robb, J. R. Cheeseman, G. Scalmani, V. Barone, 
 G. A. Petersson, H. Nakatsuji, X. Li, M. Caricato, A. V. Marenich, 
 J. Bloino, B. G. Janesko, R. Gomperts, B. Mennucci, H. P. Hratchian, 
 J. V. Ortiz, A. F. Izmaylov, J. L. Sonnenberg, D. Williams-Young, 
 F. Ding, F. Lipparini, F. Egidi, J. Goings, B. Peng, A. Petrone, 
 T. Henderson, D. Ranasinghe, V. G. Zakrzewski, J. Gao, N. Rega, 
 G. Zheng, W. Liang, M. Hada, M. Ehara, K. Toyota, R. Fukuda, 
 J. Hasegawa, M. Ishida, T. Nakajima, Y. Honda, O. Kitao, H. Nakai, 
 T. Vreven, K. Throssell, J. A. Montgomery, Jr., J. E. Peralta, 
 F. Ogliaro, M. J. Bearpark, J. J. Heyd, E. N. Brothers, K. N. Kudin, 
 V. N. Staroverov, T. A. Keith, R. Kobayashi, J. Normand, 
 K. Raghavachari, A. P. Rendell, J. C. Burant, S. S. Iyengar, 
 J. Tomasi, M. Cossi, J. M. Millam, M. Klene, C. Adamo, R. Cammi, 
 J. W. Ochterski, R. L. Martin, K. Morokuma, O. Farkas, 
 J. B. Foresman, and D. J. Fox, Gaussian, Inc., Wallingford CT, 2019.
 
 ******************************************
 Gaussian 16:  ES64L-G16RevC.01  3-Jul-2019
                 9-Apr-2026 
 ******************************************
 %oldchk=Pd_insertion_ts.chk
 %chk=Pd_insertion_ts_r.chk
 %nprocshared=8
 Will use up to    8 processors via shared memory.
 %mem=32GB
 Copying data from "Pd_insertion_ts.chk" to current chk file "Pd_insertion_ts_r.chk"
 IOpt=  2 FromEx=T IUOpen= 4 IOptOp= 5 NList=   0 IFRang= 0 IUIn= 4 IUOut= 2.
 ----------------------------------------------------------------------
 # opt=(ts,noeigen,calcall) geom=check freq=noraman b3lyp/gen empirical
 dispersion=gd3 pseudo=read
 ----------------------------------------------------------------------
 1/5=1,10=4,11=1,18=20,26=3,29=2,38=1/1,3;
 2/9=110,12=2,40=1/2;
 3/5=7,11=2,14=-4,16=1,17=8,25=1,30=1,71=2,74=-5,124=31,140=1/1,2,3;
 4//1;
 5/5=2,38=5/2;
 8/6=4,10=90,11=11/1;
 11/6=1,8=1,9=11,15=111,16=1/1,2,10;
 10/6=1/2;
 6/7=2,8=2,9=2,10=2,18=1,28=1/1;
 7/10=1,25=1/1,2,3,16;
 1/5=1,10=4,11=1,18=20,26=3/3(3);
 2/9=110/2;
 7/8=1,9=1,25=1,44=-1/16;
 99//99;
 2/9=110/2;
 3/5=7,6=1,11=2,14=-2,16=1,17=8,25=1,30=1,71=2,74=-5,82=7,124=31,140=1/1,2,3;
 4/5=5,16=3,69=1/1;
 5/5=2,38=5/2;
 8/6=4,10=90,11=11/1;
 11/6=1,8=1,9=11,15=111,16=1/1,2,10;
 10/6=1/2;
 7/10=1,25=1/1,2,3,16;
 1/5=1,10=4,11=1,18=20,26=3/3(-8);
 2/9=110/2;
 6/7=2,8=2,9=2,10=2,18=1,19=2,28=1/1;
 7/8=1,9=1,25=1,44=-1/16;
 99//99;
 ----
 int2
 ----
 Structure from the checkpoint file:  "Pd_insertion_ts_r.chk"
 Charge =  0 Multiplicity = 1
 Redundant internal coordinates found in file.  (old form).
 C,0,3.7068062005,1.9969697978,1.5126162139
 C,0,2.7665082555,0.871965821,1.889966166
 C,0,3.3329463098,-0.0905665661,0.8847658536
 C,0,3.2123651213,1.285251043,0.2590375286
 C,0,3.207763557,1.4723619384,-1.2480494235
 N,0,3.0218153226,2.7012792,-1.8113841154
 O,0,3.4367348355,0.468582142,-1.917324932
 C,0,2.8980071763,2.7125061443,-3.2781952608
 H,0,3.3869971162,3.0186713208,1.6985905353
 H,0,4.7625807841,1.8208302615,1.7553356466
 H,0,2.0959290747,0.7501351713,2.7385388224
 H,0,2.6896162787,-0.8679765484,0.481572352
 H,0,4.3617310235,-0.4218828919,1.0700608868
 H,0,2.9697372503,3.7449148546,-3.621347257
 H,0,3.7023027902,2.1173410478,-3.7120662919
 H,0,1.9355249804,2.2803855558,-3.5702907058
 C,0,2.5744427431,3.8704365722,-1.1126750646
 C,0,1.2383343145,4.2739100971,-1.2308540008
 C,0,3.4863766231,4.6491499652,-0.3945670682
 C,0,0.8231219228,5.4568205412,-0.6192563042
 H,0,0.5445114997,3.6401562238,-1.7714994435
 C,0,3.0568790707,5.8182632001,0.2344672935
 H,0,4.5238654629,4.3339065055,-0.3409248125
 C,0,1.7266193492,6.2267865819,0.1167458027
 H,0,-0.2141304971,5.7663849783,-0.70799812
 H,0,3.764738802,6.41824588,0.7986584205
 H,0,1.3981234739,7.1466192064,0.592486349
 Pd,0,0.9401604481,1.6690389163,0.7441881215
 O,0,0.1926348745,1.354110781,-2.0634714418
 O,0,0.9900053719,3.335595711,1.9695719856
 C,0,0.3636199054,0.2293894461,-1.5908117158
 O,0,0.6471352509,-0.0048819153,-0.3294881781
 C,0,-0.2761090217,3.5728202894,1.8602089829
 O,0,-0.9858281768,2.7908301609,1.1719908192
 C,0,-0.8441406215,4.7777099299,2.5524890299
 H,0,-0.6597210189,4.7031028891,3.6282686559
 H,0,-0.327247909,5.6693218003,2.1874162714
 H,0,-1.9148270265,4.8548715134,2.3607169438
 C,0,0.3434413047,-1.0224851337,-2.4415373519
 H,0,1.3785543378,-1.2142300388,-2.7443780155
 H,0,-0.0190798812,-1.885021876,-1.87883424
 H,0,-0.2651769891,-0.8559793374,-3.3316392181
 Recover connectivity data from disk.

 GradGradGradGradGradGradGradGradGradGradGradGradGradGradGradGradGradGrad
 Berny optimization.
 Initialization pass.
                           ----------------------------
                           !    Initial Parameters    !
                           ! (Angstroms and Degrees)  !
 --------------------------                            --------------------------
 ! Name  Definition              Value          Derivative Info.                !
 --------------------------------------------------------------------------------
 ! R1    R(1,2)                  1.514          calculate D2E/DX2 analytically  !
 ! R2    R(1,4)                  1.524          calculate D2E/DX2 analytically  !
 ! R3    R(1,9)                  1.0866         calculate D2E/DX2 analytically  !
 ! R4    R(1,10)                 1.0975         calculate D2E/DX2 analytically  !
 ! R5    R(2,3)                  1.5026         calculate D2E/DX2 analytically  !
 ! R6    R(2,11)                 1.0884         calculate D2E/DX2 analytically  !
 ! R7    R(2,28)                 2.2986         frozen, calculate D2E/DX2 analyt!
 ! R8    R(3,4)                  1.5162         calculate D2E/DX2 analytically  !
 ! R9    R(3,12)                 1.0866         calculate D2E/DX2 analytically  !
 ! R10   R(3,13)                 1.0966         calculate D2E/DX2 analytically  !
 ! R11   R(4,5)                  1.5187         calculate D2E/DX2 analytically  !
 ! R12   R(4,28)                 2.3549         frozen, calculate D2E/DX2 analyt!
 ! R13   R(5,6)                  1.3646         calculate D2E/DX2 analytically  !
 ! R14   R(5,7)                  1.228          calculate D2E/DX2 analytically  !
 ! R15   R(6,8)                  1.4721         calculate D2E/DX2 analytically  !
 ! R16   R(6,17)                 1.4336         calculate D2E/DX2 analytically  !
 ! R17   R(8,14)                 1.0903         calculate D2E/DX2 analytically  !
 ! R18   R(8,15)                 1.0906         calculate D2E/DX2 analytically  !
 ! R19   R(8,16)                 1.0947         calculate D2E/DX2 analytically  !
 ! R20   R(17,18)                1.4007         calculate D2E/DX2 analytically  !
 ! R21   R(17,19)                1.3977         calculate D2E/DX2 analytically  !
 ! R22   R(18,20)                1.3949         calculate D2E/DX2 analytically  !
 ! R23   R(18,21)                1.0841         calculate D2E/DX2 analytically  !
 ! R24   R(19,22)                1.3953         calculate D2E/DX2 analytically  !
 ! R25   R(19,23)                1.0857         calculate D2E/DX2 analytically  !
 ! R26   R(20,24)                1.3967         calculate D2E/DX2 analytically  !
 ! R27   R(20,25)                1.0861         calculate D2E/DX2 analytically  !
 ! R28   R(22,24)                1.3965         calculate D2E/DX2 analytically  !
 ! R29   R(22,26)                1.086          calculate D2E/DX2 analytically  !
 ! R30   R(24,27)                1.0864         calculate D2E/DX2 analytically  !
 ! R31   R(28,29)                2.9225         calculate D2E/DX2 analytically  !
 ! R32   R(28,30)                2.0692         calculate D2E/DX2 analytically  !
 ! R33   R(28,31)                2.8031         calculate D2E/DX2 analytically  !
 ! R34   R(28,32)                2.0101         calculate D2E/DX2 analytically  !
 ! R35   R(28,33)                2.5198         calculate D2E/DX2 analytically  !
 ! R36   R(28,34)                2.2696         calculate D2E/DX2 analytically  !
 ! R37   R(29,31)                1.2319         calculate D2E/DX2 analytically  !
 ! R38   R(30,33)                1.2928         calculate D2E/DX2 analytically  !
 ! R39   R(31,32)                1.3138         calculate D2E/DX2 analytically  !
 ! R40   R(31,39)                1.5137         calculate D2E/DX2 analytically  !
 ! R41   R(33,34)                1.2605         calculate D2E/DX2 analytically  !
 ! R42   R(33,35)                1.5012         calculate D2E/DX2 analytically  !
 ! R43   R(35,36)                1.094          calculate D2E/DX2 analytically  !
 ! R44   R(35,37)                1.0934         calculate D2E/DX2 analytically  !
 ! R45   R(35,38)                1.0905         calculate D2E/DX2 analytically  !
 ! R46   R(39,40)                1.0954         calculate D2E/DX2 analytically  !
 ! R47   R(39,41)                1.0918         calculate D2E/DX2 analytically  !
 ! R48   R(39,42)                1.0911         calculate D2E/DX2 analytically  !
 ! A1    A(2,1,4)               69.9092         calculate D2E/DX2 analytically  !
 ! A2    A(2,1,9)              118.2441         calculate D2E/DX2 analytically  !
 ! A3    A(2,1,10)             115.0282         calculate D2E/DX2 analytically  !
 ! A4    A(4,1,9)              118.9739         calculate D2E/DX2 analytically  !
 ! A5    A(4,1,10)             114.7752         calculate D2E/DX2 analytically  !
 ! A6    A(9,1,10)             113.3386         calculate D2E/DX2 analytically  !
 ! A7    A(1,2,3)               94.3089         calculate D2E/DX2 analytically  !
 ! A8    A(1,2,11)             131.3115         calculate D2E/DX2 analytically  !
 ! A9    A(1,2,28)              96.4053         calculate D2E/DX2 analytically  !
 ! A10   A(3,2,11)             133.0108         calculate D2E/DX2 analytically  !
 ! A11   A(3,2,28)             100.8472         calculate D2E/DX2 analytically  !
 ! A12   A(11,2,28)             86.4404         calculate D2E/DX2 analytically  !
 ! A13   A(2,3,4)               70.4175         calculate D2E/DX2 analytically  !
 ! A14   A(2,3,12)             118.903          calculate D2E/DX2 analytically  !
 ! A15   A(2,3,13)             115.7325         calculate D2E/DX2 analytically  !
 ! A16   A(4,3,12)             116.677          calculate D2E/DX2 analytically  !
 ! A17   A(4,3,13)             114.7398         calculate D2E/DX2 analytically  !
 ! A18   A(12,3,13)            113.7014         calculate D2E/DX2 analytically  !
 ! A19   A(1,4,3)               93.3537         calculate D2E/DX2 analytically  !
 ! A20   A(1,4,5)              139.442          calculate D2E/DX2 analytically  !
 ! A21   A(1,4,28)              93.8689         calculate D2E/DX2 analytically  !
 ! A22   A(3,4,5)              121.4383         calculate D2E/DX2 analytically  !
 ! A23   A(3,4,28)              98.0244         calculate D2E/DX2 analytically  !
 ! A24   A(5,4,28)             100.4538         calculate D2E/DX2 analytically  !
 ! A25   A(4,5,6)              121.402          calculate D2E/DX2 analytically  !
 ! A26   A(4,5,7)              116.0777         calculate D2E/DX2 analytically  !
 ! A27   A(6,5,7)              122.4495         calculate D2E/DX2 analytically  !
 ! A28   A(5,6,8)              115.4467         calculate D2E/DX2 analytically  !
 ! A29   A(5,6,17)             125.1529         calculate D2E/DX2 analytically  !
 ! A30   A(8,6,17)             116.9471         calculate D2E/DX2 analytically  !
 ! A31   A(6,8,14)             108.3786         calculate D2E/DX2 analytically  !
 ! A32   A(6,8,15)             109.2825         calculate D2E/DX2 analytically  !
 ! A33   A(6,8,16)             109.6822         calculate D2E/DX2 analytically  !
 ! A34   A(14,8,15)            110.0613         calculate D2E/DX2 analytically  !
 ! A35   A(14,8,16)            110.3427         calculate D2E/DX2 analytically  !
 ! A36   A(15,8,16)            109.077          calculate D2E/DX2 analytically  !
 ! A37   A(6,17,18)            119.4368         calculate D2E/DX2 analytically  !
 ! A38   A(6,17,19)            120.0758         calculate D2E/DX2 analytically  !
 ! A39   A(18,17,19)           120.3456         calculate D2E/DX2 analytically  !
 ! A40   A(17,18,20)           119.4211         calculate D2E/DX2 analytically  !
 ! A41   A(17,18,21)           118.9575         calculate D2E/DX2 analytically  !
 ! A42   A(20,18,21)           121.5935         calculate D2E/DX2 analytically  !
 ! A43   A(17,19,22)           119.8399         calculate D2E/DX2 analytically  !
 ! A44   A(17,19,23)           119.1502         calculate D2E/DX2 analytically  !
 ! A45   A(22,19,23)           121.009          calculate D2E/DX2 analytically  !
 ! A46   A(18,20,24)           120.3964         calculate D2E/DX2 analytically  !
 ! A47   A(18,20,25)           119.3514         calculate D2E/DX2 analytically  !
 ! A48   A(24,20,25)           120.2457         calculate D2E/DX2 analytically  !
 ! A49   A(19,22,24)           120.0195         calculate D2E/DX2 analytically  !
 ! A50   A(19,22,26)           119.7672         calculate D2E/DX2 analytically  !
 ! A51   A(24,22,26)           120.2024         calculate D2E/DX2 analytically  !
 ! A52   A(20,24,22)           119.9553         calculate D2E/DX2 analytically  !
 ! A53   A(20,24,27)           120.125          calculate D2E/DX2 analytically  !
 ! A54   A(22,24,27)           119.9184         calculate D2E/DX2 analytically  !
 ! A55   A(2,28,4)              43.9077         calculate D2E/DX2 analytically  !
 ! A56   A(2,28,29)            130.1462         calculate D2E/DX2 analytically  !
 ! A57   A(2,28,30)             87.9916         calculate D2E/DX2 analytically  !
 ! A58   A(2,28,31)            113.6128         calculate D2E/DX2 analytically  !
 ! A59   A(2,28,32)             95.3538         calculate D2E/DX2 analytically  !
 ! A60   A(2,28,33)            115.134          calculate D2E/DX2 analytically  !
 ! A61   A(2,28,34)            138.7379         calculate D2E/DX2 analytically  !
 ! A62   A(4,28,29)             91.7946         calculate D2E/DX2 analytically  !
 ! A63   A(4,28,30)            103.2985         calculate D2E/DX2 analytically  !
 ! A64   A(4,28,31)             86.7404         calculate D2E/DX2 analytically  !
 ! A65   A(4,28,32)             83.9671         calculate D2E/DX2 analytically  !
 ! A66   A(4,28,33)            132.8531         calculate D2E/DX2 analytically  !
 ! A67   A(4,28,34)            159.7525         calculate D2E/DX2 analytically  !
 ! A68   A(29,28,30)           131.4447         calculate D2E/DX2 analytically  !
 ! A69   A(29,28,32)            50.1957         calculate D2E/DX2 analytically  !
 ! A70   A(29,28,33)           112.548          calculate D2E/DX2 analytically  !
 ! A71   A(29,28,34)            90.9907         calculate D2E/DX2 analytically  !
 ! A72   A(30,28,31)           155.7745         calculate D2E/DX2 analytically  !
 ! A73   A(30,28,32)           172.1114         calculate D2E/DX2 analytically  !
 ! A74   A(30,28,34)            60.706          calculate D2E/DX2 analytically  !
 ! A75   A(31,28,33)           131.1255         calculate D2E/DX2 analytically  !
 ! A76   A(31,28,34)           103.6703         calculate D2E/DX2 analytically  !
 ! A77   A(32,28,33)           142.6907         calculate D2E/DX2 analytically  !
 ! A78   A(32,28,34)           112.8662         calculate D2E/DX2 analytically  !
 ! A79   A(29,31,32)           124.1305         calculate D2E/DX2 analytically  !
 ! A80   A(29,31,39)           122.5185         calculate D2E/DX2 analytically  !
 ! A81   A(32,31,39)           113.2631         calculate D2E/DX2 analytically  !
 ! A82   A(28,33,35)           173.3567         calculate D2E/DX2 analytically  !
 ! A83   A(30,33,34)           118.9326         calculate D2E/DX2 analytically  !
 ! A84   A(30,33,35)           118.6098         calculate D2E/DX2 analytically  !
 ! A85   A(34,33,35)           122.4563         calculate D2E/DX2 analytically  !
 ! A86   A(33,35,36)           109.5688         calculate D2E/DX2 analytically  !
 ! A87   A(33,35,37)           108.7628         calculate D2E/DX2 analytically  !
 ! A88   A(33,35,38)           110.3169         calculate D2E/DX2 analytically  !
 ! A89   A(36,35,37)           107.7132         calculate D2E/DX2 analytically  !
 ! A90   A(36,35,38)           110.0763         calculate D2E/DX2 analytically  !
 ! A91   A(37,35,38)           110.3504         calculate D2E/DX2 analytically  !
 ! A92   A(31,39,40)           106.7109         calculate D2E/DX2 analytically  !
 ! A93   A(31,39,41)           111.6003         calculate D2E/DX2 analytically  !
 ! A94   A(31,39,42)           109.8599         calculate D2E/DX2 analytically  !
 ! A95   A(40,39,41)           108.5396         calculate D2E/DX2 analytically  !
 ! A96   A(40,39,42)           109.1647         calculate D2E/DX2 analytically  !
 ! A97   A(41,39,42)           110.8428         calculate D2E/DX2 analytically  !
 ! A98   L(28,31,39,5,-1)      174.8725         calculate D2E/DX2 analytically  !
 ! A99   L(28,31,39,5,-2)      151.0186         calculate D2E/DX2 analytically  !
 ! D1    D(4,1,2,3)             41.5052         calculate D2E/DX2 analytically  !
 ! D2    D(4,1,2,11)          -150.8238         calculate D2E/DX2 analytically  !
 ! D3    D(4,1,2,28)           -59.9364         calculate D2E/DX2 analytically  !
 ! D4    D(9,1,2,3)            154.399          calculate D2E/DX2 analytically  !
 ! D5    D(9,1,2,11)           -37.9299         calculate D2E/DX2 analytically  !
 ! D6    D(9,1,2,28)            52.9575         calculate D2E/DX2 analytically  !
 ! D7    D(10,1,2,3)           -67.259          calculate D2E/DX2 analytically  !
 ! D8    D(10,1,2,11)          100.4121         calculate D2E/DX2 analytically  !
 ! D9    D(10,1,2,28)         -168.7005         calculate D2E/DX2 analytically  !
 ! D10   D(2,1,4,3)            -40.9947         calculate D2E/DX2 analytically  !
 ! D11   D(2,1,4,5)            168.3122         calculate D2E/DX2 analytically  !
 ! D12   D(2,1,4,28)            57.2914         calculate D2E/DX2 analytically  !
 ! D13   D(9,1,4,3)           -152.9233         calculate D2E/DX2 analytically  !
 ! D14   D(9,1,4,5)             56.3837         calculate D2E/DX2 analytically  !
 ! D15   D(9,1,4,28)           -54.6371         calculate D2E/DX2 analytically  !
 ! D16   D(10,1,4,3)            68.1118         calculate D2E/DX2 analytically  !
 ! D17   D(10,1,4,5)           -82.5812         calculate D2E/DX2 analytically  !
 ! D18   D(10,1,4,28)          166.398          calculate D2E/DX2 analytically  !
 ! D19   D(1,2,3,4)            -41.6012         calculate D2E/DX2 analytically  !
 ! D20   D(1,2,3,12)          -151.9614         calculate D2E/DX2 analytically  !
 ! D21   D(1,2,3,13)            67.1607         calculate D2E/DX2 analytically  !
 ! D22   D(11,2,3,4)           151.0689         calculate D2E/DX2 analytically  !
 ! D23   D(11,2,3,12)           40.7087         calculate D2E/DX2 analytically  !
 ! D24   D(11,2,3,13)         -100.1693         calculate D2E/DX2 analytically  !
 ! D25   D(28,2,3,4)            55.773          calculate D2E/DX2 analytically  !
 ! D26   D(28,2,3,12)          -54.5872         calculate D2E/DX2 analytically  !
 ! D27   D(28,2,3,13)          164.5349         calculate D2E/DX2 analytically  !
 ! D28   D(1,2,28,4)            49.3302         calculate D2E/DX2 analytically  !
 ! D29   D(1,2,28,29)           84.5277         calculate D2E/DX2 analytically  !
 ! D30   D(1,2,28,30)          -62.282          calculate D2E/DX2 analytically  !
 ! D31   D(1,2,28,31)          106.3991         calculate D2E/DX2 analytically  !
 ! D32   D(1,2,28,32)          124.878          calculate D2E/DX2 analytically  !
 ! D33   D(1,2,28,33)          -77.2453         calculate D2E/DX2 analytically  !
 ! D34   D(1,2,28,34)         -100.8074         calculate D2E/DX2 analytically  !
 ! D35   D(3,2,28,4)           -46.3221         calculate D2E/DX2 analytically  !
 ! D36   D(3,2,28,29)          -11.1246         calculate D2E/DX2 analytically  !
 ! D37   D(3,2,28,30)         -157.9343         calculate D2E/DX2 analytically  !
 ! D38   D(3,2,28,31)           10.7468         calculate D2E/DX2 analytically  !
 ! D39   D(3,2,28,32)           29.2257         calculate D2E/DX2 analytically  !
 ! D40   D(3,2,28,33)         -172.8976         calculate D2E/DX2 analytically  !
 ! D41   D(3,2,28,34)          163.5403         calculate D2E/DX2 analytically  !
 ! D42   D(11,2,28,4)         -179.4767         calculate D2E/DX2 analytically  !
 ! D43   D(11,2,28,29)        -144.2791         calculate D2E/DX2 analytically  !
 ! D44   D(11,2,28,30)          68.9112         calculate D2E/DX2 analytically  !
 ! D45   D(11,2,28,31)        -122.4077         calculate D2E/DX2 analytically  !
 ! D46   D(11,2,28,32)        -103.9288         calculate D2E/DX2 analytically  !
 ! D47   D(11,2,28,33)          53.9479         calculate D2E/DX2 analytically  !
 ! D48   D(11,2,28,34)          30.3858         calculate D2E/DX2 analytically  !
 ! D49   D(2,3,4,1)             41.2131         calculate D2E/DX2 analytically  !
 ! D50   D(2,3,4,5)           -160.6897         calculate D2E/DX2 analytically  !
 ! D51   D(2,3,4,28)           -53.1753         calculate D2E/DX2 analytically  !
 ! D52   D(12,3,4,1)           154.5024         calculate D2E/DX2 analytically  !
 ! D53   D(12,3,4,5)           -47.4005         calculate D2E/DX2 analytically  !
 ! D54   D(12,3,4,28)           60.1139         calculate D2E/DX2 analytically  !
 ! D55   D(13,3,4,1)           -68.8755         calculate D2E/DX2 analytically  !
 ! D56   D(13,3,4,5)            89.2217         calculate D2E/DX2 analytically  !
 ! D57   D(13,3,4,28)         -163.2639         calculate D2E/DX2 analytically  !
 ! D58   D(1,4,5,6)            -38.7778         calculate D2E/DX2 analytically  !
 ! D59   D(1,4,5,7)            138.2329         calculate D2E/DX2 analytically  !
 ! D60   D(3,4,5,6)            176.1626         calculate D2E/DX2 analytically  !
 ! D61   D(3,4,5,7)             -6.8267         calculate D2E/DX2 analytically  !
 ! D62   D(28,4,5,6)            69.9521         calculate D2E/DX2 analytically  !
 ! D63   D(28,4,5,7)          -113.0371         calculate D2E/DX2 analytically  !
 ! D64   D(1,4,28,2)           -48.6356         calculate D2E/DX2 analytically  !
 ! D65   D(1,4,28,29)          157.5202         calculate D2E/DX2 analytically  !
 ! D66   D(1,4,28,30)           24.0582         calculate D2E/DX2 analytically  !
 ! D67   D(1,4,28,31)         -178.255          calculate D2E/DX2 analytically  !
 ! D68   D(1,4,28,32)         -152.8226         calculate D2E/DX2 analytically  !
 ! D69   D(1,4,28,33)           33.9893         calculate D2E/DX2 analytically  !
 ! D70   D(1,4,28,34)           59.7659         calculate D2E/DX2 analytically  !
 ! D71   D(3,4,28,2)            45.3064         calculate D2E/DX2 analytically  !
 ! D72   D(3,4,28,29)         -108.5377         calculate D2E/DX2 analytically  !
 ! D73   D(3,4,28,30)          118.0002         calculate D2E/DX2 analytically  !
 ! D74   D(3,4,28,31)          -84.3129         calculate D2E/DX2 analytically  !
 ! D75   D(3,4,28,32)          -58.8805         calculate D2E/DX2 analytically  !
 ! D76   D(3,4,28,33)          127.9313         calculate D2E/DX2 analytically  !
 ! D77   D(3,4,28,34)          153.7079         calculate D2E/DX2 analytically  !
 ! D78   D(5,4,28,2)           169.4756         calculate D2E/DX2 analytically  !
 ! D79   D(5,4,28,29)           15.6315         calculate D2E/DX2 analytically  !
 ! D80   D(5,4,28,30)         -117.8306         calculate D2E/DX2 analytically  !
 ! D81   D(5,4,28,31)           39.8563         calculate D2E/DX2 analytically  !
 ! D82   D(5,4,28,32)           65.2887         calculate D2E/DX2 analytically  !
 ! D83   D(5,4,28,33)         -107.8995         calculate D2E/DX2 analytically  !
 ! D84   D(5,4,28,34)          -82.1229         calculate D2E/DX2 analytically  !
 ! D85   D(4,5,6,8)           -173.7524         calculate D2E/DX2 analytically  !
 ! D86   D(4,5,6,17)           -12.1517         calculate D2E/DX2 analytically  !
 ! D87   D(7,5,6,8)              9.4295         calculate D2E/DX2 analytically  !
 ! D88   D(7,5,6,17)           171.0302         calculate D2E/DX2 analytically  !
 ! D89   D(5,6,8,14)          -168.0092         calculate D2E/DX2 analytically  !
 ! D90   D(5,6,8,15)           -48.0635         calculate D2E/DX2 analytically  !
 ! D91   D(5,6,8,16)            71.4673         calculate D2E/DX2 analytically  !
 ! D92   D(17,6,8,14)           28.8191         calculate D2E/DX2 analytically  !
 ! D93   D(17,6,8,15)          148.7648         calculate D2E/DX2 analytically  !
 ! D94   D(17,6,8,16)          -91.7045         calculate D2E/DX2 analytically  !
 ! D95   D(5,6,17,18)         -101.442          calculate D2E/DX2 analytically  !
 ! D96   D(5,6,17,19)           82.8708         calculate D2E/DX2 analytically  !
 ! D97   D(8,6,17,18)           59.9114         calculate D2E/DX2 analytically  !
 ! D98   D(8,6,17,19)         -115.7758         calculate D2E/DX2 analytically  !
 ! D99   D(6,17,18,20)        -176.0213         calculate D2E/DX2 analytically  !
 ! D100  D(6,17,18,21)           5.8695         calculate D2E/DX2 analytically  !
 ! D101  D(19,17,18,20)         -0.346          calculate D2E/DX2 analytically  !
 ! D102  D(19,17,18,21)       -178.4552         calculate D2E/DX2 analytically  !
 ! D103  D(6,17,19,22)         177.1652         calculate D2E/DX2 analytically  !
 ! D104  D(6,17,19,23)          -2.491          calculate D2E/DX2 analytically  !
 ! D105  D(18,17,19,22)          1.5176         calculate D2E/DX2 analytically  !
 ! D106  D(18,17,19,23)       -178.1386         calculate D2E/DX2 analytically  !
 ! D107  D(17,18,20,24)         -0.663          calculate D2E/DX2 analytically  !
 ! D108  D(17,18,20,25)       -179.7363         calculate D2E/DX2 analytically  !
 ! D109  D(21,18,20,24)        177.3947         calculate D2E/DX2 analytically  !
 ! D110  D(21,18,20,25)         -1.6786         calculate D2E/DX2 analytically  !
 ! D111  D(17,19,22,24)         -1.6812         calculate D2E/DX2 analytically  !
 ! D112  D(17,19,22,26)        179.5171         calculate D2E/DX2 analytically  !
 ! D113  D(23,19,22,24)        177.9684         calculate D2E/DX2 analytically  !
 ! D114  D(23,19,22,26)         -0.8333         calculate D2E/DX2 analytically  !
 ! D115  D(18,20,24,22)          0.4985         calculate D2E/DX2 analytically  !
 ! D116  D(18,20,24,27)       -179.9103         calculate D2E/DX2 analytically  !
 ! D117  D(25,20,24,22)        179.5634         calculate D2E/DX2 analytically  !
 ! D118  D(25,20,24,27)         -0.8454         calculate D2E/DX2 analytically  !
 ! D119  D(19,22,24,20)          0.6801         calculate D2E/DX2 analytically  !
 ! D120  D(19,22,24,27)       -178.912          calculate D2E/DX2 analytically  !
 ! D121  D(26,22,24,20)        179.4766         calculate D2E/DX2 analytically  !
 ! D122  D(26,22,24,27)         -0.1156         calculate D2E/DX2 analytically  !
 ! D123  D(2,28,39,40)         -40.1137         calculate D2E/DX2 analytically  !
 ! D124  D(2,28,39,41)          70.9415         calculate D2E/DX2 analytically  !
 ! D125  D(2,28,39,42)        -164.1219         calculate D2E/DX2 analytically  !
 ! D126  D(4,28,39,40)          -2.1198         calculate D2E/DX2 analytically  !
 ! D127  D(4,28,39,41)         108.9354         calculate D2E/DX2 analytically  !
 ! D128  D(4,28,39,42)        -126.128          calculate D2E/DX2 analytically  !
 ! D129  D(30,28,39,40)        113.4285         calculate D2E/DX2 analytically  !
 ! D130  D(30,28,39,41)       -135.5163         calculate D2E/DX2 analytically  !
 ! D131  D(30,28,39,42)        -10.5797         calculate D2E/DX2 analytically  !
 ! D132  D(33,28,39,40)        151.2991         calculate D2E/DX2 analytically  !
 ! D133  D(33,28,39,41)        -97.6457         calculate D2E/DX2 analytically  !
 ! D134  D(33,28,39,42)         27.2908         calculate D2E/DX2 analytically  !
 ! D135  D(34,28,39,40)        161.6122         calculate D2E/DX2 analytically  !
 ! D136  D(34,28,39,41)        -87.3325         calculate D2E/DX2 analytically  !
 ! D137  D(34,28,39,42)         37.604          calculate D2E/DX2 analytically  !
 ! D138  D(2,28,33,35)          45.9665         calculate D2E/DX2 analytically  !
 ! D139  D(4,28,33,35)          -3.4706         calculate D2E/DX2 analytically  !
 ! D140  D(29,28,33,35)       -119.0299         calculate D2E/DX2 analytically  !
 ! D141  D(31,28,33,35)       -138.468          calculate D2E/DX2 analytically  !
 ! D142  D(32,28,33,35)       -172.249          calculate D2E/DX2 analytically  !
 ! D143  D(29,31,39,40)         92.1514         calculate D2E/DX2 analytically  !
 ! D144  D(29,31,39,41)       -149.4291         calculate D2E/DX2 analytically  !
 ! D145  D(29,31,39,42)        -26.0697         calculate D2E/DX2 analytically  !
 ! D146  D(32,31,39,40)        -84.5691         calculate D2E/DX2 analytically  !
 ! D147  D(32,31,39,41)         33.8504         calculate D2E/DX2 analytically  !
 ! D148  D(32,31,39,42)        157.2098         calculate D2E/DX2 analytically  !
 ! D149  D(28,33,35,36)        -73.9934         calculate D2E/DX2 analytically  !
 ! D150  D(28,33,35,37)         43.5087         calculate D2E/DX2 analytically  !
 ! D151  D(28,33,35,38)        164.6679         calculate D2E/DX2 analytically  !
 ! D152  D(30,33,35,36)        -59.3921         calculate D2E/DX2 analytically  !
 ! D153  D(30,33,35,37)         58.11           calculate D2E/DX2 analytically  !
 ! D154  D(30,33,35,38)        179.2693         calculate D2E/DX2 analytically  !
 ! D155  D(34,33,35,36)        121.0217         calculate D2E/DX2 analytically  !
 ! D156  D(34,33,35,37)       -121.4762         calculate D2E/DX2 analytically  !
 ! D157  D(34,33,35,38)         -0.3169         calculate D2E/DX2 analytically  !
 --------------------------------------------------------------------------------
 Trust Radius=3.00D-01 FncErr=1.00D-07 GrdErr=1.00D-06 EigMax=2.50D+02 EigMin=1.00D-04
 Number of steps in this run=    252 maximum allowed number of steps=    252.
 Search for a saddle point of order  1.
 GradGradGradGradGradGradGradGradGradGradGradGradGradGradGradGradGradGrad

                          Input orientation:                          
 ---------------------------------------------------------------------
 Center     Atomic      Atomic             Coordinates (Angstroms)
 Number     Number       Type             X           Y           Z
 ---------------------------------------------------------------------
      1          6           0        3.706806    1.996970    1.512616
      2          6           0        2.766508    0.871966    1.889966
      3          6           0        3.332946   -0.090567    0.884766
      4          6           0        3.212365    1.285251    0.259038
      5          6           0        3.207764    1.472362   -1.248049
      6          7           0        3.021815    2.701279   -1.811384
      7          8           0        3.436735    0.468582   -1.917325
      8          6           0        2.898007    2.712506   -3.278195
      9          1           0        3.386997    3.018671    1.698591
     10          1           0        4.762581    1.820830    1.755336
     11          1           0        2.095929    0.750135    2.738539
     12          1           0        2.689616   -0.867977    0.481572
     13          1           0        4.361731   -0.421883    1.070061
     14          1           0        2.969737    3.744915   -3.621347
     15          1           0        3.702303    2.117341   -3.712066
     16          1           0        1.935525    2.280386   -3.570291
     17          6           0        2.574443    3.870437   -1.112675
     18          6           0        1.238334    4.273910   -1.230854
     19          6           0        3.486377    4.649150   -0.394567
     20          6           0        0.823122    5.456821   -0.619256
     21          1           0        0.544511    3.640156   -1.771499
     22          6           0        3.056879    5.818263    0.234467
     23          1           0        4.523865    4.333907   -0.340925
     24          6           0        1.726619    6.226787    0.116746
     25          1           0       -0.214130    5.766385   -0.707998
     26          1           0        3.764739    6.418246    0.798658
     27          1           0        1.398123    7.146619    0.592486
     28         46           0        0.940160    1.669039    0.744188
     29          8           0        0.192635    1.354111   -2.063471
     30          8           0        0.990005    3.335596    1.969572
     31          6           0        0.363620    0.229389   -1.590812
     32          8           0        0.647135   -0.004882   -0.329488
     33          6           0       -0.276109    3.572820    1.860209
     34          8           0       -0.985828    2.790830    1.171991
     35          6           0       -0.844141    4.777710    2.552489
     36          1           0       -0.659721    4.703103    3.628269
     37          1           0       -0.327248    5.669322    2.187416
     38          1           0       -1.914827    4.854872    2.360717
     39          6           0        0.343441   -1.022485   -2.441537
     40          1           0        1.378554   -1.214230   -2.744378
     41          1           0       -0.019080   -1.885022   -1.878834
     42          1           0       -0.265177   -0.855979   -3.331639
 ---------------------------------------------------------------------
                    Distance matrix (angstroms):
                    1          2          3          4          5
     1  C    0.000000
     2  C    1.513997   0.000000
     3  C    2.211736   1.502581   0.000000
     4  C    1.523967   1.740552   1.516229   0.000000
     5  C    2.854038   3.225263   2.647134   1.518665   0.000000
     6  N    3.466157   4.136613   3.893640   2.515570   1.364610
     7  O    3.764758   3.886822   2.859219   2.335347   1.227979
     8  C    4.911010   5.487693   5.037523   3.827257   2.399041
     9  H    1.086618   2.242761   3.214435   2.259990   3.332549
    10  H    1.097542   2.214221   2.540705   2.220118   3.399884
    11  H    2.377479   1.088391   2.381904   2.771409   4.201270
    12  H    3.210241   2.239840   1.086648   2.226921   2.955884
    13  H    2.544726   2.211566   1.096587   2.212037   3.208339
    14  H    5.473222   6.218498   5.928566   4.600674   3.294495
    15  H    5.226071   5.814588   5.112939   4.086818   2.594599
    16  H    5.390149   5.699876   5.236576   4.157447   2.768447
    17  C    3.418227   4.247772   4.500516   2.995284   2.483985
    18  C    4.336409   4.862927   5.283172   3.879260   3.424561
    19  C    3.274141   4.472630   4.911736   3.437746   3.301218
    20  C    4.983080   5.576185   6.271747   4.886909   4.685916
    21  H    4.846193   5.099655   5.361847   4.097085   3.473650
    22  C    4.081465   5.224064   5.950913   4.535745   4.594288
    23  H    3.092648   4.477746   4.743055   3.372579   3.277718
    24  C    4.874520   5.735833   6.563466   5.162021   5.163430
    25  H    5.874808   6.291976   7.030116   5.723337   5.517214
    26  H    4.478926   5.740091   6.523688   5.190756   5.381543
    27  H    5.718002   6.551886   7.497054   6.144778   6.233744
    28  Pd   2.890043   2.298625   2.973449   2.354905   3.024850
    29  O    5.054807   4.742041   4.543209   3.810192   3.125684
    30  O    3.062962   3.038383   4.290077   3.474007   4.329339
    31  C    4.892085   4.278153   3.879144   3.556984   3.122758
    32  O    4.094184   3.191642   2.948785   2.931077   3.095613
    33  C    4.297411   4.068540   5.234231   4.468353   5.119625
    34  O    4.771484   4.275226   5.199688   4.552481   5.018084
    35  C    5.433688   5.360089   6.627931   5.823438   6.464313
    36  H    5.555691   5.425712   6.815238   6.166561   7.012389
    37  H    5.496828   5.716155   6.947678   5.955467   6.474041
    38  H    6.363147   6.164418   7.360361   6.591460   7.120779
    39  C    6.005386   5.312450   4.568359   4.566123   3.981585
    40  H    5.818467   5.268375   4.272347   4.316338   3.578098
    41  H    6.360348   5.437310   4.700387   5.006332   4.699195
    42  H    6.883515   6.280292   5.595571   5.437934   4.671599
                    6          7          8          9         10
     6  N    0.000000
     7  O    2.273393   0.000000
     8  C    1.472070   2.679065   0.000000
     9  H    3.543165   4.424960   5.010114   0.000000
    10  H    4.065334   4.132176   5.441338   1.824904   0.000000
    11  H    5.036470   4.853257   6.379288   2.809734   3.037122
    12  H    4.255302   2.845924   5.196069   4.132010   3.626201
    13  H    4.455585   3.251618   5.556457   3.630781   2.379085
    14  H    2.089941   3.722383   1.090306   5.385469   5.985408
    15  H    2.101580   2.451536   1.090576   5.494272   5.577149
    16  H    2.109723   2.875510   1.094724   5.514793   6.046961
    17  C    1.433620   3.600503   2.476888   3.047780   4.149014
    18  C    2.447649   4.448003   3.063348   3.843699   5.230224
    19  C    2.453037   4.449540   3.523078   2.655117   3.774940
    20  C    3.721348   5.779142   4.348145   4.229709   5.863314
    21  H    2.649550   4.294776   2.944420   4.528520   5.791427
    22  C    3.728582   5.778719   4.691457   3.176531   4.604555
    23  H    2.661555   4.313655   3.728259   2.679913   3.281287
    24  C    4.221898   6.341834   5.024733   3.943487   5.595935
    25  H    4.591697   6.546602   5.061372   5.129300   6.811980
    26  H    4.602184   6.548485   5.577138   3.536902   4.800745
    27  H    5.308109   7.419654   6.073976   4.713708   6.405921
    28  Pd   3.453948   3.841566   4.593643   2.952863   3.956811
    29  O    3.143672   3.365963   3.261875   5.208438   5.973736
    30  O    4.338921   5.414261   5.618520   2.432990   4.070963
    31  C    3.636605   3.099655   3.928899   5.266979   5.751543
    32  O    3.893383   3.244574   4.598423   4.556514   4.961513
    33  C    5.011635   6.139321   6.100685   3.708308   5.335622
    34  O    4.996974   5.873310   5.907154   4.410308   5.858788
    35  C    6.188745   7.541466   7.229496   4.661104   6.388577
    36  H    6.866646   8.091089   8.019922   4.789248   6.420026
    37  H    6.001325   7.619984   7.001281   4.589174   6.395619
    38  H    6.812843   8.135133   7.716893   5.649724   7.359325
    39  C    4.630033   3.473693   4.601735   6.537189   6.725101
    40  H    4.347643   2.784238   4.244167   6.456877   6.396143
    41  H    5.503249   4.181338   5.621821   6.960283   7.057252
    42  H    5.076375   4.178385   4.768928   7.324924   7.636817
                   11         12         13         14         15
    11  H    0.000000
    12  H    2.839832   0.000000
    13  H    3.048164   1.827918   0.000000
    14  H    7.083812   6.179902   6.427220   0.000000
    15  H    6.786751   5.246357   5.454470   1.787143   0.000000
    16  H    6.493745   5.186370   5.892503   1.793613   1.779940
    17  C    4.979669   5.000745   5.136413   2.542725   3.332003
    18  C    5.376666   5.610492   6.091001   2.998675   4.108326
    19  C    5.191533   5.642795   5.350398   3.390674   4.178813
    20  C    5.920111   6.685707   7.066449   4.068308   5.385841
    21  H    5.576698   5.477323   6.256660   3.051988   4.007045
    22  C    5.734084   6.700876   6.429641   4.378775   5.448718
    23  H    5.312381   5.576788   4.963336   3.677417   4.117368
    24  C    6.083083   7.169109   7.215083   4.656004   5.954046
    25  H    6.509820   7.339045   7.899029   4.765602   6.138273
    26  H    6.218966   7.371938   6.871493   5.226392   6.232842
    27  H    6.782882   8.118744   8.142068   5.638968   7.009426
    28  Pd   2.481455   3.092897   4.023095   5.242742   5.261997
    29  O    5.200636   4.201171   5.509496   3.981861   3.951981
    30  O    2.915302   4.772090   5.127992   5.945188   6.412622
    31  C    4.692051   3.302915   4.846575   4.824297   4.383022
    32  O    3.475895   2.361034   3.991347   5.503798   5.027894
    33  C    3.790195   5.515147   6.171835   6.372801   6.999745
    34  O    4.014441   5.231867   6.239255   6.287517   6.803394
    35  C    4.989988   6.974949   7.505628   7.329978   8.184886
    36  H    4.900120   7.221958   7.617407   8.163824   8.921543
    37  H    5.511254   7.399165   7.767740   6.950913   7.978580
    38  H    5.751328   7.581759   8.300910   7.802311   8.713490
    39  C    5.748616   3.751397   5.370167   5.569334   4.770189
    40  H    5.868197   3.499361   4.906842   5.281482   4.175595
    41  H    5.721665   3.734024   5.479805   6.607993   5.764403
    42  H    6.708315   4.824057   6.400913   5.631770   4.972550
                   16         17         18         19         20
    16  H    0.000000
    17  C    2.996056   0.000000
    18  C    3.151695   1.400694   0.000000
    19  C    4.254575   1.397747   2.427730   0.000000
    20  C    4.476135   2.413960   1.394894   2.792086   0.000000
    21  H    2.649442   2.146555   1.084127   3.401262   2.169230
    22  C    5.315091   2.416933   2.799875   1.395342   2.418503
    23  H    4.620093   2.147243   3.404451   1.085651   3.877358
    24  C    5.404809   2.789743   2.422431   2.418083   1.396730
    25  H    4.996592   3.396252   2.147211   3.878170   1.086093
    26  H    6.289326   3.400196   3.885848   2.151970   3.404105
    27  H    6.426332   3.876168   3.406253   3.401827   2.157398
    28  Pd   4.469812   3.311340   3.282538   4.081794   4.027402
    29  O    2.483174   3.592898   3.211225   4.948864   4.394940
    30  O    5.718178   3.506671   3.344373   3.680550   3.351041
    31  C    3.255120   4.286441   4.153654   5.542282   5.336768
    32  O    4.169556   4.398408   4.412487   5.452113   5.472214
    33  C    6.004335   4.129438   3.512796   4.516503   3.302350
    34  O    5.593218   4.365865   3.594452   5.089997   3.686241
    35  C    7.172977   5.093455   4.347896   5.239756   3.647043
    36  H    8.026464   5.799112   5.234300   5.777218   4.561621
    37  H    7.053809   4.748305   4.010336   4.717109   3.040710
    38  H    7.525293   5.760825   4.814491   6.066870   4.091326
    39  C    3.836375   5.539307   5.506214   6.799675   6.747755
    40  H    3.633825   5.472334   5.694743   6.659110   7.023358
    41  H    4.902257   6.359140   6.319289   7.562187   7.496565
    42  H    3.838858   5.943589   5.743658   7.280590   6.956498
                   21         22         23         24         25
    21  H    0.000000
    22  C    3.883303   0.000000
    23  H    4.285218   2.164819   0.000000
    24  C    3.413723   1.396546   3.408378   0.000000
    25  H    2.495480   3.404473   4.963400   2.158398   0.000000
    26  H    4.969241   1.085982   2.493871   2.157682   4.304223
    27  H    4.314205   2.155035   4.307305   1.086430   2.489110
    28  Pd   3.220330   4.685763   4.595860   4.667469   4.497719
    29  O    2.331323   5.780404   5.532261   5.554226   4.633673
    30  O    3.779793   3.666905   4.338570   3.512058   3.811569
    31  C    3.420336   6.466900   5.976363   6.382969   5.636619
    32  O    3.921254   6.327237   5.818441   6.340197   5.847441
    33  C    3.723877   4.335189   5.335166   3.754214   3.378055
    34  O    3.424533   5.136904   5.918338   4.502967   3.603304
    35  C    4.681801   4.655527   6.114270   3.826418   3.464847
    36  H    5.633607   5.155054   6.539142   4.510768   4.486906
    37  H    4.533265   3.910052   5.631087   2.969312   2.899248
    38  H    4.959747   5.492442   7.001931   4.491958   3.624947
    39  C    4.714828   7.830682   7.111923   7.810886   7.028855
    40  H    5.020676   7.819607   6.815526   7.979718   7.443956
    41  H    5.554885   8.559683   7.853572   8.534122   7.742928
    42  H    4.827511   8.264302   7.669043   8.125527   7.123328
                   26         27         28         29         30
    26  H    0.000000
    27  H    2.484734   0.000000
    28  Pd   5.525955   5.498784   0.000000
    29  O    6.826213   6.485404   2.922486   0.000000
    30  O    4.309631   4.072693   2.069169   4.563718   0.000000
    31  C    7.455141   7.327009   2.803072   1.231926   4.766257
    32  O    7.228329   7.249689   2.010138   2.249473   4.069647
    33  C    5.054878   4.145143   2.519761   4.531850   1.292781
    34  O    5.988774   4.999195   2.269551   3.731106   2.199278
    35  C    5.197023   3.805403   4.014663   5.839780   2.404907
    36  H    5.524876   4.406980   4.481416   6.658691   2.709787
    37  H    4.385646   2.775449   4.437510   6.079586   2.688659
    38  H    6.094394   4.399362   4.573144   6.022472   3.301400
    39  C    8.807305   8.777922   4.212983   2.411200   6.234485
    40  H    8.746523   9.002158   4.547035   2.909710   6.563018
    41  H    9.509496   9.470292   4.520148   3.251291   6.563789
    42  H    9.285146   9.066803   4.943776   2.588888   6.873691
                   31         32         33         34         35
    31  C    0.000000
    32  O    1.313850   0.000000
    33  C    4.847404   4.295010   0.000000
    34  O    4.001883   3.568895   1.260498   0.000000
    35  C    6.269996   5.779523   1.501223   2.423539   0.000000
    36  H    6.949830   6.287832   2.133244   3.129926   1.094019
    37  H    6.659217   6.283376   2.122498   3.122584   1.093356
    38  H    6.496228   6.117030   2.139991   2.556634   1.090459
    39  C    1.513714   2.364000   6.325006   5.419033   7.745509
    40  H    2.108280   2.798069   6.845143   6.080194   8.300634
    41  H    2.167983   2.525716   6.620767   5.666192   8.044212
    42  H    2.145668   3.251091   6.824198   5.839627   8.166800
                   36         37         38         39         40
    36  H    0.000000
    37  H    1.766401   0.000000
    38  H    1.790255   1.792699   0.000000
    39  C    8.404239   8.164393   7.918633   0.000000
    40  H    8.931966   8.638035   8.587337   1.095417   0.000000
    41  H    8.610574   8.584723   8.184975   1.091799   1.775531
    42  H    8.916242   8.546542   8.230315   1.091064   1.781873
                   41         42
    41  H    0.000000
    42  H    1.797258   0.000000
 Stoichiometry    C16H19NO5Pd
 Framework group  C1[X(C16H19NO5Pd)]
 Deg. of freedom   120
 Full point group                 C1      NOp   1
 Largest Abelian subgroup         C1      NOp   1
 Largest concise Abelian subgroup C1      NOp   1
                         Standard orientation:                         
 ---------------------------------------------------------------------
 Center     Atomic      Atomic             Coordinates (Angstroms)
 Number     Number       Type             X           Y           Z
 ---------------------------------------------------------------------
      1          6           0        0.030990    0.258215   -2.665312
      2          6           0       -0.650508   -1.068531   -2.405521
      3          6           0       -2.032044   -0.479259   -2.362325
      4          6           0       -1.068624    0.429531   -1.624170
      5          6           0       -1.561248    1.462162   -0.625503
      6          7           0       -0.690200    2.226351    0.095226
      7          8           0       -2.778808    1.603563   -0.551434
      8          6           0       -1.301971    3.081321    1.125640
      9          1           0        1.067515    0.372401   -2.359835
     10          1           0       -0.186494    0.708482   -3.642327
     11          1           0       -0.280794   -2.090364   -2.466880
     12          1           0       -2.794320   -0.971031   -1.764079
     13          1           0       -2.407712   -0.076479   -3.310558
     14          1           0       -0.549524    3.787572    1.477490
     15          1           0       -2.146276    3.618999    0.692733
     16          1           0       -1.659326    2.461679    1.954351
     17          6           0        0.721312    1.996589    0.195771
     18          6           0        1.239016    1.384359    1.344291
     19          6           0        1.579777    2.462195   -0.804202
     20          6           0        2.619503    1.236417    1.478817
     21          1           0        0.551821    1.008795    2.093990
     22          6           0        2.957945    2.288090   -0.672600
     23          1           0        1.159387    2.960926   -1.672061
     24          6           0        3.479389    1.681499    0.472163
     25          1           0        3.019481    0.757654    2.367863
     26          1           0        3.623311    2.643287   -1.453932
     27          1           0        4.553822    1.562735    0.580880
     28         46           0       -0.155848   -1.176202   -0.163335
     29          8           0       -1.543558   -0.012542    2.130370
     30          8           0        1.847277   -1.206555   -0.681052
     31          6           0       -2.359644   -0.684218    1.497522
     32          8           0       -2.060530   -1.401722    0.438315
     33          6           0        2.210554   -1.850579    0.379393
     34          8           0        1.330139   -2.206366    1.208331
     35          6           0        3.670050   -2.138621    0.580822
     36          1           0        4.045109   -2.733854   -0.256977
     37          1           0        4.217571   -1.192261    0.587960
     38          1           0        3.824565   -2.673211    1.518606
     39          6           0       -3.836583   -0.694522    1.828999
     40          1           0       -4.303150    0.081602    1.212652
     41          1           0       -4.296471   -1.654330    1.585486
     42          1           0       -3.981725   -0.450674    2.882514
 ---------------------------------------------------------------------
 Rotational constants (GHZ):           0.3172803           0.2451537           0.2060454
 General basis read from cards:  (5D, 7F)
 ======================================================================================================
                                       Pseudopotential Parameters
 ======================================================================================================
  Center     Atomic      Valence      Angular      Power
  Number     Number     Electrons     Momentum     of R      Exponent        Coefficient   SO-Coeffient
 ======================================================================================================
    1          6
                                   No pseudopotential on this center.
    2          6
                                   No pseudopotential on this center.
    3          6
                                   No pseudopotential on this center.
    4          6
                                   No pseudopotential on this center.
    5          6
                                   No pseudopotential on this center.
    6          7
                                   No pseudopotential on this center.
    7          8
                                   No pseudopotential on this center.
    8          6
                                   No pseudopotential on this center.
    9          1
                                   No pseudopotential on this center.
   10          1
                                   No pseudopotential on this center.
   11          1
                                   No pseudopotential on this center.
   12          1
                                   No pseudopotential on this center.
   13          1
                                   No pseudopotential on this center.
   14          1
                                   No pseudopotential on this center.
   15          1
                                   No pseudopotential on this center.
   16          1
                                   No pseudopotential on this center.
   17          6
                                   No pseudopotential on this center.
   18          6
                                   No pseudopotential on this center.
   19          6
                                   No pseudopotential on this center.
   20          6
                                   No pseudopotential on this center.
   21          1
                                   No pseudopotential on this center.
   22          6
                                   No pseudopotential on this center.
   23          1
                                   No pseudopotential on this center.
   24          6
                                   No pseudopotential on this center.
   25          1
                                   No pseudopotential on this center.
   26          1
                                   No pseudopotential on this center.
   27          1
                                   No pseudopotential on this center.
   28         46           18
                                      F and up 
                                                     0      598.3336444       -0.05631770    0.00000000
                                                     1      162.4298290      -20.12880360    0.00000000
                                                     2       51.5714771     -105.81979230    0.00000000
                                                     2       16.4888260      -42.57333450    0.00000000
                                                     2        5.8287656       -3.61650860    0.00000000
                                      S - F
                                                     0       73.3806304        3.00036510    0.00000000
                                                     1       14.7550438       32.43500930    0.00000000
                                                     2       17.8350204      459.08303830    0.00000000
                                                     2       12.7111477     -868.06290290    0.00000000
                                                     2        9.3292063      514.47260980    0.00000000
                                      P - F
                                                     0       55.6689877        4.95930990    0.00000000
                                                     1       64.2337771       21.17110290    0.00000000
                                                     2       17.6254952      605.05600920    0.00000000
                                                     2       11.9058155     -726.96418460    0.00000000
                                                     2        8.5100832      396.32748830    0.00000000
                                      D - F
                                                     0       49.9994728        3.05087450    0.00000000
                                                     1       39.7477547       22.25065800    0.00000000
                                                     2       11.4321366      674.83576980    0.00000000
                                                     2        9.1790080    -1040.85540480    0.00000000
                                                     2        7.5624429      505.93751470    0.00000000
   29          8
                                   No pseudopotential on this center.
   30          8
                                   No pseudopotential on this center.
   31          6
                                   No pseudopotential on this center.
   32          8
                                   No pseudopotential on this center.
   33          6
                                   No pseudopotential on this center.
   34          8
                                   No pseudopotential on this center.
   35          6
                                   No pseudopotential on this center.
   36          1
                                   No pseudopotential on this center.
   37          1
                                   No pseudopotential on this center.
   38          1
                                   No pseudopotential on this center.
   39          6
                                   No pseudopotential on this center.
   40          1
                                   No pseudopotential on this center.
   41          1
                                   No pseudopotential on this center.
   42          1
                                   No pseudopotential on this center.
 ======================================================================================================
 There are   449 symmetry adapted cartesian basis functions of A   symmetry.
 There are   425 symmetry adapted basis functions of A   symmetry.
   425 basis functions,   798 primitive gaussians,   449 cartesian basis functions
    90 alpha electrons       90 beta electrons
       nuclear repulsion energy      2402.1832379243 Hartrees.
 NAtoms=   42 NActive=   42 NUniq=   42 SFac= 1.00D+00 NAtFMM=   60 NAOKFM=F Big=F
 Integral buffers will be    131072 words long.
 Raffenetti 2 integral format.
 Two-electron integral symmetry is turned on.
 Nuclear repulsion after empirical dispersion term =     2402.1223870615 Hartrees.
 One-electron integrals computed using PRISM.
   1 Symmetry operations used in ECPInt.
 ECPInt:  NShTT=   11781 NPrTT=   63301 LenC2=   10341 LenP2D=   33521.
 LDataN:  DoStor=T MaxTD1= 5 Len=  102
 NBasis=   425 RedAO= T EigKep=  4.50D-04  NBF=   425
 NBsUse=   425 1.00D-06 EigRej= -1.00D+00 NBFU=   425
 Defaulting to unpruned grid for atomic number  46.
 ExpMin= 2.62D-02 ExpMax= 5.48D+03 ExpMxC= 8.25D+02 IAcc=3 IRadAn=         5 AccDes= 0.00D+00
 Harris functional with IExCor=  402 and IRadAn=       5 diagonalized for initial guess.
 HarFok:  IExCor=  402 AccDes= 0.00D+00 IRadAn=         5 IDoV= 1 UseB2=F ITyADJ=14
 ICtDFT=  3500011 ScaDFX=  1.000000  1.000000  1.000000  1.000000
 Defaulting to unpruned grid for atomic number  46.
 FoFCou: FMM=F IPFlag=           0 FMFlag=      100000 FMFlg1=           0
         NFxFlg=           0 DoJE=T BraDBF=F KetDBF=T FulRan=T
         wScrn=  0.000000 ICntrl=       500 IOpCl=  0 I1Cent=   200000004 NGrid=           0
         NMat0=    1 NMatS0=      1 NMatT0=    0 NMatD0=    1 NMtDS0=    0 NMtDT0=    0
 Petite list used in FoFCou.
 Requested convergence on RMS density matrix=1.00D-08 within 128 cycles.
 Requested convergence on MAX density matrix=1.00D-06.
 Requested convergence on             energy=1.00D-06.
 No special actions if energy rises.
 Defaulting to unpruned grid for atomic number  46.
 Defaulting to unpruned grid for atomic number  46.
 Defaulting to unpruned grid for atomic number  46.
 Defaulting to unpruned grid for atomic number  46.
 Defaulting to unpruned grid for atomic number  46.
 Defaulting to unpruned grid for atomic number  46.
 Defaulting to unpruned grid for atomic number  46.
 Defaulting to unpruned grid for atomic number  46.
 EnCoef did   100 forward-backward iterations
 EnCoef did   100 forward-backward iterations
 EnCoef did   100 forward-backward iterations
 EnCoef did     6 forward-backward iterations
 Restarting incremental Fock formation.
 SCF Done:  E(RB3LYP) =  -1178.78844804     A.U. after   25 cycles
            NFock= 25  Conv=0.62D-08     -V/T= 2.0808
 DoSCS=F DFT=T ScalE2(SS,OS)=  1.000000  1.000000
 Range of M.O.s used for correlation:     1   425
 NBasis=   425 NAE=    90 NBE=    90 NFC=     0 NFV=     0
 NROrb=    425 NOA=    90 NOB=    90 NVA=   335 NVB=   335
   1 Symmetry operations used in ECPInt.
 ECPInt:  NShTT=   11781 NPrTT=   63301 LenC2=   10341 LenP2D=   33521.
 LDataN:  DoStor=T MaxTD1= 6 Len=  172
 Symmetrizing basis deriv contribution to polar:
 IMax=3 JMax=2 DiffMx= 0.00D+00
 G2DrvN: will do    43 centers at a time, making    1 passes.
 Calling FoFCou, ICntrl=  3107 FMM=F I1Cent=   0 AccDes= 0.00D+00.
 Defaulting to unpruned grid for atomic number  46.
 Defaulting to unpruned grid for atomic number  46.
 Defaulting to unpruned grid for atomic number  46.
 Defaulting to unpruned grid for atomic number  46.
 Defaulting to unpruned grid for atomic number  46.
 Defaulting to unpruned grid for atomic number  46.
 Defaulting to unpruned grid for atomic number  46.
 Defaulting to unpruned grid for atomic number  46.
 End of G2Drv F.D. properties file   721 does not exist.
 End of G2Drv F.D. properties file   722 does not exist.
 End of G2Drv F.D. properties file   788 does not exist.
          IDoAtm=111111111111111111111111111111111111111111
          Differentiating once with respect to electric field.
                with respect to dipole field.
          Differentiating once with respect to nuclear coordinates.
 Defaulting to unpruned grid for atomic number  46.
 Keep R1 ints in memory in canonical form, NReq=4143017419.
 Defaulting to unpruned grid for atomic number  46.
          There are   129 degrees of freedom in the 1st order CPHF.  IDoFFX=6 NUNeed=     3.
    126 vectors produced by pass  0 Test12= 3.02D-14 1.00D-09 XBig12= 3.56D+02 6.75D+00.
 AX will form   126 AO Fock derivatives at one time.
    126 vectors produced by pass  1 Test12= 3.02D-14 1.00D-09 XBig12= 1.15D+02 1.60D+00.
    126 vectors produced by pass  2 Test12= 3.02D-14 1.00D-09 XBig12= 1.02D+00 1.30D-01.
    126 vectors produced by pass  3 Test12= 3.02D-14 1.00D-09 XBig12= 5.92D-03 6.79D-03.
    126 vectors produced by pass  4 Test12= 3.02D-14 1.00D-09 XBig12= 1.14D-05 2.77D-04.
    114 vectors produced by pass  5 Test12= 3.02D-14 1.00D-09 XBig12= 1.38D-08 1.21D-05.
     16 vectors produced by pass  6 Test12= 3.02D-14 1.00D-09 XBig12= 1.44D-11 3.49D-07.
      3 vectors produced by pass  7 Test12= 3.02D-14 1.00D-09 XBig12= 1.26D-14 8.67D-09.
 InvSVY:  IOpt=1 It=  1 EMax= 8.88D-15
 Solved reduced A of dimension   763 with   129 vectors.
 Isotropic polarizability for W=    0.000000      217.80 Bohr**3.
 End of Minotr F.D. properties file   721 does not exist.
 End of Minotr F.D. properties file   722 does not exist.
 End of Minotr F.D. properties file   788 does not exist.

 **********************************************************************

            Population analysis using the SCF Density.

 **********************************************************************

 Orbital symmetries:
       Occupied  (A) (A) (A) (A) (A) (A) (A) (A) (A) (A) (A) (A)
                 (A) (A) (A) (A) (A) (A) (A) (A) (A) (A) (A) (A)
                 (A) (A) (A) (A) (A) (A) (A) (A) (A) (A) (A) (A)
                 (A) (A) (A) (A) (A) (A) (A) (A) (A) (A) (A) (A)
                 (A) (A) (A) (A) (A) (A) (A) (A) (A) (A) (A) (A)
                 (A) (A) (A) (A) (A) (A) (A) (A) (A) (A) (A) (A)
                 (A) (A) (A) (A) (A) (A) (A) (A) (A) (A) (A) (A)
                 (A) (A) (A) (A) (A) (A)
       Virtual   (A) (A) (A) (A) (A) (A) (A) (A) (A) (A) (A) (A)
                 (A) (A) (A) (A) (A) (A) (A) (A) (A) (A) (A) (A)
                 (A) (A) (A) (A) (A) (A) (A) (A) (A) (A) (A) (A)
                 (A) (A) (A) (A) (A) (A) (A) (A) (A) (A) (A) (A)
                 (A) (A) (A) (A) (A) (A) (A) (A) (A) (A) (A) (A)
                 (A) (A) (A) (A) (A) (A) (A) (A) (A) (A) (A) (A)
                 (A) (A) (A) (A) (A) (A) (A) (A) (A) (A) (A) (A)
                 (A) (A) (A) (A) (A) (A) (A) (A) (A) (A) (A) (A)
                 (A) (A) (A) (A) (A) (A) (A) (A) (A) (A) (A) (A)
                 (A) (A) (A) (A) (A) (A) (A) (A) (A) (A) (A) (A)
                 (A) (A) (A) (A) (A) (A) (A) (A) (A) (A) (A) (A)
                 (A) (A) (A) (A) (A) (A) (A) (A) (A) (A) (A) (A)
                 (A) (A) (A) (A) (A) (A) (A) (A) (A) (A) (A) (A)
                 (A) (A) (A) (A) (A) (A) (A) (A) (A) (A) (A) (A)
                 (A) (A) (A) (A) (A) (A) (A) (A) (A) (A) (A) (A)
                 (A) (A) (A) (A) (A) (A) (A) (A) (A) (A) (A) (A)
                 (A) (A) (A) (A) (A) (A) (A) (A) (A) (A) (A) (A)
                 (A) (A) (A) (A) (A) (A) (A) (A) (A) (A) (A) (A)
                 (A) (A) (A) (A) (A) (A) (A) (A) (A) (A) (A) (A)
                 (A) (A) (A) (A) (A) (A) (A) (A) (A) (A) (A) (A)
                 (A) (A) (A) (A) (A) (A) (A) (A) (A) (A) (A) (A)
                 (A) (A) (A) (A) (A) (A) (A) (A) (A) (A) (A) (A)
                 (A) (A) (A) (A) (A) (A) (A) (A) (A) (A) (A) (A)
                 (A) (A) (A) (A) (A) (A) (A) (A) (A) (A) (A) (A)
                 (A) (A) (A) (A) (A) (A) (A) (A) (A) (A) (A) (A)
                 (A) (A) (A) (A) (A) (A) (A) (A) (A) (A) (A) (A)
                 (A) (A) (A) (A) (A) (A) (A) (A) (A) (A) (A) (A)
                 (A) (A) (A) (A) (A) (A) (A) (A) (A) (A) (A)
 The electronic state is 1-A.
 Alpha  occ. eigenvalues --  -19.15792 -19.14680 -19.14239 -19.12205 -19.09966
 Alpha  occ. eigenvalues --  -14.37059 -10.31178 -10.30139 -10.28189 -10.26867
 Alpha  occ. eigenvalues --  -10.26708 -10.23173 -10.22200 -10.20937 -10.20534
 Alpha  occ. eigenvalues --  -10.19810 -10.19760 -10.19650 -10.19425 -10.19242
 Alpha  occ. eigenvalues --  -10.18879 -10.16461  -3.38900  -2.12221  -2.11375
 Alpha  occ. eigenvalues --   -2.08538  -1.08314  -1.04849  -1.04315  -0.97914
 Alpha  occ. eigenvalues --   -0.95650  -0.94702  -0.93282  -0.85516  -0.75638
 Alpha  occ. eigenvalues --   -0.75237  -0.74805  -0.72361  -0.71611  -0.70432
 Alpha  occ. eigenvalues --   -0.65828  -0.62886  -0.61697  -0.59803  -0.56094
 Alpha  occ. eigenvalues --   -0.55400  -0.54347  -0.52666  -0.50583  -0.49201
 Alpha  occ. eigenvalues --   -0.48255  -0.47701  -0.47183  -0.47093  -0.46567
 Alpha  occ. eigenvalues --   -0.45327  -0.44818  -0.44537  -0.43798  -0.43444
 Alpha  occ. eigenvalues --   -0.43122  -0.42514  -0.42186  -0.40686  -0.39941
 Alpha  occ. eigenvalues --   -0.39376  -0.39146  -0.38216  -0.38002  -0.37474
 Alpha  occ. eigenvalues --   -0.36895  -0.36352  -0.36237  -0.35948  -0.35427
 Alpha  occ. eigenvalues --   -0.34784  -0.33603  -0.31600  -0.31409  -0.29760
 Alpha  occ. eigenvalues --   -0.29076  -0.27861  -0.27758  -0.27310  -0.27014
 Alpha  occ. eigenvalues --   -0.26065  -0.25248  -0.25027  -0.24115  -0.23450
 Alpha virt. eigenvalues --   -0.10669  -0.06752  -0.01907  -0.01460   0.00915
 Alpha virt. eigenvalues --    0.02372   0.03638   0.04273   0.04556   0.05832
 Alpha virt. eigenvalues --    0.08184   0.09371   0.11923   0.12315   0.13309
 Alpha virt. eigenvalues --    0.13481   0.14121   0.14334   0.14644   0.15014
 Alpha virt. eigenvalues --    0.15593   0.15908   0.16222   0.16692   0.16885
 Alpha virt. eigenvalues --    0.17396   0.17967   0.18362   0.18865   0.19359
 Alpha virt. eigenvalues --    0.19939   0.20056   0.20470   0.21697   0.22142
 Alpha virt. eigenvalues --    0.22362   0.22837   0.23890   0.24486   0.25365
 Alpha virt. eigenvalues --    0.27566   0.28448   0.29869   0.30696   0.31774
 Alpha virt. eigenvalues --    0.32900   0.33677   0.35459   0.37623   0.38246
 Alpha virt. eigenvalues --    0.39757   0.41264   0.42137   0.45122   0.47584
 Alpha virt. eigenvalues --    0.48023   0.50266   0.50445   0.51428   0.52495
 Alpha virt. eigenvalues --    0.53256   0.53779   0.54350   0.54995   0.55633
 Alpha virt. eigenvalues --    0.56627   0.57086   0.57246   0.57714   0.58204
 Alpha virt. eigenvalues --    0.59201   0.59807   0.60278   0.60727   0.60916
 Alpha virt. eigenvalues --    0.61429   0.62408   0.62747   0.63060   0.63565
 Alpha virt. eigenvalues --    0.64084   0.64405   0.64907   0.66911   0.67897
 Alpha virt. eigenvalues --    0.68239   0.69523   0.70376   0.70727   0.74145
 Alpha virt. eigenvalues --    0.75253   0.76099   0.77752   0.78491   0.78677
 Alpha virt. eigenvalues --    0.79901   0.80358   0.80794   0.81444   0.81846
 Alpha virt. eigenvalues --    0.82447   0.82970   0.83480   0.83903   0.84347
 Alpha virt. eigenvalues --    0.85107   0.85808   0.86412   0.86939   0.87183
 Alpha virt. eigenvalues --    0.88332   0.89120   0.89391   0.90162   0.91428
 Alpha virt. eigenvalues --    0.92018   0.93046   0.93379   0.94207   0.94698
 Alpha virt. eigenvalues --    0.94976   0.96135   0.96855   0.98940   0.98975
 Alpha virt. eigenvalues --    1.01046   1.01353   1.02128   1.03089   1.04283
 Alpha virt. eigenvalues --    1.05481   1.07240   1.09385   1.10555   1.11327
 Alpha virt. eigenvalues --    1.12067   1.12903   1.13520   1.14754   1.15060
 Alpha virt. eigenvalues --    1.16698   1.18063   1.18530   1.20627   1.20980
 Alpha virt. eigenvalues --    1.23468   1.24594   1.25796   1.26575   1.27944
 Alpha virt. eigenvalues --    1.30376   1.32611   1.33396   1.34049   1.36128
 Alpha virt. eigenvalues --    1.36515   1.37603   1.38414   1.39513   1.40091
 Alpha virt. eigenvalues --    1.40860   1.41859   1.42591   1.43807   1.44331
 Alpha virt. eigenvalues --    1.46297   1.46883   1.48650   1.49265   1.50717
 Alpha virt. eigenvalues --    1.51406   1.54070   1.55996   1.58186   1.60447
 Alpha virt. eigenvalues --    1.62734   1.64468   1.66035   1.67571   1.69474
 Alpha virt. eigenvalues --    1.70894   1.71933   1.72936   1.73935   1.74399
 Alpha virt. eigenvalues --    1.75245   1.76233   1.78480   1.79950   1.80139
 Alpha virt. eigenvalues --    1.81290   1.82202   1.82511   1.83506   1.84425
 Alpha virt. eigenvalues --    1.85558   1.86348   1.87158   1.87989   1.88795
 Alpha virt. eigenvalues --    1.89632   1.89675   1.90565   1.91339   1.92286
 Alpha virt. eigenvalues --    1.92920   1.93387   1.94487   1.94869   1.95964
 Alpha virt. eigenvalues --    1.96437   1.97454   1.98235   1.99160   1.99827
 Alpha virt. eigenvalues --    2.00951   2.01286   2.01819   2.01871   2.02827
 Alpha virt. eigenvalues --    2.04536   2.04597   2.05205   2.05603   2.06090
 Alpha virt. eigenvalues --    2.06612   2.07694   2.08101   2.08698   2.08904
 Alpha virt. eigenvalues --    2.10011   2.11128   2.12644   2.14039   2.14933
 Alpha virt. eigenvalues --    2.15413   2.18745   2.19000   2.21633   2.24013
 Alpha virt. eigenvalues --    2.26043   2.26569   2.28588   2.29530   2.30671
 Alpha virt. eigenvalues --    2.31520   2.32795   2.32956   2.33540   2.34145
 Alpha virt. eigenvalues --    2.36040   2.36300   2.36905   2.37785   2.38682
 Alpha virt. eigenvalues --    2.39565   2.39696   2.41623   2.42135   2.43279
 Alpha virt. eigenvalues --    2.44060   2.46871   2.47099   2.48903   2.49414
 Alpha virt. eigenvalues --    2.50736   2.52333   2.53055   2.54913   2.55098
 Alpha virt. eigenvalues --    2.55944   2.57872   2.58817   2.59388   2.60088
 Alpha virt. eigenvalues --    2.60696   2.63035   2.64012   2.64467   2.65252
 Alpha virt. eigenvalues --    2.66819   2.67674   2.68019   2.68427   2.69652
 Alpha virt. eigenvalues --    2.70704   2.72002   2.73697   2.74627   2.75623
 Alpha virt. eigenvalues --    2.78853   2.80663   2.82755   2.83495   2.84430
 Alpha virt. eigenvalues --    2.86575   2.87191   2.89583   2.89961   2.93357
 Alpha virt. eigenvalues --    2.94383   2.94664   2.98955   3.00729   3.01982
 Alpha virt. eigenvalues --    3.03774   3.04309   3.05496   3.08547   3.09425
 Alpha virt. eigenvalues --    3.10668   3.11893   3.20442   3.21115   3.23124
 Alpha virt. eigenvalues --    3.23697   3.25011   3.25726   3.26722   3.32527
 Alpha virt. eigenvalues --    3.34665   3.36051   3.39096   3.41809   3.42774
 Alpha virt. eigenvalues --    3.43226   3.44243   3.44718   3.44901   3.46465
 Alpha virt. eigenvalues --    3.46896   3.52899   3.57753   3.92085   6.97735
          Condensed to atoms (all electrons):
               1          2          3          4          5          6
     1  C    5.151984   0.249490  -0.052171   0.232000  -0.017482  -0.000319
     2  C    0.249490   5.182398   0.233001  -0.036905   0.010388   0.000400
     3  C   -0.052171   0.233001   5.135651   0.246402  -0.026884   0.003377
     4  C    0.232000  -0.036905   0.246402   5.402649   0.285947  -0.102469
     5  C   -0.017482   0.010388  -0.026884   0.285947   4.392710   0.300194
     6  N   -0.000319   0.000400   0.003377  -0.102469   0.300194   7.057653
     7  O    0.001801   0.001869   0.000512  -0.079971   0.582178  -0.096708
     8  C   -0.000063  -0.000008  -0.000071   0.006710  -0.034613   0.290659
     9  H    0.387044  -0.026290   0.011829  -0.025064  -0.000751   0.000340
    10  H    0.355943  -0.022924  -0.017529  -0.024423   0.000467   0.000029
    11  H   -0.023671   0.359581  -0.021621   0.007569  -0.000564   0.000014
    12  H    0.011058  -0.030623   0.393054  -0.025090  -0.001642   0.000034
    13  H   -0.015690  -0.024598   0.356157  -0.022098   0.000337  -0.000001
    14  H   -0.000001  -0.000001   0.000002  -0.000116   0.005078  -0.037963
    15  H   -0.000007  -0.000001  -0.000001   0.000274  -0.004591  -0.034558
    16  H   -0.000006   0.000004   0.000000  -0.000112  -0.002428  -0.041574
    17  C   -0.001153  -0.000155   0.000356   0.000753  -0.031812   0.257098
    18  C    0.000243   0.000040  -0.000019  -0.000675   0.000687  -0.069294
    19  C   -0.004110   0.000273   0.000107   0.003614  -0.006371  -0.060079
    20  C    0.000062  -0.000016   0.000000  -0.000077   0.000049   0.005536
    21  H    0.000020  -0.000021   0.000004  -0.000157  -0.000155  -0.006846
    22  C   -0.001305   0.000037   0.000000  -0.000058   0.000102   0.005645
    23  H    0.001099   0.000084  -0.000026  -0.000507   0.001621  -0.003418
    24  C   -0.000002   0.000000   0.000000   0.000003   0.000016   0.000367
    25  H    0.000000   0.000000   0.000000  -0.000001  -0.000001  -0.000132
    26  H   -0.000008  -0.000001   0.000000   0.000000  -0.000005  -0.000138
    27  H    0.000000   0.000000   0.000000   0.000000   0.000000   0.000003
    28  Pd  -0.088214   0.178352  -0.089552   0.175308  -0.023286  -0.005119
    29  O    0.000002  -0.000032  -0.000009  -0.001110   0.005495  -0.000512
    30  O   -0.007481   0.000185   0.000125   0.000692   0.000150  -0.000062
    31  C    0.000149  -0.000339   0.000587  -0.002182   0.006791  -0.001969
    32  O    0.000226  -0.001866  -0.008829  -0.006053   0.002463   0.000123
    33  C    0.000280   0.000409  -0.000020   0.000108   0.000006   0.000003
    34  O    0.000074  -0.000208   0.000032  -0.000407   0.000013   0.000003
    35  C   -0.000003   0.000014   0.000000  -0.000004   0.000000   0.000000
    36  H    0.000000  -0.000001   0.000000   0.000000   0.000000   0.000000
    37  H    0.000000   0.000000   0.000000   0.000000   0.000000   0.000000
    38  H    0.000000   0.000000   0.000000   0.000000   0.000000   0.000000
    39  C    0.000001   0.000011  -0.000119   0.000037  -0.000785   0.000017
    40  H    0.000000  -0.000006   0.000052   0.000120  -0.000327  -0.000043
    41  H    0.000000  -0.000001  -0.000002   0.000003   0.000024  -0.000002
    42  H    0.000000   0.000000   0.000002  -0.000006   0.000028   0.000004
               7          8          9         10         11         12
     1  C    0.001801  -0.000063   0.387044   0.355943  -0.023671   0.011058
     2  C    0.001869  -0.000008  -0.026290  -0.022924   0.359581  -0.030623
     3  C    0.000512  -0.000071   0.011829  -0.017529  -0.021621   0.393054
     4  C   -0.079971   0.006710  -0.025064  -0.024423   0.007569  -0.025090
     5  C    0.582178  -0.034613  -0.000751   0.000467  -0.000564  -0.001642
     6  N   -0.096708   0.290659   0.000340   0.000029   0.000014   0.000034
     7  O    8.034638   0.002728  -0.000043   0.000103   0.000003   0.001118
     8  C    0.002728   4.828595   0.000000  -0.000001   0.000000   0.000002
     9  H   -0.000043   0.000000   0.526876  -0.037145  -0.000026  -0.000213
    10  H    0.000103  -0.000001  -0.037145   0.604376  -0.000341  -0.000387
    11  H    0.000003   0.000000  -0.000026  -0.000341   0.526307  -0.000245
    12  H    0.001118   0.000002  -0.000213  -0.000387  -0.000245   0.514623
    13  H    0.000538  -0.000001  -0.000367   0.009472  -0.000265  -0.033191
    14  H    0.000782   0.374101   0.000001   0.000000   0.000000   0.000000
    15  H    0.008221   0.382068   0.000001  -0.000001   0.000000   0.000000
    16  H    0.001973   0.384172   0.000000   0.000000   0.000000  -0.000004
    17  C    0.001318  -0.042848  -0.000474   0.000063   0.000005   0.000006
    18  C    0.000011  -0.004786  -0.000423   0.000003  -0.000001  -0.000001
    19  C   -0.000052   0.000879   0.005954  -0.000111   0.000003   0.000001
    20  C    0.000000  -0.000162  -0.000071  -0.000001   0.000000   0.000000
    21  H   -0.000046   0.000770   0.000008   0.000000   0.000001   0.000001
    22  C    0.000000  -0.000098   0.002285   0.000005  -0.000001   0.000000
    23  H   -0.000052   0.000069  -0.001003   0.000201   0.000001   0.000000
    24  C    0.000000   0.000029   0.000109   0.000000   0.000000   0.000000
    25  H    0.000000   0.000001  -0.000001   0.000000   0.000000   0.000000
    26  H    0.000000   0.000002   0.000039  -0.000002   0.000000   0.000000
    27  H    0.000000   0.000000   0.000001   0.000000   0.000000   0.000000
    28  Pd   0.005093   0.001009  -0.020299   0.012972  -0.026167  -0.015081
    29  O   -0.001444  -0.007051  -0.000001   0.000000   0.000000   0.000018
    30  O    0.000000   0.000000   0.004291   0.000048  -0.001531  -0.000005
    31  C    0.006806   0.000048   0.000000  -0.000002   0.000018   0.000674
    32  O   -0.001600  -0.000038  -0.000028   0.000000  -0.000347   0.013318
    33  C    0.000000   0.000000   0.000293  -0.000011  -0.000211  -0.000003
[...]
 000546,0.00000452,0.00001193,0.00000441,0.00000308,-0.00000362,-0.0000
 0199,0.00000083,-0.00000078,-0.00000126,-0.00000529,0.00000105,0.00004
 667,-0.00003046,0.00000547,-0.00008112,0.00003953,0.00001676,-0.000037
 76,-0.00002580,-0.00002289,0.00015161,-0.00007732,0.00004525,0.0000190
 0,-0.00002718,-0.00000809,-0.00007470,0.00002414,-0.00002748,-0.000004
 63,-0.00000417,-0.00000144,0.00001594,0.00006582,-0.00003183,-0.000027
 10,0.00005304,-0.00005631,-0.00000546,0.00000565,-0.00000286,0.0000022
 3,-0.00004398,0.00001373,0.00064474,0.00015403,0.00081048,-0.00005616,
 0.00016431,-0.00006695,0.00178603,-0.00435931,-0.00079672,0.00006455,-
 0.00030114,0.00023728,-0.00015317,-0.00005829,-0.00043731,0.01688720,0
 .00171540,0.00182869,-0.00083954,0.00116984,0.00014365,-0.05048513,0.0
 0342185,-0.05722337,-0.03130399,0.00207445,-0.00234784,0.01158181,-0.0
 0220603,0.00137799,0.05194795,-0.00186102,0.05658530,-0.00007504,-0.00
 000956,0.00002629,-0.00010697,0.00006235,0.00031105,-0.00021783,-0.000
 01125,-0.00001179,0.00016399,0.00012105,-0.00011669,-0.00073833,0.0002
 4041,-0.00055686,0.00065146,0.00030700,-0.00005816,0.00016841,-0.00017
 894,0.00019726,-0.00001573,-0.00005842,0.00027841,0.00002541,0.0000008
 4,-0.00001944,-0.00000313,-0.00001750,-0.00001512,0.00003855,-0.000010
 70,0.00003418,0.00001676,0.00010938,-0.00005681,0.00001749,0.00012433,
 0.00002944,0.00000590,0.00003003,0.00000616,0.00002291,-0.00000414,0.0
 0000661,-0.00011617,-0.00002054,0.00022322,-0.00003097,-0.00019058,-0.
 00012294,-0.00018464,0.00004581,-0.00006857,-0.00002993,-0.00000492,0.
 00003359,0.00010053,0.00000986,0.00001801,0.00017430,-0.00022090,-0.00
 000445,0.00001019,0.00001651,0.00002504,0.00001388,-0.00000116,-0.0000
 0653,-0.00001674,0.00002705,0.00004171,-0.00001084,0.00001850,-0.00001
 026,0.00000654,0.00001418,0.00000257,0.00000604,0.00002120,0.00001124,
 0.00445660,0.00057687,-0.00108165,0.01998295,0.00825251,-0.00293993,-0
 .00027396,-0.00133155,-0.00040468,-0.08676235,-0.00754669,-0.00031214,
 0.01250647,-0.00677086,-0.01037687,-0.00083179,0.00001718,-0.00021794,
 -0.00011932,0.00035236,0.00020172,0.00005908,0.00002322,0.00000835,0.0
 0000034,0.00000471,0.00000699,0.00000493,0.00000340,-0.00000560,0.0000
 2021,-0.00001744,-0.00001422,0.54754899,0.00002994,0.00002601,0.000022
 36,-0.00007893,0.00004475,-0.00032234,0.00025553,-0.00013651,0.0000437
 3,-0.00052281,-0.00002557,-0.00012875,0.00054373,-0.00025964,0.0004513
 6,-0.00034593,-0.00004119,-0.00007108,-0.00028090,-0.00007105,-0.00051
 398,0.00008878,0.00004586,-0.00005235,-0.00003831,-0.00002827,0.000039
 23,0.00000686,-0.00001256,-0.00000717,-0.00003930,0.00004274,-0.000022
 53,0.00014851,-0.00003561,0.00003175,0.00001310,-0.00006194,-0.0000213
 0,-0.00001464,-0.00001591,-0.00002195,-0.00003306,-0.00000365,-0.00000
 345,0.00021261,0.00008402,-0.00023454,0.00011811,0.00001018,-0.0000393
 9,0.00020155,-0.00013992,0.00030487,-0.00001055,0.00003075,-0.00001235
 ,-0.00018109,-0.00001096,-0.00005355,-0.00000655,0.00054450,-0.0001802
 1,-0.00003012,-0.00002686,-0.00003431,-0.00003003,-0.00000714,-0.00000
 558,0.00002145,-0.00002477,-0.00005303,0.00001249,0.00000106,0.0000227
 3,-0.00001182,-0.00001236,-0.00000357,-0.00001189,-0.00003195,-0.00002
 075,0.00021121,-0.00012580,0.00291288,0.00491864,-0.04905501,-0.014294
 80,-0.00079410,0.00192405,0.00092570,-0.00567725,-0.14697308,-0.051635
 15,-0.00072026,0.00325466,-0.00780479,0.00176032,0.00013305,0.00054729
 ,-0.00018624,-0.00078324,-0.00079974,-0.00023163,-0.00003501,-0.000042
 87,0.00000175,-0.00000882,-0.00002580,-0.00000274,-0.00001967,0.000004
 00,-0.00003789,0.00006288,0.00003655,0.00922865,0.51521024,-0.00021884
 ,0.00002276,0.00001137,0.00034634,-0.00016470,0.00051016,-0.00040848,0
 .00011717,-0.00000696,0.00058845,0.00008117,-0.00022206,-0.00004275,0.
 00005451,-0.00098900,-0.00016150,-0.00033602,0.00035818,0.00018368,0.0
 0001177,0.00055532,-0.00006161,-0.00004073,-0.00029730,0.00005897,0.00
 003497,-0.00002739,-0.00009739,-0.00003974,-0.00003898,-0.00002932,-0.
 00001942,0.00001774,-0.00001732,-0.00006801,-0.00001177,-0.00007181,0.
 00011250,-0.00001547,0.00004355,0.00001891,0.00004565,-0.00002081,-0.0
 0000505,0.00001449,0.00005258,-0.00004028,0.00013350,0.00001432,0.0000
 5083,0.00009343,-0.00007921,0.00011196,-0.00016507,0.00003438,-0.00002
 368,0.00002175,0.00006159,0.00000368,0.00006815,-0.00004567,-0.0003209
 8,0.00005403,0.00003318,0.00001566,0.00004498,0.00002464,0.00002142,-0
 .00000882,-0.00002473,0.00002312,0.00004755,-0.00000471,0.00000555,-0.
 00003143,0.00000215,0.00000396,-0.00000975,0.00001282,0.00001814,-0.00
 000160,-0.00060223,0.00460738,0.00058884,-0.00435924,0.01425583,0.0141
 8399,0.00104324,-0.00218325,-0.00084749,0.00024417,-0.05588391,-0.1154
 5406,-0.00748581,-0.03206568,-0.04142438,-0.00183241,0.00029798,-0.000
 27988,0.00080477,0.00014506,0.00037266,0.00029909,-0.00006231,-0.00000
 910,-0.00000604,-0.00000565,0.00001247,0.00000509,0.00000587,-0.000012
 62,0.00003402,-0.00008618,-0.00005229,0.02434032,-0.06576261,0.5625494
 8,-0.00000954,-0.00001904,0.00002157,0.00003445,0.00000688,0.00002351,
 0.00000447,0.00003472,0.00001132,0.00005220,-0.00000103,0.00006376,0.0
 0050313,-0.00059368,-0.00041609,-0.00024387,0.00012331,0.00005227,-0.0
 0062452,0.00042672,0.00029338,0.00005579,-0.00001499,-0.00000029,0.000
 00273,0.00000340,-0.00000178,-0.00000540,-0.00000330,-0.00000163,-0.00
 000455,0.00000500,-0.00000097,0.00005798,0.00001395,0.00003502,-0.0000
 0906,-0.00000221,-0.00001167,-0.00001730,0.00000153,-0.00000800,0.0000
 1319,0.00000333,0.00001276,0.00003541,0.00004565,-0.00003978,-0.000005
 98,-0.00000116,-0.00003361,-0.00000776,0.00003606,0.00001633,0.0000006
 2,0.00000888,0.00000465,-0.00000682,0.00000474,-0.00000185,0.00000018,
 0.00001660,0.00000565,-0.00000095,-0.00000200,0.00000255,-0.00000045,-
 0.00000015,-0.00000111,-0.00000005,0.00000332,0.00000197,-0.00000116,-
 0.00000002,0.00000165,0.00000022,0.00000088,0.00000107,-0.00000028,0.0
 0000052,0.00000006,-0.00038477,0.00014912,0.00009527,0.00037940,-0.000
 97200,0.00077796,0.00003381,-0.00002182,-0.00002981,0.00085032,0.00239
 147,0.00023813,0.00004424,-0.00016578,-0.00086107,0.00002549,0.0000387
 8,0.00002532,0.00008876,-0.00007902,-0.00002055,0.00000444,-0.00000652
 ,-0.00000685,0.00000108,-0.00000470,-0.00000008,0.00000065,-0.00000242
 ,-0.00000243,0.00000044,-0.00000398,-0.00000135,-0.28612126,0.04373453
 ,0.06972224,0.30805465,-0.00002838,-0.00006229,0.00001592,0.00005441,-
 0.00001514,0.00002410,-0.00005973,0.00011596,-0.00000288,0.00008888,-0
 .00010478,0.00023237,0.00081108,-0.00231792,-0.00132916,-0.00031272,0.
 00084289,0.00005615,0.00062464,0.00177416,0.00154108,-0.00014385,0.000
 00655,-0.00006756,0.00001907,0.00000863,-0.00000965,-0.00000208,-0.000
 00098,0.00000385,0.00000439,0.00000510,0.00000077,0.00001005,0.0000344
 7,-0.00001913,0.00000687,0.00000422,-0.00001328,0.00003734,0.00006037,
 0.00001715,-0.00006675,-0.00004192,0.00002022,0.00017272,-0.00008125,-
 0.00011278,0.00006345,-0.00026577,-0.00019835,0.00003301,0.00008332,0.
 00009563,-0.00003921,0.00006980,0.00004925,-0.00005948,-0.00000482,-0.
 00001797,-0.00000804,0.00011279,-0.00001051,0.00000200,-0.00001070,0.0
 0000720,-0.00001035,-0.00000958,-0.00001493,-0.00000089,0.00001648,0.0
 0000403,-0.00000820,0.00001397,0.00000820,-0.00000022,0.00001076,0.000
 00615,-0.00000457,0.00000329,-0.00000229,-0.00085923,0.00029384,0.0004
 1085,-0.00500542,-0.00244618,0.00002983,0.00011415,-0.00012687,-0.0001
 0776,0.03083430,-0.00612865,-0.00796059,-0.00221245,-0.00024815,0.0003
 2533,-0.00002533,0.00002530,-0.00000495,0.00005768,-0.00000357,-0.0000
 3525,0.00002690,-0.00000979,0.00000557,0.00000050,-0.00000108,0.000003
 23,0.00000251,-0.00000565,-0.00000522,0.00000119,-0.00000850,-0.000003
 01,0.04689558,-0.05139402,-0.01352509,-0.04943835,0.05518267,-0.000075
 78,0.00005087,-0.00000920,0.00019987,-0.00008239,0.00004303,-0.0002298
 5,-0.00005770,-0.00000148,0.00024794,-0.00015614,0.00015406,0.00046519
 ,-0.00151755,-0.00100284,-0.00020141,0.00072055,-0.00009820,0.00039523
 ,0.00139943,0.00070789,0.00001441,-0.00001700,0.00017769,0.00002622,0.
 00002458,0.00000128,-0.00001828,-0.00001175,0.00000469,-0.00002177,0.0
 0002453,-0.00000129,0.00004613,-0.00001860,-0.00016883,0.00000309,0.00
 004898,-0.00000418,-0.00002070,0.00000196,-0.00002447,0.00003345,0.000
 00205,0.00001934,-0.00003912,0.00003271,-0.00004423,-0.00002622,-0.000
 11691,-0.00014523,0.00000747,0.00005562,0.00004424,-0.00001143,0.00002
 923,0.00002449,-0.00003156,0.00000456,-0.00000510,-0.00001136,0.000033
 46,-0.00000448,0.00000353,-0.00000600,0.00000528,-0.00000550,-0.000005
 99,-0.00000494,-0.00000350,0.00000681,0.00000374,-0.00000470,0.0000079
 6,0.00000319,-0.00000006,0.00000462,0.00000286,-0.00000184,0.00000323,
 -0.00000031,-0.00111812,0.00045737,0.00025344,-0.00184984,-0.00002742,
 0.00033202,0.00017661,-0.00014679,-0.00013340,0.02073847,-0.00315973,-
 0.00680192,-0.00249393,-0.00106882,-0.00050359,-0.00003148,0.00003863,
 0.00000671,0.00012683,-0.00006870,-0.00002567,0.00003268,-0.00001031,0
 .00000270,0.00000158,-0.00000319,0.00000102,0.00000222,-0.00000419,-0.
 00000364,0.00000244,-0.00001204,-0.00000583,0.07158832,-0.01280076,-0.
 06576222,-0.07740104,0.01547779,0.06803959,-0.00002194,0.00006286,0.00
 000114,0.00010736,-0.00002913,-0.00000745,-0.00007243,-0.00009987,-0.0
 0003161,0.00003945,-0.00000102,0.00002782,-0.00000216,0.00035294,0.000
 33460,-0.00003392,-0.00018297,-0.00001439,-0.00033941,-0.00028668,-0.0
 0045669,0.00004396,0.00001581,-0.00000256,0.00000724,0.00000914,0.0000
 1104,-0.00000818,-0.00000594,-0.00000501,-0.00002041,0.00000711,-0.000
 01118,-0.00002002,-0.00006498,-0.00003749,0.00000410,0.00002670,0.0000
 1001,-0.00001553,-0.00002013,-0.00000926,0.00001798,0.00001486,-0.0000
 0352,-0.00001081,0.00004313,-0.00004170,-0.00000627,0.00008802,0.00005
 421,0.00001784,-0.00000496,-0.00001391,0.00001081,-0.00001688,-0.00001
 208,-0.00000038,-0.00000451,0.00000302,0.00000562,0.00001934,0.0000051
 9,-0.00000211,-0.00000062,-0.00000375,-0.00000175,0.00000189,0.0000041
 6,-0.00000003,-0.00000718,-0.00000233,0.00000129,-0.00000261,-0.000001
 52,-0.00000129,-0.00000446,-0.00000295,0.00000026,-0.00000262,-0.00000
 154,-0.00009219,0.00001841,-0.00012686,0.00095489,0.00108013,0.0007505
 8,-0.00004115,0.00004316,0.00000662,-0.00141163,0.00302660,0.00055027,
 -0.00027660,0.00011678,-0.00107764,0.00009038,0.00002209,0.00004211,-0
 .00005009,-0.00003269,-0.00002766,-0.00000443,-0.00000472,-0.00000195,
 0.00000068,-0.00000128,-0.00000282,-0.00000003,-0.00000053,0.00000147,
 -0.00000095,0.00000225,0.00000081,-0.07668868,-0.07394050,0.04455143,-
 0.00841179,-0.02556147,0.01520005,0.07869371,0.00002921,0.00002967,0.0
 0002090,0.00007450,0.00001054,-0.00012206,0.00003431,-0.00007860,-0.00
 001364,-0.00008087,0.00002345,-0.00002144,0.00012913,-0.00004397,0.000
 39424,-0.00003281,0.00009517,-0.00010558,-0.00011313,-0.00005128,-0.00
 016902,0.00005666,0.00002331,0.00007193,-0.00000933,-0.00000664,0.0000
 2152,0.00000711,-0.00000131,-0.00000285,-0.00004588,0.00001365,-0.0000
 3246,-0.00001251,-0.00001734,0.00002424,0.00001276,0.00000547,0.000006
 31,-0.00002415,-0.00001407,-0.00001362,-0.00002371,-0.00000857,-0.0000
 0974,0.00005362,0.00003821,-0.00011103,0.00002545,-0.00000403,-0.00001
 880,0.00006684,-0.00004737,0.00010195,-0.00000650,0.00000997,-0.000005
 97,-0.00006588,-0.00000413,-0.00002551,0.00000878,0.00020901,-0.000043
 07,-0.00000955,-0.00001136,-0.00001172,-0.00001105,-0.00000432,-0.0000
 0066,0.00000821,-0.00001106,-0.00001873,0.00000530,-0.00000074,0.00001
 159,-0.00000429,-0.00000477,-0.00000088,-0.00000488,-0.00001309,-0.000
 00693,0.00040568,-0.00040942,0.00000034,0.00096222,-0.00653088,-0.0051
 3077,-0.00022064,0.00026999,0.00018442,-0.00885591,-0.01814112,0.02003
 553,0.00115146,0.00255591,-0.00063309,0.00028977,-0.00001968,0.0000976
 3,-0.00009986,-0.00000602,-0.00017314,-0.00005510,-0.00000812,0.000002
 19,0.00000173,0.00000068,-0.00000661,0.00000191,0.00000015,0.00000479,
 -0.00000313,0.00001386,0.00000952,-0.07437753,-0.21561153,0.11056816,0
 .00208200,0.00636397,-0.00397605,0.07931111,0.23341456,-0.00000488,0.0
 0001080,0.00001046,-0.00000229,-0.00000169,-0.00004658,0.00003302,-0.0
 0000562,-0.00000460,-0.00008086,0.00000629,0.00000250,0.00010181,-0.00
 009500,0.00001439,-0.00000268,0.00007459,0.00002525,0.00001809,0.00009
 151,0.00006430,-0.00004372,0.00000086,-0.00003588,-0.00000303,-0.00000
 215,0.00000815,0.00000853,-0.00000073,-0.00000095,-0.00001105,-0.00000
 199,-0.00001229,-0.00001578,-0.00001116,0.00000747,0.00001253,0.000000
 48,0.00000286,0.00000569,0.00001000,0.00000383,-0.00002397,-0.00001122
 ,0.00000120,0.00004357,-0.00002454,-0.00005222,0.00002721,-0.00004722,
 -0.00003608,0.00001281,-0.00002439,0.00005701,-0.00001123,0.00001211,0
 .00000394,-0.00002175,-0.00000278,-0.00001363,0.00002040,0.00010274,-0
 .00003976,-0.00000744,-0.00000356,-0.00000363,-0.00000555,-0.00000421,
 -0.00000162,0.00000542,-0.00000264,-0.00000418,-0.00000038,0.00000069,
 0.00000533,-0.00000062,0.00000039,0.00000217,-0.00000252,-0.00000262,-
 0.00000077,0.00010475,-0.00001293,0.00033246,0.00223955,-0.00541235,-0
 .00148567,-0.00012559,0.00025888,0.00014189,-0.00959021,-0.01196187,0.
 01289963,0.00059729,-0.00063551,-0.00086680,0.00024674,-0.00001782,0.0
 0004795,-0.00003978,-0.00006748,-0.00009763,-0.00003187,0.00000566,0.0
 0000186,0.00000227,0.00000145,-0.00000598,0.00000211,-0.00000337,0.000
 00153,-0.00000538,0.00000662,0.00000223,0.04554767,0.11387921,-0.12476
 384,0.00169830,0.00678553,-0.00483212,-0.05157066,-0.12144091,0.129367
 42,0.00003140,-0.00001732,0.00001289,-0.00006224,0.00004697,-0.0000038
 1,0.00009991,0.00002947,0.00001234,-0.00001017,0.00003921,-0.00007736,
 -0.00011637,0.00071772,0.00033411,0.00001167,-0.00032848,0.00015302,-0
 .00026367,-0.00070278,-0.00026731,-0.00006168,0.00001176,-0.00017984,-
 0.00000850,-0.00000952,-0.00000157,0.00000512,0.00000273,-0.00000230,0
 .00000760,-0.00000644,0.00000444,0.00002724,-0.00003190,0.00008345,-0.
 00000836,-0.00003047,0.00000084,0.00002659,0.00000686,0.00001871,-0.00
 002618,0.00000244,-0.00000771,0.00004830,-0.00004908,-0.00002129,0.000
 02493,0.00002405,0.00005684,-0.00000357,-0.00002175,0.00000331,0.00000
 366,-0.00000395,-0.00000840,0.00000519,-0.00000442,0.00000042,0.000008
 88,0.00002712,-0.00001215,-0.00000261,0.00000137,-0.00000295,0.0000004
 4,0.00000288,-0.00000002,0.00000189,-0.00000123,-0.00000273,0.00000258
 ,-0.00000144,-0.00000061,-0.00000084,-0.00000220,-0.00000129,0.0000004
 8,-0.00000209,-0.00000140,0.00035898,-0.00014025,0.00002027,0.00008243
 ,-0.00123355,0.00101566,-0.00011053,0.00016143,0.00008280,-0.00062050,
 0.00295610,0.00276985,0.00082580,0.00009744,-0.00022180,0.00008751,0.0
 0000818,0.00002768,-0.00010444,0.00000315,-0.00000324,-0.00001720,0.00
 000187,-0.00000501,0.00000079,-0.00000020,-0.00000254,-0.00000053,-0.0
 0000071,0.00000242,-0.00000107,0.00000632,0.00000407,-0.13365826,0.021
 71878,-0.12693112,-0.01438810,0.00398597,-0.02571421,0.00753860,-0.000
 66106,0.01087349,0.14026480,-0.00008625,0.00002705,0.00001415,0.000151
 15,-0.00005823,0.00018547,-0.00023095,-0.00001718,-0.00002993,0.000265
 56,0.00004081,-0.00001551,-0.00008431,0.00006881,-0.00041508,0.0000404
 9,-0.00002994,0.00016929,0.00004859,0.00008410,0.00025604,-0.00005142,
 -0.00001697,-0.00009863,0.00002719,0.00001674,-0.00000765,-0.00003087,
 -0.00001687,-0.00001707,-0.00002115,0.00000079,0.00000107,-0.00000504,
 -0.00003959,-0.00003345,-0.00001473,0.00006899,-0.00000001,0.00001677,
 0.00000862,0.00001606,0.00000845,0.00000556,0.00001007,-0.00002607,-0.
 00003245,0.00003446,0.00000220,-0.00001906,0.00000406,-0.00004469,0.00
 000131,-0.00003603,0.00000714,-0.00000129,0.00001390,0.00001617,0.0000
 0206,0.00002161,0.00000175,-0.00005822,-0.00001166,0.00001331,0.000004
 21,0.00001502,0.00000823,0.00000531,-0.00000417,-0.00000849,0.00000660
 ,0.00001465,-0.00000149,0.00000076,-0.00001307,0.00000246,0.00000353,-
 0.00000198,0.00000352,0.00000834,-0.00000028,0.00029973,0.00109318,-0.
 00027994,0.00154992,0.00170741,0.00140590,0.00028841,-0.00088808,-0.00
 034834,-0.01808933,0.00570218,-0.02175520,0.00041015,-0.00425006,-0.00
 484094,-0.00066931,0.00009326,-0.00010868,0.00020942,0.00011236,0.0001
 5170,0.00009479,-0.00001733,0.00000008,0.00000028,-0.00000253,0.000006
 20,0.00000255,0.00000205,-0.00000593,0.00001494,-0.00002694,-0.0000178
 5,0.02426973,-0.05646274,0.04004494,0.00220079,-0.00174092,0.00484312,
 0.01601341,-0.00202814,0.01854595,-0.02660297,0.05664252,-0.00004490,-
 0.00001609,-0.00000705,0.00009089,-0.00003500,0.00018906,-0.00013927,0
 .00006343,-0.00000617,0.00027434,0.00000435,0.00007517,-0.00010001,0.0
 0010522,-0.00043397,0.00002039,-0.00005202,0.00012176,0.00008609,0.000
 08675,0.00024103,-0.00001988,-0.00000905,-0.00006614,0.00002056,0.0000
 1148,-0.00001530,-0.00002320,-0.00000456,-0.00000473,0.00001005,-0.000
 00714,0.00001394,0.00003673,-0.00000931,-0.00001425,-0.00002552,0.0000
 2600,-0.00000705,0.00000982,0.00000045,0.00001245,0.00000937,0.0000063
 5,0.00000560,-0.00001733,-0.00001561,0.00004643,-0.00000920,0.00001240
 ,0.00001769,-0.00003818,-0.00001338,-0.00003942,0.00001218,-0.00000755
 ,0.00001342,0.00000762,0.00000432,0.00001924,-0.00000186,-0.00004663,-
 0.00000799,0.00001436,0.00000445,0.00001393,0.00000947,0.00000728,-0.0
 0000380,-0.00000638,0.00000513,0.00001344,0.00000036,-0.00000079,-0.00
 001309,0.00000139,0.00000169,-0.00000326,0.00000377,0.00000554,-0.0000
 0200,-0.00001825,0.00109563,0.00013313,0.00189972,0.00158678,0.0026356
 7,0.00037460,-0.00078672,-0.00042751,-0.01067847,0.00614215,-0.0162977
 4,-0.00053624,-0.00520198,-0.00319536,-0.00073243,0.00012563,-0.000101
 87,0.00028983,0.00007573,0.00016620,0.00010146,-0.00002546,-0.00000213
 ,-0.00000004,-0.00000253,0.00000655,0.00000125,0.00000164,-0.00000408,
 0.00001514,-0.00003245,-0.00001902,-0.12653750,0.03574703,-0.22925227,
 0.00573523,-0.00167984,0.00975590,-0.00808798,0.00053901,-0.01069959,0
 .13799202,-0.03771234,0.24714322\\0.00000036,-0.00000027,-0.00000057,0
 .00353574,-0.00154368,0.00221839,0.00000009,-0.00000039,-0.00000053,0.
 00851116,-0.00143683,-0.00181654,-0.00000045,0.00000019,-0.00000027,-0
 .00000044,-0.00000030,0.00000003,-0.00000054,0.,-0.00000051,-0.0000006
 1,0.00000025,-0.00000013,0.00000032,-0.00000044,-0.00000028,0.00000031
 ,-0.00000052,-0.00000069,0.00000048,-0.00000035,-0.00000020,-0.0000001
 6,-0.00000021,-0.00000056,0.,-0.00000038,-0.00000084,-0.00000060,0.000
 00025,-0.00000014,-0.00000076,0.00000020,-0.00000046,-0.00000073,0.000
 00034,-0.00000003,0.00000006,0.00000003,-0.00000005,-0.00000005,0.0000
 0022,0.00000029,0.00000014,-0.00000018,-0.00000018,0.00000023,0.000000
 02,0.00000053,-0.00000013,0.00000040,0.00000036,0.00000028,-0.00000016
 ,0.00000012,0.00000017,-0.00000011,-0.00000040,0.00000034,-0.00000013,
 0.00000040,0.00000021,0.00000023,0.00000074,0.00000056,-0.00000028,0.0
 0000003,0.00000057,-0.00000005,0.00000057,-0.01204637,0.00298128,-0.00
 040331,-0.00000012,0.00000043,-0.00000013,0.00000010,-0.00000039,0.000
 00036,-0.00000034,0.00000023,0.00000010,-0.00000015,0.00000022,-0.0000
 0040,0.00000085,-0.00000125,0.00000339,-0.00000023,-0.00000058,0.,0.00
 000066,0.00000069,-0.00000076,0.00000167,0.00000020,0.00000056,0.00000
 019,0.,0.00000025,0.00000059,-0.00000033,0.00000156,-0.00000092,0.0000
 0046,-0.00000024,-0.00000080,0.00000026,-0.00000029,-0.00000079,0.0000
 0035,-0.00000014,-0.00000089,0.00000055,-0.00000003\\\@
 The archive entry for this job was punched.


 AND ALL THIS SCIENCE I DON'T UNDERSTAND
 IT'S JUST MY JOB FIVE DAYS A WEEK

                           -- ELTON JOHN, "ROCKET MAN"
 Job cpu time:       0 days  2 hours  0 minutes 43.0 seconds.
 Elapsed time:       0 days  0 hours 15 minutes 13.1 seconds.
 File lengths (MBytes):  RWF=    952 Int=      0 D2E=      0 Chk=     67 Scr=      2
 Normal termination of Gaussian 16 at Thu Apr  9 12:10:07 2026.
