 Entering Gaussian System, Link 0=/project/xlzhang/shared/bin/g16/g16
 Input=/users/s1155246976/scratch/phenol_b_opt/phenol_b_opt.com
 Output=/users/s1155246976/scratch/phenol_b_opt/phenol_b_opt.log
 Initial command:
 /project/xlzhang/shared/bin/g16/l1.exe "/ss02/scratch/s1/xlzhang/jingyi/phenol_b_opt/Gau-4028868.inp" -scrdir="/ss02/scratch/s1/xlzhang/jingyi/phenol_b_opt/"
 Entering Link 1 = /project/xlzhang/shared/bin/g16/l1.exe PID=   4028869.
  
 Copyright (c) 1988-2017, Gaussian, Inc.  All Rights Reserved.
  
 This is part of the Gaussian(R) 16 program.  It is based on
 the Gaussian(R) 09 system (copyright 2009, Gaussian, Inc.),
 the Gaussian(R) 03 system (copyright 2003, Gaussian, Inc.),
 the Gaussian(R) 98 system (copyright 1998, Gaussian, Inc.),
 the Gaussian(R) 94 system (copyright 1995, Gaussian, Inc.),
 the Gaussian 92(TM) system (copyright 1992, Gaussian, Inc.),
 the Gaussian 90(TM) system (copyright 1990, Gaussian, Inc.),
 the Gaussian 88(TM) system (copyright 1988, Gaussian, Inc.),
 the Gaussian 86(TM) system (copyright 1986, Carnegie Mellon
 University), and the Gaussian 82(TM) system (copyright 1983,
 Carnegie Mellon University). Gaussian is a federally registered
 trademark of Gaussian, Inc.
  
 This software contains proprietary and confidential information,
 including trade secrets, belonging to Gaussian, Inc.
  
 This software is provided under written license and may be
 used, copied, transmitted, or stored only in accord with that
 written license.
  
 The following legend is applicable only to US Government
 contracts under FAR:
  
                    RESTRICTED RIGHTS LEGEND
  
 Use, reproduction and disclosure by the US Government is
 subject to restrictions as set forth in subparagraphs (a)
 and (c) of the Commercial Computer Software - Restricted
 Rights clause in FAR 52.227-19.
  
 Gaussian, Inc.
 340 Quinnipiac St., Bldg. 40, Wallingford CT 06492
  
  
 ---------------------------------------------------------------
 Warning -- This program may not be used in any manner that
 competes with the business of Gaussian, Inc. or will provide
 assistance to any competitor of Gaussian, Inc.  The licensee
 of this program is prohibited from giving any competitor of
 Gaussian, Inc. access to this program.  By using this program,
 the user acknowledges that Gaussian, Inc. is engaged in the
 business of creating and licensing software in the field of
 computational chemistry and represents and warrants to the
 licensee that it is not a competitor of Gaussian, Inc. and that
 it will not use this program in any manner prohibited above.
 ---------------------------------------------------------------
  

 Cite this work as:
 Gaussian 16, Revision B.01,
 M. J. Frisch, G. W. Trucks, H. B. Schlegel, G. E. Scuseria, 
 M. A. Robb, J. R. Cheeseman, G. Scalmani, V. Barone, 
 G. A. Petersson, H. Nakatsuji, X. Li, M. Caricato, A. V. Marenich, 
 J. Bloino, B. G. Janesko, R. Gomperts, B. Mennucci, H. P. Hratchian, 
 J. V. Ortiz, A. F. Izmaylov, J. L. Sonnenberg, D. Williams-Young, 
 F. Ding, F. Lipparini, F. Egidi, J. Goings, B. Peng, A. Petrone, 
 T. Henderson, D. Ranasinghe, V. G. Zakrzewski, J. Gao, N. Rega, 
 G. Zheng, W. Liang, M. Hada, M. Ehara, K. Toyota, R. Fukuda, 
 J. Hasegawa, M. Ishida, T. Nakajima, Y. Honda, O. Kitao, H. Nakai, 
 T. Vreven, K. Throssell, J. A. Montgomery, Jr., J. E. Peralta, 
 F. Ogliaro, M. J. Bearpark, J. J. Heyd, E. N. Brothers, K. N. Kudin, 
 V. N. Staroverov, T. A. Keith, R. Kobayashi, J. Normand, 
 K. Raghavachari, A. P. Rendell, J. C. Burant, S. S. Iyengar, 
 J. Tomasi, M. Cossi, J. M. Millam, M. Klene, C. Adamo, R. Cammi, 
 J. W. Ochterski, R. L. Martin, K. Morokuma, O. Farkas, 
 J. B. Foresman, and D. J. Fox, Gaussian, Inc., Wallingford CT, 2016.
 
 ******************************************
 Gaussian 16:  ES64L-G16RevB.01 20-Dec-2017
                14-Jan-2026 
 ******************************************
 %chk=phenol_b_opt.chk
 %nprocshared=64
 Will use up to   64 processors via shared memory.
 %mem=180GB
 -----------------------
 # opt freq mn15 def2svp
 -----------------------
 1/18=20,19=15,26=3,38=1/1,3;
 2/9=110,12=2,17=6,18=5,40=1/2;
 3/5=43,7=101,11=2,25=1,30=1,71=1,74=-73/1,2,3;
 4//1;
 5/5=2,38=5/2;
 6/7=2,8=2,9=2,10=2,28=1/1;
 7//1,2,3,16;
 1/18=20,19=15,26=3/3(2);
 2/9=110/2;
 99//99;
 2/9=110/2;
 3/5=43,7=101,11=2,25=1,30=1,71=1,74=-73/1,2,3;
 4/5=5,16=3,69=1/1;
 5/5=2,38=5/2;
 7//1,2,3,16;
 1/18=20,19=15,26=3/3(-5);
 2/9=110/2;
 6/7=2,8=2,9=2,10=2,19=2,28=1/1;
 99/9=1/99;
 ----------------------------------
 Gaussian job with default settings
 ----------------------------------
 Symbolic Z-matrix:
 Charge = -1 Multiplicity = 1
 C                    -0.79861   0.75      0. 
 C                     0.59655   0.75      0. 
 C                     1.29409   1.95775   0. 
 C                     0.59643   3.16626  -0.0012 
 C                    -0.79839   3.16618  -0.00168 
 C                    -1.49599   1.95798  -0.00068 
 H                    -1.34837  -0.20232   0.00045 
 H                     2.39377   1.95783   0.00063 
 H                     1.14663   4.1184   -0.00126 
 H                    -1.34851   4.11846  -0.00263 
 H                    -2.5956    1.95816  -0.00086 
 O                     1.31113  -0.48866   0.00171 
 

 GradGradGradGradGradGradGradGradGradGradGradGradGradGradGradGradGradGrad
 Berny optimization.
 Initialization pass.
                           ----------------------------
                           !    Initial Parameters    !
                           ! (Angstroms and Degrees)  !
 --------------------------                            --------------------------
 ! Name  Definition              Value          Derivative Info.                !
 --------------------------------------------------------------------------------
 ! R1    R(1,2)                  1.3952         estimate D2E/DX2                !
 ! R2    R(1,6)                  1.3948         estimate D2E/DX2                !
 ! R3    R(1,7)                  1.0996         estimate D2E/DX2                !
 ! R4    R(2,3)                  1.3947         estimate D2E/DX2                !
 ! R5    R(2,12)                 1.43           estimate D2E/DX2                !
 ! R6    R(3,4)                  1.3954         estimate D2E/DX2                !
 ! R7    R(3,8)                  1.0997         estimate D2E/DX2                !
 ! R8    R(4,5)                  1.3948         estimate D2E/DX2                !
 ! R9    R(4,9)                  1.0997         estimate D2E/DX2                !
 ! R10   R(5,6)                  1.3951         estimate D2E/DX2                !
 ! R11   R(5,10)                 1.0998         estimate D2E/DX2                !
 ! R12   R(6,11)                 1.0996         estimate D2E/DX2                !
 ! A1    A(2,1,6)              119.9985         estimate D2E/DX2                !
 ! A2    A(2,1,7)              119.9972         estimate D2E/DX2                !
 ! A3    A(6,1,7)              120.0043         estimate D2E/DX2                !
 ! A4    A(1,2,3)              120.0086         estimate D2E/DX2                !
 ! A5    A(1,2,12)             119.9808         estimate D2E/DX2                !
 ! A6    A(3,2,12)             120.0106         estimate D2E/DX2                !
 ! A7    A(2,3,4)              119.9942         estimate D2E/DX2                !
 ! A8    A(2,3,8)              120.0128         estimate D2E/DX2                !
 ! A9    A(4,3,8)              119.993          estimate D2E/DX2                !
 ! A10   A(3,4,5)              119.994          estimate D2E/DX2                !
 ! A11   A(3,4,9)              119.9811         estimate D2E/DX2                !
 ! A12   A(5,4,9)              120.0249         estimate D2E/DX2                !
 ! A13   A(4,5,6)              120.0047         estimate D2E/DX2                !
 ! A14   A(4,5,10)             120.0113         estimate D2E/DX2                !
 ! A15   A(6,5,10)             119.984          estimate D2E/DX2                !
 ! A16   A(1,6,5)              120.0            estimate D2E/DX2                !
 ! A17   A(1,6,11)             120.008          estimate D2E/DX2                !
 ! A18   A(5,6,11)             119.992          estimate D2E/DX2                !
 ! D1    D(6,1,2,3)              0.0323         estimate D2E/DX2                !
 ! D2    D(6,1,2,12)           179.9532         estimate D2E/DX2                !
 ! D3    D(7,1,2,3)           -179.9729         estimate D2E/DX2                !
 ! D4    D(7,1,2,12)            -0.052          estimate D2E/DX2                !
 ! D5    D(2,1,6,5)              0.0149         estimate D2E/DX2                !
 ! D6    D(2,1,6,11)           179.9892         estimate D2E/DX2                !
 ! D7    D(7,1,6,5)           -179.9798         estimate D2E/DX2                !
 ! D8    D(7,1,6,11)            -0.0056         estimate D2E/DX2                !
 ! D9    D(1,2,3,4)             -0.0568         estimate D2E/DX2                !
 ! D10   D(1,2,3,8)            179.9619         estimate D2E/DX2                !
 ! D11   D(12,2,3,4)          -179.9777         estimate D2E/DX2                !
 ! D12   D(12,2,3,8)             0.041          estimate D2E/DX2                !
 ! D13   D(2,3,4,5)              0.0341         estimate D2E/DX2                !
 ! D14   D(2,3,4,9)           -179.9964         estimate D2E/DX2                !
 ! D15   D(8,3,4,5)           -179.9846         estimate D2E/DX2                !
 ! D16   D(8,3,4,9)             -0.0151         estimate D2E/DX2                !
 ! D17   D(3,4,5,6)              0.0131         estimate D2E/DX2                !
 ! D18   D(3,4,5,10)          -179.9995         estimate D2E/DX2                !
 ! D19   D(9,4,5,6)           -179.9563         estimate D2E/DX2                !
 ! D20   D(9,4,5,10)             0.0311         estimate D2E/DX2                !
 ! D21   D(4,5,6,1)             -0.0376         estimate D2E/DX2                !
 ! D22   D(4,5,6,11)           179.9881         estimate D2E/DX2                !
 ! D23   D(10,5,6,1)           179.975          estimate D2E/DX2                !
 ! D24   D(10,5,6,11)            0.0007         estimate D2E/DX2                !
 --------------------------------------------------------------------------------
 Trust Radius=3.00D-01 FncErr=1.00D-07 GrdErr=1.00D-06 EigMax=2.50D+02 EigMin=1.00D-04
 Number of steps in this run=     64 maximum allowed number of steps=    100.
 GradGradGradGradGradGradGradGradGradGradGradGradGradGradGradGradGradGrad

                          Input orientation:                          
 ---------------------------------------------------------------------
 Center     Atomic      Atomic             Coordinates (Angstroms)
 Number     Number       Type             X           Y           Z
 ---------------------------------------------------------------------
      1          6           0       -0.798611    0.750000    0.000000
      2          6           0        0.596549    0.750000    0.000000
      3          6           0        1.294087    1.957751    0.000000
      4          6           0        0.596433    3.166260   -0.001199
      5          6           0       -0.798392    3.166182   -0.001678
      6          6           0       -1.495993    1.957976   -0.000682
      7          1           0       -1.348370   -0.202317    0.000450
      8          1           0        2.393767    1.957831    0.000634
      9          1           0        1.146633    4.118403   -0.001258
     10          1           0       -1.348514    4.118463   -0.002631
     11          1           0       -2.595597    1.958159   -0.000862
     12          8           0        1.311133   -0.488655    0.001710
 ---------------------------------------------------------------------
                    Distance matrix (angstroms):
                    1          2          3          4          5
     1  C    0.000000
     2  C    1.395160   0.000000
     3  C    2.416205   1.394712   0.000000
     4  C    2.790065   2.416260   1.395427   0.000000
     5  C    2.416183   2.789946   2.416356   1.394825   0.000000
     6  C    1.394829   2.416183   2.790080   2.416236   1.395138
     7  H    1.099610   2.165553   3.412986   3.889675   3.413102
     8  H    3.413229   2.165375   1.099680   2.165806   3.413209
     9  H    3.889745   3.413024   2.165678   1.099680   2.165606
    10  H    3.413055   3.889707   3.413506   2.165528   1.099761
    11  H    2.165365   3.413128   3.889684   3.412999   2.165471
    12  O    2.446485   1.430000   2.446466   3.724139   4.219946
                    6          7          8          9         10
     6  C    0.000000
     7  H    2.165331   0.000000
     8  H    3.889760   4.320860   0.000000
     9  H    3.413344   4.989355   2.494678   0.000000
    10  H    2.165516   4.320781   4.321228   2.495147   0.000000
    11  H    1.099604   2.494641   4.989364   4.320988   2.494420
    12  O    3.723703   2.674874   2.675330   4.609995   5.319707
                   11         12
    11  H    0.000000
    12  O    4.609712   0.000000
 Stoichiometry    C6H5O(1-)
 Framework group  C1[X(C6H5O)]
 Deg. of freedom    30
 Full point group                 C1      NOp   1
 Largest Abelian subgroup         C1      NOp   1
 Largest concise Abelian subgroup C1      NOp   1
                         Standard orientation:                         
 ---------------------------------------------------------------------
 Center     Atomic      Atomic             Coordinates (Angstroms)
 Number     Number       Type             X           Y           Z
 ---------------------------------------------------------------------
      1          6           0        0.287207   -1.208076   -0.000074
      2          6           0        0.984644    0.000251   -0.000492
      3          6           0        0.287327    1.208129    0.000115
      4          6           0       -1.108100    1.208033   -0.000058
      5          6           0       -1.805302   -0.000042   -0.000119
      6          6           0       -1.107622   -1.208203    0.000269
      7          1           0        0.837170   -2.160275   -0.000103
      8          1           0        0.836986    2.160585    0.000419
      9          1           0       -1.657692    2.160527    0.000361
     10          1           0       -2.905063   -0.000451   -0.000264
     11          1           0       -1.657470   -2.160461    0.000419
     12          8           0        2.414644   -0.000060    0.000166
 ---------------------------------------------------------------------
 Rotational constants (GHZ):           5.6864694           2.6504369           1.8078203
 Standard basis: def2SVP (5D, 7F)
 There are   130 symmetry adapted cartesian basis functions of A   symmetry.
 There are   123 symmetry adapted basis functions of A   symmetry.
   123 basis functions,   210 primitive gaussians,   130 cartesian basis functions
    25 alpha electrons       25 beta electrons
       nuclear repulsion energy       257.7448469363 Hartrees.
 NAtoms=   12 NActive=   12 NUniq=   12 SFac= 1.00D+00 NAtFMM=   60 NAOKFM=F Big=F
 Integral buffers will be    131072 words long.
 Raffenetti 2 integral format.
 Two-electron integral symmetry is turned on.
 One-electron integrals computed using PRISM.
   1 Symmetry operations used in ECPInt.
 ECPInt:  NShTT=    1653 NPrTT=    6101 LenC2=    1650 LenP2D=    5041.
 LDataN:  DoStor=T MaxTD1= 4 Len=   56
 NBasis=   123 RedAO= T EigKep=  2.78D-04  NBF=   123
 NBsUse=   123 1.00D-06 EigRej= -1.00D+00 NBFU=   123
 ExpMin= 1.22D-01 ExpMax= 2.27D+03 ExpMxC= 3.41D+02 IAcc=3 IRadAn=         5 AccDes= 0.00D+00
 Harris functional with IExCor= 1009 and IRadAn=       5 diagonalized for initial guess.
 HarFok:  IExCor= 1009 AccDes= 0.00D+00 IRadAn=         5 IDoV= 1 UseB2=F ITyADJ=14
 ICtDFT=  3500011 ScaDFX=  1.000000  1.000000  1.000000  1.000000
 FoFCou: FMM=F IPFlag=           0 FMFlag=      100000 FMFlg1=           0
         NFxFlg=           0 DoJE=T BraDBF=F KetDBF=T FulRan=T
         wScrn=  0.000000 ICntrl=       500 IOpCl=  0 I1Cent=   200000004 NGrid=           0
         NMat0=    1 NMatS0=      1 NMatT0=    0 NMatD0=    1 NMtDS0=    0 NMtDT0=    0
 Petite list used in FoFCou.
 Keep R1 ints in memory in canonical form, NReq=90305121.
 Requested convergence on RMS density matrix=1.00D-08 within 128 cycles.
 Requested convergence on MAX density matrix=1.00D-06.
 Requested convergence on             energy=1.00D-06.
 No special actions if energy rises.
 Integral accuracy reduced to 1.0D-05 until final iterations.
 Initial convergence to 1.0D-05 achieved.  Increase integral accuracy.
 SCF Done:  E(RMN15) =  -306.235493112     A.U. after   15 cycles
            NFock= 15  Conv=0.78D-08     -V/T= 2.0119

 **********************************************************************

            Population analysis using the SCF Density.

 **********************************************************************

 Orbital symmetries:
       Occupied  (A) (A) (A) (A) (A) (A) (A) (A) (A) (A) (A) (A)
                 (A) (A) (A) (A) (A) (A) (A) (A) (A) (A) (A) (A)
                 (A)
       Virtual   (A) (A) (A) (A) (A) (A) (A) (A) (A) (A) (A) (A)
                 (A) (A) (A) (A) (A) (A) (A) (A) (A) (A) (A) (A)
                 (A) (A) (A) (A) (A) (A) (A) (A) (A) (A) (A) (A)
                 (A) (A) (A) (A) (A) (A) (A) (A) (A) (A) (A) (A)
                 (A) (A) (A) (A) (A) (A) (A) (A) (A) (A) (A) (A)
                 (A) (A) (A) (A) (A) (A) (A) (A) (A) (A) (A) (A)
                 (A) (A) (A) (A) (A) (A) (A) (A) (A) (A) (A) (A)
                 (A) (A) (A) (A) (A) (A) (A) (A) (A) (A) (A) (A)
                 (A) (A)
 The electronic state is 1-A.
 Alpha  occ. eigenvalues --  -18.50914  -9.89072  -9.88389  -9.88385  -9.86944
 Alpha  occ. eigenvalues --   -9.85662  -9.85659  -0.72793  -0.67790  -0.59717
 Alpha  occ. eigenvalues --   -0.56004  -0.45592  -0.43439  -0.36544  -0.30847
 Alpha  occ. eigenvalues --   -0.30456  -0.28219  -0.23941  -0.23814  -0.20416
 Alpha  occ. eigenvalues --   -0.15753  -0.13720  -0.11351  -0.03355  -0.01261
 Alpha virt. eigenvalues --    0.19637   0.22807   0.24646   0.28578   0.30821
 Alpha virt. eigenvalues --    0.33669   0.34174   0.38516   0.45421   0.48211
 Alpha virt. eigenvalues --    0.49404   0.51978   0.53933   0.55679   0.60567
 Alpha virt. eigenvalues --    0.60710   0.64865   0.66117   0.66218   0.68591
 Alpha virt. eigenvalues --    0.70752   0.72887   0.74494   0.76934   0.79771
 Alpha virt. eigenvalues --    0.80378   0.81601   0.83944   0.85001   0.88014
 Alpha virt. eigenvalues --    0.90380   0.91198   0.92665   0.93877   0.94299
 Alpha virt. eigenvalues --    0.97420   1.02139   1.02556   1.12069   1.13618
 Alpha virt. eigenvalues --    1.25434   1.27428   1.29098   1.37759   1.42744
 Alpha virt. eigenvalues --    1.42816   1.43056   1.43593   1.46683   1.46882
 Alpha virt. eigenvalues --    1.49154   1.66203   1.66274   1.76668   1.83631
 Alpha virt. eigenvalues --    1.85542   1.87414   1.90621   1.91213   1.92429
 Alpha virt. eigenvalues --    1.94868   1.95590   1.96809   1.99154   2.03212
 Alpha virt. eigenvalues --    2.08016   2.09685   2.13506   2.14047   2.19012
 Alpha virt. eigenvalues --    2.25889   2.29262   2.30183   2.33644   2.38918
 Alpha virt. eigenvalues --    2.43070   2.43678   2.44772   2.47977   2.48217
 Alpha virt. eigenvalues --    2.63420   2.69363   2.73748   2.75487   2.82054
 Alpha virt. eigenvalues --    2.83770   2.84966   2.96300   2.97812   2.98143
 Alpha virt. eigenvalues --    3.00543   3.11656   3.13258   3.17956   3.24002
 Alpha virt. eigenvalues --    3.46984   3.52746   3.78775
          Condensed to atoms (all electrons):
               1          2          3          4          5          6
     1  C    5.731285   0.051281   0.033526  -0.161955   0.138561  -0.015943
     2  C    0.051281   5.006838   0.051258   0.222374  -0.199095   0.222409
     3  C    0.033526   0.051258   5.731093  -0.015333   0.138487  -0.161923
     4  C   -0.161955   0.222374  -0.015333   5.381433   0.168420   0.146258
     5  C    0.138561  -0.199095   0.138487   0.168420   5.330416   0.168360
     6  C   -0.015943   0.222409  -0.161923   0.146258   0.168360   5.381982
     7  H    0.402509  -0.072490   0.029767  -0.005287   0.020356  -0.099492
     8  H    0.029752  -0.072525   0.402487  -0.099415   0.020353  -0.005289
     9  H   -0.003947   0.016815  -0.072176   0.416462  -0.094490   0.019792
    10  H    0.018634  -0.002637   0.018605  -0.088738   0.428102  -0.088653
    11  H   -0.072265   0.016811  -0.003949   0.019810  -0.094435   0.416458
    12  O   -0.094619   0.569463  -0.094621   0.009091  -0.000195   0.009110
               7          8          9         10         11         12
     1  C    0.402509   0.029752  -0.003947   0.018634  -0.072265  -0.094619
     2  C   -0.072490  -0.072525   0.016815  -0.002637   0.016811   0.569463
     3  C    0.029767   0.402487  -0.072176   0.018605  -0.003949  -0.094621
     4  C   -0.005287  -0.099415   0.416462  -0.088738   0.019810   0.009091
     5  C    0.020356   0.020353  -0.094490   0.428102  -0.094435  -0.000195
     6  C   -0.099492  -0.005289   0.019792  -0.088653   0.416458   0.009110
     7  H    0.834838  -0.000482   0.000078  -0.000371  -0.018931   0.006147
     8  H   -0.000482   0.834862  -0.018911  -0.000371   0.000078   0.006126
     9  H    0.000078  -0.018911   0.846335  -0.018096  -0.000461  -0.000138
    10  H   -0.000371  -0.000371  -0.018096   0.856655  -0.018111   0.000003
    11  H   -0.018931   0.000078  -0.000461  -0.018111   0.846452  -0.000138
    12  O    0.006147   0.006126  -0.000138   0.000003  -0.000138   8.173286
 Mulliken charges:
               1
     1  C   -0.056820
     2  C    0.189498
     3  C   -0.057221
     4  C    0.006880
     5  C   -0.024841
     6  C    0.006930
     7  H   -0.096642
     8  H   -0.096665
     9  H   -0.091262
    10  H   -0.105023
    11  H   -0.091319
    12  O   -0.583516
 Sum of Mulliken charges =  -1.00000
 Mulliken charges with hydrogens summed into heavy atoms:
               1
     1  C   -0.153462
     2  C    0.189498
     3  C   -0.153886
     4  C   -0.084382
     5  C   -0.129864
     6  C   -0.084389
    12  O   -0.583516
 Electronic spatial extent (au):  <R**2>=            675.3974
 Charge=             -1.0000 electrons
 Dipole moment (field-independent basis, Debye):
    X=             -5.3497    Y=             -0.0011    Z=             -0.0005  Tot=              5.3497
 Quadrupole moment (field-independent basis, Debye-Ang):
   XX=            -65.0989   YY=            -44.2661   ZZ=            -46.0718
   XY=              0.0002   XZ=             -0.0014   YZ=              0.0006
 Traceless Quadrupole moment (field-independent basis, Debye-Ang):
   XX=            -13.2867   YY=              7.5462   ZZ=              5.7405
   XY=              0.0002   XZ=             -0.0014   YZ=              0.0006
 Octapole moment (field-independent basis, Debye-Ang**2):
  XXX=            -34.0743  YYY=             -0.0021  ZZZ=              0.0009  XYY=              3.7040
  XXY=             -0.0033  XXZ=             -0.0016  XZZ=              5.5019  YZZ=             -0.0027
  YYZ=              0.0029  XYZ=              0.0003
 Hexadecapole moment (field-independent basis, Debye-Ang**3):
 XXXX=           -683.1464 YYYY=           -325.4801 ZZZZ=            -49.8948 XXXY=              0.0093
 XXXZ=              0.0005 YYYX=             -0.0069 YYYZ=              0.0038 ZZZX=              0.0019
 ZZZY=              0.0006 XXYY=           -147.3864 XXZZ=           -106.3754 YYZZ=            -68.1238
 XXYZ=              0.0007 YYXZ=             -0.0014 ZZXY=             -0.0003
 N-N= 2.577448469363D+02 E-N=-1.238034251648D+03  KE= 3.026204427009D+02
   1 Symmetry operations used in ECPInt.
 ECPInt:  NShTT=    1653 NPrTT=    6101 LenC2=    1650 LenP2D=    5041.
 LDataN:  DoStor=T MaxTD1= 5 Len=  102
 Calling FoFJK, ICntrl=      2127 FMM=F ISym2X=0 I1Cent= 0 IOpClX= 0 NMat=1 NMatS=1 NMatT=0.
 ***** Axes restored to original set *****
 -------------------------------------------------------------------
 Center     Atomic                   Forces (Hartrees/Bohr)
 Number     Number              X              Y              Z
 -------------------------------------------------------------------
      1        6          -0.033191979    0.011144599   -0.000039739
      2        6           0.084051332   -0.146180576    0.000319196
      3        6           0.006943577    0.034883572   -0.000079769
      4        6           0.008380138   -0.005079262    0.000036492
      5        6          -0.011177459    0.019140842    0.000004010
      6        6           0.000120731   -0.009317833   -0.000057574
      7        1           0.006510629    0.001824851    0.000010523
      8        1          -0.004883839   -0.004722049    0.000001401
      9        1          -0.001351443   -0.001451553   -0.000015599
     10        1           0.001329477   -0.002264150    0.000010824
     11        1           0.001878031    0.000406843    0.000006832
     12        8          -0.058609196    0.101614716   -0.000196597
 -------------------------------------------------------------------
 Cartesian Forces:  Max     0.146180576 RMS     0.035537802

 GradGradGradGradGradGradGradGradGradGradGradGradGradGradGradGradGradGrad
 Berny optimization.
 FormGI is forming the generalized inverse of G from B-inverse, IUseBI=4.
 Internal  Forces:  Max     0.117305685 RMS     0.017250339
 Search for a local minimum.
 Step number   1 out of a maximum of   64
 All quantities printed in internal units (Hartrees-Bohrs-Radians)
 Mixed Optimization -- RFO/linear search
 Second derivative matrix not updated -- first step.
 ITU=  0
     Eigenvalues ---    0.02152   0.02153   0.02154   0.02155   0.02155
     Eigenvalues ---    0.02155   0.02155   0.02156   0.02157   0.16000
     Eigenvalues ---    0.16000   0.16000   0.16000   0.16000   0.22000
     Eigenvalues ---    0.22000   0.23486   0.25000   0.33709   0.33718
     Eigenvalues ---    0.33718   0.33725   0.33726   0.40989   0.42107
     Eigenvalues ---    0.42314   0.46412   0.46453   0.46466   0.46497
 RFO step:  Lambda=-3.67871705D-02 EMin= 2.15189832D-02
 Linear search not attempted -- first point.
 Iteration  1 RMS(Cart)=  0.02071034 RMS(Int)=  0.00852666
 Iteration  2 RMS(Cart)=  0.00811980 RMS(Int)=  0.00008748
 Iteration  3 RMS(Cart)=  0.00000023 RMS(Int)=  0.00008748
 Variable       Old X    -DE/DX   Delta X   Delta X   Delta X     New X
                                 (Linear)    (Quad)   (Total)
    R1        2.63647   0.02581   0.00000   0.05265   0.05278   2.68925
    R2        2.63584   0.00101   0.00000   0.00202   0.00202   2.63787
    R3        2.07796  -0.00484   0.00000  -0.01293  -0.01293   2.06503
    R4        2.63562   0.02610   0.00000   0.05313   0.05326   2.68889
    R5        2.70231  -0.11731   0.00000  -0.26262  -0.26262   2.43969
    R6        2.63697   0.00064   0.00000   0.00127   0.00127   2.63825
    R7        2.07809  -0.00488   0.00000  -0.01306  -0.01306   2.06503
    R8        2.63584   0.00872   0.00000   0.01624   0.01611   2.65195
    R9        2.07809  -0.00193   0.00000  -0.00517  -0.00517   2.07293
   R10        2.63643   0.00860   0.00000   0.01603   0.01590   2.65232
   R11        2.07825  -0.00263   0.00000  -0.00702  -0.00702   2.07122
   R12        2.07795  -0.00188   0.00000  -0.00502  -0.00502   2.07293
    A1        2.09437   0.00561   0.00000   0.02306   0.02320   2.11756
    A2        2.09435  -0.00772   0.00000  -0.03648  -0.03655   2.05780
    A3        2.09447   0.00210   0.00000   0.01342   0.01336   2.10783
    A4        2.09455  -0.01684   0.00000  -0.05564  -0.05536   2.03919
    A5        2.09406   0.00844   0.00000   0.02787   0.02773   2.12179
    A6        2.09458   0.00841   0.00000   0.02777   0.02763   2.12221
    A7        2.09429   0.00564   0.00000   0.02312   0.02325   2.11755
    A8        2.09462  -0.00773   0.00000  -0.03649  -0.03656   2.05806
    A9        2.09427   0.00209   0.00000   0.01337   0.01330   2.10758
   A10        2.09429   0.00547   0.00000   0.01791   0.01778   2.11207
   A11        2.09407  -0.00227   0.00000  -0.00661  -0.00654   2.08752
   A12        2.09483  -0.00319   0.00000  -0.01130  -0.01123   2.08360
   A13        2.09448  -0.00530   0.00000  -0.02624  -0.02652   2.06796
   A14        2.09459   0.00263   0.00000   0.01302   0.01316   2.10775
   A15        2.09411   0.00267   0.00000   0.01322   0.01336   2.10747
   A16        2.09440   0.00542   0.00000   0.01779   0.01765   2.11205
   A17        2.09453  -0.00229   0.00000  -0.00674  -0.00668   2.08786
   A18        2.09426  -0.00313   0.00000  -0.01104  -0.01097   2.08328
    D1        0.00056  -0.00002   0.00000  -0.00036  -0.00035   0.00021
    D2        3.14078   0.00003   0.00000   0.00058   0.00058   3.14136
    D3       -3.14112  -0.00002   0.00000  -0.00032  -0.00032  -3.14144
    D4       -0.00091   0.00004   0.00000   0.00062   0.00062  -0.00029
    D5        0.00026  -0.00001   0.00000  -0.00013  -0.00013   0.00013
    D6        3.14140   0.00001   0.00000   0.00014   0.00014   3.14155
    D7       -3.14124  -0.00001   0.00000  -0.00016  -0.00016  -3.14140
    D8       -0.00010   0.00001   0.00000   0.00011   0.00011   0.00001
    D9       -0.00099   0.00004   0.00000   0.00059   0.00058  -0.00041
   D10        3.14093   0.00003   0.00000   0.00040   0.00040   3.14132
   D11       -3.14120  -0.00002   0.00000  -0.00036  -0.00036  -3.14156
   D12        0.00072  -0.00003   0.00000  -0.00054  -0.00054   0.00018
   D13        0.00060  -0.00002   0.00000  -0.00031  -0.00032   0.00028
   D14       -3.14153  -0.00000   0.00000  -0.00011  -0.00011   3.14154
   D15       -3.14132  -0.00001   0.00000  -0.00014  -0.00014  -3.14146
   D16       -0.00026   0.00000   0.00000   0.00007   0.00007  -0.00020
   D17        0.00023  -0.00001   0.00000  -0.00015  -0.00015   0.00007
   D18       -3.14158   0.00000   0.00000   0.00003   0.00003  -3.14156
   D19       -3.14083  -0.00002   0.00000  -0.00036  -0.00036  -3.14119
   D20        0.00054  -0.00001   0.00000  -0.00018  -0.00018   0.00036
   D21       -0.00066   0.00002   0.00000   0.00038   0.00038  -0.00027
   D22        3.14138   0.00000   0.00000   0.00010   0.00011   3.14149
   D23        3.14116   0.00001   0.00000   0.00020   0.00020   3.14135
   D24        0.00001  -0.00000   0.00000  -0.00008  -0.00008  -0.00006
         Item               Value     Threshold  Converged?
 Maximum Force            0.117306     0.000450     NO 
 RMS     Force            0.017250     0.000300     NO 
 Maximum Displacement     0.139808     0.001800     NO 
 RMS     Displacement     0.027176     0.001200     NO 
 Predicted change in Energy=-1.997857D-02
 GradGradGradGradGradGradGradGradGradGradGradGradGradGradGradGradGradGrad

                          Input orientation:                          
 ---------------------------------------------------------------------
 Center     Atomic      Atomic             Coordinates (Angstroms)
 Number     Number       Type             X           Y           Z
 ---------------------------------------------------------------------
      1          6           0       -0.799288    0.742899    0.000082
      2          6           0        0.623258    0.703556    0.000391
      3          6           0        1.300485    1.954956    0.000010
      4          6           0        0.597118    3.160928   -0.001126
      5          6           0       -0.806108    3.179546   -0.001600
      6          6           0       -1.491814    1.954900   -0.000814
      7          1           0       -1.337181   -0.208319    0.000514
      8          1           0        2.393212    1.945364    0.000497
      9          1           0        1.147934    4.109553   -0.001344
     10          1           0       -1.354218    4.128697   -0.002527
     11          1           0       -2.588759    1.952645   -0.001075
     12          8           0        1.268487   -0.414672    0.001476
 ---------------------------------------------------------------------
                    Distance matrix (angstroms):
                    1          2          3          4          5
     1  C    0.000000
     2  C    1.423090   0.000000
     3  C    2.424485   1.422898   0.000000
     4  C    2.792277   2.457511   1.396100   0.000000
     5  C    2.436657   2.858953   2.436669   1.403349   0.000000
     6  C    1.395901   2.457517   2.792300   2.412082   1.403550
     7  H    1.092769   2.162137   3.411311   3.885014   3.429237
     8  H    3.411448   2.162134   1.092769   2.168767   3.429119
     9  H    3.889220   3.446172   2.159990   1.096945   2.164069
    10  H    3.430974   3.954998   3.431123   2.178139   1.096045
    11  H    2.160022   3.446343   3.889245   3.407310   2.164054
    12  O    2.369740   1.291029   2.369845   3.638084   4.149983
                    6          7          8          9         10
     6  C    0.000000
     7  H    2.168738   0.000000
     8  H    3.885038   4.307456   0.000000
     9  H    3.407463   4.981949   2.496885   0.000000
    10  H    2.178149   4.337051   4.337071   2.502226   0.000000
    11  H    1.096947   2.497241   4.981976   4.314525   2.501859
    12  O    3.637876   2.613827   2.614340   4.525831   5.246027
                   11         12
    11  H    0.000000
    12  O    4.525765   0.000000
 Stoichiometry    C6H5O(1-)
 Framework group  C1[X(C6H5O)]
 Deg. of freedom    30
 Full point group                 C1      NOp   1
 Largest Abelian subgroup         C1      NOp   1
 Largest concise Abelian subgroup C1      NOp   1
                         Standard orientation:                         
 ---------------------------------------------------------------------
 Center     Atomic      Atomic             Coordinates (Angstroms)
 Number     Number       Type             X           Y           Z
 ---------------------------------------------------------------------
      1          6           0        0.299168   -1.212211    0.000004
      2          6           0        1.044369    0.000167   -0.000147
      3          6           0        0.299095    1.212274    0.000085
      4          6           0       -1.096991    1.205960   -0.000046
      5          6           0       -1.814584   -0.000046   -0.000079
      6          6           0       -1.096719   -1.206122    0.000113
      7          1           0        0.854113   -2.153584   -0.000024
      8          1           0        0.853653    2.153873    0.000232
      9          1           0       -1.643229    2.157228    0.000190
     10          1           0       -2.910629   -0.000277   -0.000217
     11          1           0       -1.643126   -2.157297    0.000185
     12          8           0        2.335399   -0.000009    0.000008
 ---------------------------------------------------------------------
 Rotational constants (GHZ):           5.6843108           2.7156560           1.8377017
 Standard basis: def2SVP (5D, 7F)
 There are   130 symmetry adapted cartesian basis functions of A   symmetry.
 There are   123 symmetry adapted basis functions of A   symmetry.
   123 basis functions,   210 primitive gaussians,   130 cartesian basis functions
    25 alpha electrons       25 beta electrons
       nuclear repulsion energy       259.5732722831 Hartrees.
 NAtoms=   12 NActive=   12 NUniq=   12 SFac= 1.00D+00 NAtFMM=   60 NAOKFM=F Big=F
 Integral buffers will be    131072 words long.
 Raffenetti 2 integral format.
 Two-electron integral symmetry is turned on.
 One-electron integrals computed using PRISM.
   1 Symmetry operations used in ECPInt.
 ECPInt:  NShTT=    1653 NPrTT=    6101 LenC2=    1650 LenP2D=    5045.
 LDataN:  DoStor=T MaxTD1= 4 Len=   56
 NBasis=   123 RedAO= T EigKep=  3.03D-04  NBF=   123
 NBsUse=   123 1.00D-06 EigRej= -1.00D+00 NBFU=   123
 Initial guess from the checkpoint file:  "phenol_b_opt.chk"
 B after Tr=     0.000000    0.000000   -0.000000
         Rot=    1.000000    0.000000    0.000001   -0.000001 Ang=   0.00 deg.
 ExpMin= 1.22D-01 ExpMax= 2.27D+03 ExpMxC= 3.41D+02 IAcc=3 IRadAn=         5 AccDes= 0.00D+00
 Harris functional with IExCor= 1009 and IRadAn=       5 diagonalized for initial guess.
 HarFok:  IExCor= 1009 AccDes= 0.00D+00 IRadAn=         5 IDoV= 1 UseB2=F ITyADJ=14
 ICtDFT=  3500011 ScaDFX=  1.000000  1.000000  1.000000  1.000000
 FoFCou: FMM=F IPFlag=           0 FMFlag=      100000 FMFlg1=           0
         NFxFlg=           0 DoJE=T BraDBF=F KetDBF=T FulRan=T
         wScrn=  0.000000 ICntrl=       500 IOpCl=  0 I1Cent=   200000004 NGrid=           0
         NMat0=    1 NMatS0=      1 NMatT0=    0 NMatD0=    1 NMtDS0=    0 NMtDT0=    0
 Petite list used in FoFCou.
 Keep R1 ints in memory in canonical form, NReq=90305121.
 Requested convergence on RMS density matrix=1.00D-08 within 128 cycles.
 Requested convergence on MAX density matrix=1.00D-06.
 Requested convergence on             energy=1.00D-06.
 No special actions if energy rises.
 Integral accuracy reduced to 1.0D-05 until final iterations.
 Initial convergence to 1.0D-05 achieved.  Increase integral accuracy.
 SCF Done:  E(RMN15) =  -306.261798884     A.U. after   16 cycles
            NFock= 16  Conv=0.19D-08     -V/T= 2.0116
   1 Symmetry operations used in ECPInt.
 ECPInt:  NShTT=    1653 NPrTT=    6101 LenC2=    1650 LenP2D=    5045.
 LDataN:  DoStor=T MaxTD1= 5 Len=  102
 Calling FoFJK, ICntrl=      2127 FMM=F ISym2X=0 I1Cent= 0 IOpClX= 0 NMat=1 NMatS=1 NMatT=0.
 ***** Axes restored to original set *****
 -------------------------------------------------------------------
 Center     Atomic                   Forces (Hartrees/Bohr)
 Number     Number              X              Y              Z
 -------------------------------------------------------------------
      1        6          -0.019536691    0.016841795   -0.000026817
      2        6           0.033369537   -0.058032336    0.000108020
      3        6          -0.004809236    0.025509828   -0.000044546
      4        6           0.003294784   -0.007118532    0.000027114
      5        6          -0.003694596    0.006220003    0.000000165
      6        6           0.004507148   -0.006212245   -0.000021161
      7        1           0.001279853   -0.001801091    0.000007379
      8        1           0.000920577   -0.002021100    0.000002193
      9        1           0.000375143    0.000471225   -0.000011017
     10        1           0.000421985   -0.000710602    0.000006654
     11        1          -0.000595169   -0.000114549    0.000001072
     12        8          -0.015533335    0.026967604   -0.000049056
 -------------------------------------------------------------------
 Cartesian Forces:  Max     0.058032336 RMS     0.013917457

 GradGradGradGradGradGradGradGradGradGradGradGradGradGradGradGradGradGrad
 Berny optimization.
 Using GEDIIS/GDIIS optimizer.
 FormGI is forming the generalized inverse of G from B-inverse, IUseBI=4.
 Internal  Forces:  Max     0.031121335 RMS     0.006006064
 Search for a local minimum.
 Step number   2 out of a maximum of   64
 All quantities printed in internal units (Hartrees-Bohrs-Radians)
 Mixed Optimization -- RFO/linear search
 Update second derivatives using D2CorX and points    1    2
 DE= -2.63D-02 DEPred=-2.00D-02 R= 1.32D+00
 TightC=F SS=  1.41D+00  RLast= 2.94D-01 DXNew= 5.0454D-01 8.8115D-01
 Trust test= 1.32D+00 RLast= 2.94D-01 DXMaxT set to 5.05D-01
 ITU=  1  0
 Use linear search instead of GDIIS.
     Eigenvalues ---    0.02152   0.02153   0.02154   0.02155   0.02155
     Eigenvalues ---    0.02155   0.02155   0.02156   0.02157   0.15829
     Eigenvalues ---    0.16000   0.16000   0.16000   0.16003   0.20360
     Eigenvalues ---    0.22000   0.22129   0.25000   0.32889   0.33717
     Eigenvalues ---    0.33720   0.33722   0.33726   0.34257   0.42029
     Eigenvalues ---    0.43945   0.46185   0.46459   0.46468   0.47640
 RFO step:  Lambda=-1.55154614D-03 EMin= 2.15185573D-02
 Quartic linear search produced a step of  0.27975.
 Iteration  1 RMS(Cart)=  0.01124596 RMS(Int)=  0.00025324
 Iteration  2 RMS(Cart)=  0.00033729 RMS(Int)=  0.00010647
 Iteration  3 RMS(Cart)=  0.00000005 RMS(Int)=  0.00010647
 Variable       Old X    -DE/DX   Delta X   Delta X   Delta X     New X
                                 (Linear)    (Quad)   (Total)
    R1        2.68925   0.01656   0.01477   0.02713   0.04205   2.73130
    R2        2.63787  -0.00426   0.00057  -0.01244  -0.01188   2.62599
    R3        2.06503   0.00094  -0.00362   0.00904   0.00542   2.07046
    R4        2.68889   0.01665   0.01490   0.02713   0.04219   2.73108
    R5        2.43969  -0.03112  -0.07347   0.00586  -0.06760   2.37209
    R6        2.63825  -0.00436   0.00036  -0.01246  -0.01211   2.62614
    R7        2.06503   0.00094  -0.00365   0.00910   0.00544   2.07048
    R8        2.65195   0.00140   0.00451  -0.00344   0.00090   2.65285
    R9        2.07293   0.00060  -0.00145   0.00445   0.00300   2.07593
   R10        2.65232   0.00131   0.00445  -0.00363   0.00065   2.65298
   R11        2.07122  -0.00083  -0.00196  -0.00014  -0.00210   2.06912
   R12        2.07293   0.00060  -0.00140   0.00438   0.00298   2.07591
    A1        2.11756   0.00471   0.00649   0.01658   0.02323   2.14080
    A2        2.05780  -0.00442  -0.01023  -0.00870  -0.01901   2.03879
    A3        2.10783  -0.00029   0.00374  -0.00788  -0.00422   2.10360
    A4        2.03919  -0.01330  -0.01549  -0.03636  -0.05150   1.98769
    A5        2.12179   0.00668   0.00776   0.01830   0.02588   2.14767
    A6        2.12221   0.00662   0.00773   0.01806   0.02561   2.14782
    A7        2.11755   0.00471   0.00651   0.01655   0.02322   2.14077
    A8        2.05806  -0.00443  -0.01023  -0.00880  -0.01911   2.03895
    A9        2.10758  -0.00028   0.00372  -0.00775  -0.00411   2.10347
   A10        2.11207   0.00304   0.00497   0.00430   0.00910   2.12117
   A11        2.08752  -0.00161  -0.00183  -0.00437  -0.00612   2.08141
   A12        2.08360  -0.00143  -0.00314   0.00007  -0.00299   2.08061
   A13        2.06796  -0.00220  -0.00742  -0.00538  -0.01313   2.05482
   A14        2.10775   0.00109   0.00368   0.00267   0.00652   2.11427
   A15        2.10747   0.00111   0.00374   0.00271   0.00661   2.11409
   A16        2.11205   0.00304   0.00494   0.00430   0.00908   2.12112
   A17        2.08786  -0.00164  -0.00187  -0.00446  -0.00624   2.08162
   A18        2.08328  -0.00140  -0.00307   0.00015  -0.00284   2.08045
    D1        0.00021  -0.00001  -0.00010   0.00066   0.00056   0.00077
    D2        3.14136   0.00001   0.00016  -0.00108  -0.00091   3.14045
    D3       -3.14144  -0.00001  -0.00009   0.00062   0.00052  -3.14092
    D4       -0.00029   0.00001   0.00017  -0.00113  -0.00095  -0.00124
    D5        0.00013  -0.00000  -0.00004   0.00017   0.00013   0.00026
    D6        3.14155   0.00000   0.00004  -0.00031  -0.00028   3.14127
    D7       -3.14140  -0.00001  -0.00005   0.00022   0.00017  -3.14123
    D8        0.00001   0.00000   0.00003  -0.00027  -0.00024  -0.00022
    D9       -0.00041   0.00001   0.00016  -0.00102  -0.00085  -0.00126
   D10        3.14132   0.00001   0.00011  -0.00069  -0.00058   3.14075
   D11       -3.14156  -0.00001  -0.00010   0.00072   0.00062  -3.14094
   D12        0.00018  -0.00001  -0.00015   0.00105   0.00090   0.00107
   D13        0.00028  -0.00001  -0.00009   0.00055   0.00047   0.00075
   D14        3.14154  -0.00000  -0.00003   0.00033   0.00030  -3.14134
   D15       -3.14146  -0.00000  -0.00004   0.00022   0.00018  -3.14128
   D16       -0.00020   0.00000   0.00002  -0.00001   0.00001  -0.00018
   D17        0.00007  -0.00000  -0.00004   0.00032   0.00028   0.00036
   D18       -3.14156   0.00000   0.00001  -0.00005  -0.00004   3.14159
   D19       -3.14119  -0.00001  -0.00010   0.00055   0.00045  -3.14074
   D20        0.00036  -0.00001  -0.00005   0.00017   0.00013   0.00049
   D21       -0.00027   0.00001   0.00011  -0.00068  -0.00058  -0.00085
   D22        3.14149   0.00000   0.00003  -0.00019  -0.00017   3.14133
   D23        3.14135   0.00001   0.00006  -0.00031  -0.00025   3.14111
   D24       -0.00006  -0.00000  -0.00002   0.00018   0.00016   0.00010
         Item               Value     Threshold  Converged?
 Maximum Force            0.031121     0.000450     NO 
 RMS     Force            0.006006     0.000300     NO 
 Maximum Displacement     0.061170     0.001800     NO 
 RMS     Displacement     0.011236     0.001200     NO 
 Predicted change in Energy=-3.420347D-03
 GradGradGradGradGradGradGradGradGradGradGradGradGradGradGradGradGradGrad

                          Input orientation:                          
 ---------------------------------------------------------------------
 Center     Atomic      Atomic             Coordinates (Angstroms)
 Number     Number       Type             X           Y           Z
 ---------------------------------------------------------------------
      1          6           0       -0.801379    0.748341   -0.000005
      2          6           0        0.641903    0.671186   -0.000145
      3          6           0        1.296814    1.959505    0.000024
      4          6           0        0.593649    3.158172   -0.001184
      5          6           0       -0.809901    3.186036   -0.001761
      6          6           0       -1.487738    1.956621   -0.000633
      7          1           0       -1.347110   -0.201712    0.000534
      8          1           0        2.392461    1.957154    0.000753
      9          1           0        1.148673    4.106183   -0.001223
     10          1           0       -1.357396    4.134259   -0.002707
     11          1           0       -2.586243    1.950282   -0.000796
     12          8           0        1.269392   -0.415975    0.001626
 ---------------------------------------------------------------------
                    Distance matrix (angstroms):
                    1          2          3          4          5
     1  C    0.000000
     2  C    1.445344   0.000000
     3  C    2.422670   1.445224   0.000000
     4  C    2.784491   2.487454   1.389692   0.000000
     5  C    2.437710   2.903826   2.437751   1.403827   0.000000
     6  C    1.389615   2.487512   2.784553   2.403309   1.403896
     7  H    1.095638   2.172125   3.414849   3.880125   3.430078
     8  H    3.414944   2.172134   1.095650   2.162908   3.430055
     9  H    3.883015   3.472178   2.151784   1.098534   2.163951
    10  H    3.431269   3.998760   3.431383   2.181588   1.094934
    11  H    2.151836   3.472321   3.883068   3.401574   2.163903
    12  O    2.375653   1.255255   2.375638   3.637466   4.159080
                    6          7          8          9         10
     6  C    0.000000
     7  H    2.162910   0.000000
     8  H    3.880199   4.317997   0.000000
     9  H    3.401658   4.978644   2.483010   0.000000
    10  H    2.181537   4.335985   4.336038   2.506226   0.000000
    11  H    1.098523   2.483250   4.978709   4.312482   2.505958
    12  O    3.637441   2.625261   2.625457   4.523769   5.254014
                   11         12
    11  H    0.000000
    12  O    4.523836   0.000000
 Stoichiometry    C6H5O(1-)
 Framework group  C1[X(C6H5O)]
 Deg. of freedom    30
 Full point group                 C1      NOp   1
 Largest Abelian subgroup         C1      NOp   1
 Largest concise Abelian subgroup C1      NOp   1
                         Standard orientation:                         
 ---------------------------------------------------------------------
 Center     Atomic      Atomic             Coordinates (Angstroms)
 Number     Number       Type             X           Y           Z
 ---------------------------------------------------------------------
      1          6           0        0.291106   -1.211336   -0.000051
      2          6           0        1.079509    0.000043   -0.000664
      3          6           0        0.291191    1.211335    0.000168
      4          6           0       -1.098467    1.201645   -0.000040
      5          6           0       -1.824317    0.000033   -0.000189
      6          6           0       -1.098475   -1.201664    0.000322
      7          1           0        0.841055   -2.158954    0.000017
      8          1           0        0.841007    2.159043    0.000576
      9          1           0       -1.642001    2.156290    0.000388
     10          1           0       -2.919251   -0.000050   -0.000347
     11          1           0       -1.642193   -2.156192    0.000475
     12          8           0        2.334763   -0.000059    0.000203
 ---------------------------------------------------------------------
 Rotational constants (GHZ):           5.7015825           2.6976561           1.8312267
 Standard basis: def2SVP (5D, 7F)
 There are   130 symmetry adapted cartesian basis functions of A   symmetry.
 There are   123 symmetry adapted basis functions of A   symmetry.
   123 basis functions,   210 primitive gaussians,   130 cartesian basis functions
    25 alpha electrons       25 beta electrons
       nuclear repulsion energy       259.5003291163 Hartrees.
 NAtoms=   12 NActive=   12 NUniq=   12 SFac= 1.00D+00 NAtFMM=   60 NAOKFM=F Big=F
 Integral buffers will be    131072 words long.
 Raffenetti 2 integral format.
 Two-electron integral symmetry is turned on.
 One-electron integrals computed using PRISM.
   1 Symmetry operations used in ECPInt.
 ECPInt:  NShTT=    1653 NPrTT=    6101 LenC2=    1650 LenP2D=    5045.
 LDataN:  DoStor=T MaxTD1= 4 Len=   56
 NBasis=   123 RedAO= T EigKep=  3.13D-04  NBF=   123
 NBsUse=   123 1.00D-06 EigRej= -1.00D+00 NBFU=   123
 Initial guess from the checkpoint file:  "phenol_b_opt.chk"
 B after Tr=    -0.000000   -0.000000   -0.000000
         Rot=    1.000000    0.000000    0.000001    0.000031 Ang=   0.00 deg.
 ExpMin= 1.22D-01 ExpMax= 2.27D+03 ExpMxC= 3.41D+02 IAcc=3 IRadAn=         5 AccDes= 0.00D+00
 Harris functional with IExCor= 1009 and IRadAn=       5 diagonalized for initial guess.
 HarFok:  IExCor= 1009 AccDes= 0.00D+00 IRadAn=         5 IDoV= 1 UseB2=F ITyADJ=14
 ICtDFT=  3500011 ScaDFX=  1.000000  1.000000  1.000000  1.000000
 FoFCou: FMM=F IPFlag=           0 FMFlag=      100000 FMFlg1=           0
         NFxFlg=           0 DoJE=T BraDBF=F KetDBF=T FulRan=T
         wScrn=  0.000000 ICntrl=       500 IOpCl=  0 I1Cent=   200000004 NGrid=           0
         NMat0=    1 NMatS0=      1 NMatT0=    0 NMatD0=    1 NMtDS0=    0 NMtDT0=    0
 Petite list used in FoFCou.
 Keep R1 ints in memory in canonical form, NReq=90305121.
 Requested convergence on RMS density matrix=1.00D-08 within 128 cycles.
 Requested convergence on MAX density matrix=1.00D-06.
 Requested convergence on             energy=1.00D-06.
 No special actions if energy rises.
 Integral accuracy reduced to 1.0D-05 until final iterations.
 Initial convergence to 1.0D-05 achieved.  Increase integral accuracy.
 SCF Done:  E(RMN15) =  -306.264787210     A.U. after   14 cycles
            NFock= 14  Conv=0.14D-08     -V/T= 2.0116
   1 Symmetry operations used in ECPInt.
 ECPInt:  NShTT=    1653 NPrTT=    6101 LenC2=    1650 LenP2D=    5045.
 LDataN:  DoStor=T MaxTD1= 5 Len=  102
 Calling FoFJK, ICntrl=      2127 FMM=F ISym2X=0 I1Cent= 0 IOpClX= 0 NMat=1 NMatS=1 NMatT=0.
 ***** Axes restored to original set *****
 -------------------------------------------------------------------
 Center     Atomic                   Forces (Hartrees/Bohr)
 Number     Number              X              Y              Z
 -------------------------------------------------------------------
      1        6          -0.005633467    0.004585510   -0.000062386
      2        6           0.003874541   -0.006817615    0.000282022
      3        6          -0.001147824    0.007261191   -0.000106562
      4        6           0.001000637   -0.001866980    0.000021437
      5        6          -0.002157240    0.003677687    0.000027588
      6        6           0.001126474   -0.001727747   -0.000082436
      7        1           0.000862571   -0.000582094    0.000013577
      8        1           0.000064420   -0.001046454    0.000003842
      9        1           0.000067538   -0.000279565   -0.000010665
     10        1           0.000180951   -0.000296359    0.000008538
     11        1           0.000201622   -0.000215009    0.000012643
     12        8           0.001559779   -0.002692564   -0.000107597
 -------------------------------------------------------------------
 Cartesian Forces:  Max     0.007261191 RMS     0.002400736

 GradGradGradGradGradGradGradGradGradGradGradGradGradGradGradGradGradGrad
 Berny optimization.
 Using GEDIIS/GDIIS optimizer.
 FormGI is forming the generalized inverse of G from B-inverse, IUseBI=4.
 Internal  Forces:  Max     0.004596111 RMS     0.001375662
 Search for a local minimum.
 Step number   3 out of a maximum of   64
 All quantities printed in internal units (Hartrees-Bohrs-Radians)
 Mixed Optimization -- RFO/linear search
 Update second derivatives using D2CorX and points    1    2    3
 DE= -2.99D-03 DEPred=-3.42D-03 R= 8.74D-01
 TightC=F SS=  1.41D+00  RLast= 1.22D-01 DXNew= 8.4853D-01 3.6534D-01
 Trust test= 8.74D-01 RLast= 1.22D-01 DXMaxT set to 5.05D-01
 ITU=  1  1  0
 Use linear search instead of GDIIS.
     Eigenvalues ---    0.02152   0.02153   0.02154   0.02155   0.02155
     Eigenvalues ---    0.02155   0.02156   0.02156   0.02157   0.15864
     Eigenvalues ---    0.16000   0.16000   0.16000   0.16019   0.19687
     Eigenvalues ---    0.22000   0.22140   0.25000   0.33646   0.33717
     Eigenvalues ---    0.33721   0.33724   0.33747   0.37814   0.41945
     Eigenvalues ---    0.44764   0.46446   0.46466   0.46604   0.58302
 RFO step:  Lambda=-2.84648524D-04 EMin= 2.15184474D-02
 Quartic linear search produced a step of  0.15175.
 Iteration  1 RMS(Cart)=  0.00642412 RMS(Int)=  0.00004212
 Iteration  2 RMS(Cart)=  0.00005273 RMS(Int)=  0.00002266
 Iteration  3 RMS(Cart)=  0.00000000 RMS(Int)=  0.00002266
 Variable       Old X    -DE/DX   Delta X   Delta X   Delta X     New X
                                 (Linear)    (Quad)   (Total)
    R1        2.73130   0.00454   0.00638   0.00743   0.01385   2.74515
    R2        2.62599  -0.00039  -0.00180   0.00028  -0.00152   2.62447
    R3        2.07046   0.00008   0.00082  -0.00037   0.00045   2.07091
    R4        2.73108   0.00460   0.00640   0.00755   0.01399   2.74506
    R5        2.37209   0.00311  -0.01026   0.01327   0.00301   2.37510
    R6        2.62614  -0.00043  -0.00184   0.00020  -0.00164   2.62450
    R7        2.07048   0.00007   0.00083  -0.00040   0.00042   2.07090
    R8        2.65285   0.00111   0.00014   0.00255   0.00265   2.65550
    R9        2.07593  -0.00021   0.00046  -0.00102  -0.00057   2.07536
   R10        2.65298   0.00109   0.00010   0.00252   0.00258   2.65556
   R11        2.06912  -0.00035  -0.00032  -0.00097  -0.00129   2.06784
   R12        2.07591  -0.00020   0.00045  -0.00100  -0.00055   2.07536
    A1        2.14080   0.00166   0.00353   0.00581   0.00937   2.15017
    A2        2.03879  -0.00190  -0.00288  -0.00912  -0.01203   2.02676
    A3        2.10360   0.00025  -0.00064   0.00331   0.00265   2.10625
    A4        1.98769  -0.00411  -0.00781  -0.01227  -0.02002   1.96768
    A5        2.14767   0.00206   0.00393   0.00615   0.01004   2.15771
    A6        2.14782   0.00205   0.00389   0.00613   0.00997   2.15779
    A7        2.14077   0.00166   0.00352   0.00584   0.00940   2.15017
    A8        2.03895  -0.00191  -0.00290  -0.00919  -0.01211   2.02685
    A9        2.10347   0.00025  -0.00062   0.00335   0.00271   2.10617
   A10        2.12117   0.00126   0.00138   0.00455   0.00590   2.12707
   A11        2.08141  -0.00084  -0.00093  -0.00359  -0.00450   2.07691
   A12        2.08061  -0.00042  -0.00045  -0.00096  -0.00140   2.07921
   A13        2.05482  -0.00175  -0.00199  -0.00851  -0.01058   2.04425
   A14        2.11427   0.00087   0.00099   0.00420   0.00523   2.11950
   A15        2.11409   0.00088   0.00100   0.00431   0.00535   2.11944
   A16        2.12112   0.00127   0.00138   0.00458   0.00592   2.12705
   A17        2.08162  -0.00086  -0.00095  -0.00370  -0.00463   2.07698
   A18        2.08045  -0.00041  -0.00043  -0.00088  -0.00129   2.07916
    D1        0.00077  -0.00004   0.00008  -0.00192  -0.00184  -0.00107
    D2        3.14045   0.00006  -0.00014   0.00300   0.00286  -3.13988
    D3       -3.14092  -0.00003   0.00008  -0.00170  -0.00161   3.14065
    D4       -0.00124   0.00006  -0.00014   0.00323   0.00308   0.00184
    D5        0.00026  -0.00000   0.00002  -0.00012  -0.00010   0.00016
    D6        3.14127   0.00002  -0.00004   0.00086   0.00082  -3.14109
    D7       -3.14123  -0.00001   0.00003  -0.00036  -0.00033  -3.14156
    D8       -0.00022   0.00001  -0.00004   0.00062   0.00059   0.00037
    D9       -0.00126   0.00005  -0.00013   0.00267   0.00254   0.00127
   D10        3.14075   0.00004  -0.00009   0.00193   0.00184  -3.14060
   D11       -3.14094  -0.00004   0.00009  -0.00225  -0.00216   3.14009
   D12        0.00107  -0.00006   0.00014  -0.00299  -0.00286  -0.00179
   D13        0.00075  -0.00003   0.00007  -0.00139  -0.00133  -0.00058
   D14       -3.14134  -0.00001   0.00005  -0.00084  -0.00080   3.14104
   D15       -3.14128  -0.00001   0.00003  -0.00063  -0.00060   3.14130
   D16       -0.00018  -0.00000   0.00000  -0.00007  -0.00007  -0.00026
   D17        0.00036  -0.00002   0.00004  -0.00082  -0.00078  -0.00042
   D18        3.14159   0.00000  -0.00001   0.00008   0.00008  -3.14152
   D19       -3.14074  -0.00003   0.00007  -0.00137  -0.00131   3.14114
   D20        0.00049  -0.00001   0.00002  -0.00047  -0.00045   0.00004
   D21       -0.00085   0.00003  -0.00009   0.00156   0.00148   0.00063
   D22        3.14133   0.00001  -0.00003   0.00058   0.00056  -3.14130
   D23        3.14111   0.00001  -0.00004   0.00066   0.00062  -3.14146
   D24        0.00010  -0.00001   0.00002  -0.00032  -0.00030  -0.00020
         Item               Value     Threshold  Converged?
 Maximum Force            0.004596     0.000450     NO 
 RMS     Force            0.001376     0.000300     NO 
 Maximum Displacement     0.023934     0.001800     NO 
 RMS     Displacement     0.006439     0.001200     NO 
 Predicted change in Energy=-2.055466D-04
 GradGradGradGradGradGradGradGradGradGradGradGradGradGradGradGradGradGrad

                          Input orientation:                          
 ---------------------------------------------------------------------
 Center     Atomic      Atomic             Coordinates (Angstroms)
 Number     Number       Type             X           Y           Z
 ---------------------------------------------------------------------
      1          6           0       -0.801354    0.751936    0.000242
      2          6           0        0.648398    0.659882    0.001628
      3          6           0        1.293667    1.961321    0.000061
      4          6           0        0.590210    3.158813   -0.001008
      5          6           0       -0.814576    3.194133   -0.001340
      6          6           0       -1.486551    1.959947   -0.001068
      7          1           0       -1.345281   -0.199426    0.000402
      8          1           0        2.389531    1.956673    0.000027
      9          1           0        1.148764    4.104399   -0.001645
     10          1           0       -1.361673    4.141800   -0.002251
     11          1           0       -2.584732    1.949214   -0.001592
     12          8           0        1.276722   -0.428640    0.001027
 ---------------------------------------------------------------------
                    Distance matrix (angstroms):
                    1          2          3          4          5
     1  C    0.000000
     2  C    1.452672   0.000000
     3  C    2.419034   1.452625   0.000000
     4  C    2.780200   2.499610   1.388827   0.000000
     5  C    2.442234   2.926214   2.442236   1.405230   0.000000
     6  C    1.388808   2.499636   2.780218   2.397960   1.405263
     7  H    1.095877   2.170983   3.410700   3.876067   3.434806
     8  H    3.410739   2.170994   1.095874   2.163954   3.434764
     9  H    3.878398   3.480672   2.147972   1.098233   2.164090
    10  H    3.435861   4.020467   3.435888   2.185432   1.094253
    11  H    2.148003   3.480735   3.878419   3.397556   2.164088
    12  O    2.390012   1.256850   2.390022   3.652550   4.183063
                    6          7          8          9         10
     6  C    0.000000
     7  H    2.163990   0.000000
     8  H    3.876083   4.312492   0.000000
     9  H    3.397581   4.974251   2.480369   0.000000
    10  H    2.185424   4.341258   4.341234   2.510716   0.000000
    11  H    1.098234   2.480503   4.974269   4.310895   2.510639
    12  O    3.652537   2.632003   2.632121   4.534846   5.277316
                   11         12
    11  H    0.000000
    12  O    4.534868   0.000000
 Stoichiometry    C6H5O(1-)
 Framework group  C1[X(C6H5O)]
 Deg. of freedom    30
 Full point group                 C1      NOp   1
 Largest Abelian subgroup         C1      NOp   1
 Largest concise Abelian subgroup C1      NOp   1
                         Standard orientation:                         
 ---------------------------------------------------------------------
 Center     Atomic      Atomic             Coordinates (Angstroms)
 Number     Number       Type             X           Y           Z
 ---------------------------------------------------------------------
      1          6           0        0.286658   -1.209516    0.000119
      2          6           0        1.091183    0.000027    0.000986
      3          6           0        0.286665    1.209518    0.000020
      4          6           0       -1.102122    1.198969   -0.000084
      5          6           0       -1.835031    0.000005    0.000054
      6          6           0       -1.102110   -1.198991   -0.000225
      7          1           0        0.838655   -2.156219   -0.000137
      8          1           0        0.838565    2.156273   -0.000366
      9          1           0       -1.641804    2.155452   -0.000313
     10          1           0       -2.929284   -0.000028   -0.000096
     11          1           0       -1.641849   -2.155444   -0.000406
     12          8           0        2.348032   -0.000013   -0.000489
 ---------------------------------------------------------------------
 Rotational constants (GHZ):           5.7203325           2.6699153           1.8203044
 Standard basis: def2SVP (5D, 7F)
 There are   130 symmetry adapted cartesian basis functions of A   symmetry.
 There are   123 symmetry adapted basis functions of A   symmetry.
   123 basis functions,   210 primitive gaussians,   130 cartesian basis functions
    25 alpha electrons       25 beta electrons
       nuclear repulsion energy       258.9867811195 Hartrees.
 NAtoms=   12 NActive=   12 NUniq=   12 SFac= 1.00D+00 NAtFMM=   60 NAOKFM=F Big=F
 Integral buffers will be    131072 words long.
 Raffenetti 2 integral format.
 Two-electron integral symmetry is turned on.
 One-electron integrals computed using PRISM.
   1 Symmetry operations used in ECPInt.
 ECPInt:  NShTT=    1653 NPrTT=    6101 LenC2=    1650 LenP2D=    5045.
 LDataN:  DoStor=T MaxTD1= 4 Len=   56
 NBasis=   123 RedAO= T EigKep=  3.18D-04  NBF=   123
 NBsUse=   123 1.00D-06 EigRej= -1.00D+00 NBFU=   123
 Initial guess from the checkpoint file:  "phenol_b_opt.chk"
 B after Tr=    -0.000000    0.000000    0.000000
         Rot=    1.000000    0.000000    0.000000   -0.000007 Ang=   0.00 deg.
 ExpMin= 1.22D-01 ExpMax= 2.27D+03 ExpMxC= 3.41D+02 IAcc=3 IRadAn=         5 AccDes= 0.00D+00
 Harris functional with IExCor= 1009 and IRadAn=       5 diagonalized for initial guess.
 HarFok:  IExCor= 1009 AccDes= 0.00D+00 IRadAn=         5 IDoV= 1 UseB2=F ITyADJ=14
 ICtDFT=  3500011 ScaDFX=  1.000000  1.000000  1.000000  1.000000
 FoFCou: FMM=F IPFlag=           0 FMFlag=      100000 FMFlg1=           0
         NFxFlg=           0 DoJE=T BraDBF=F KetDBF=T FulRan=T
         wScrn=  0.000000 ICntrl=       500 IOpCl=  0 I1Cent=   200000004 NGrid=           0
         NMat0=    1 NMatS0=      1 NMatT0=    0 NMatD0=    1 NMtDS0=    0 NMtDT0=    0
 Petite list used in FoFCou.
 Keep R1 ints in memory in canonical form, NReq=90305121.
 Requested convergence on RMS density matrix=1.00D-08 within 128 cycles.
 Requested convergence on MAX density matrix=1.00D-06.
 Requested convergence on             energy=1.00D-06.
 No special actions if energy rises.
 Integral accuracy reduced to 1.0D-05 until final iterations.
 Initial convergence to 1.0D-05 achieved.  Increase integral accuracy.
 SCF Done:  E(RMN15) =  -306.264969420     A.U. after   11 cycles
            NFock= 11  Conv=0.93D-08     -V/T= 2.0117
   1 Symmetry operations used in ECPInt.
 ECPInt:  NShTT=    1653 NPrTT=    6101 LenC2=    1650 LenP2D=    5045.
 LDataN:  DoStor=T MaxTD1= 5 Len=  102
 Calling FoFJK, ICntrl=      2127 FMM=F ISym2X=0 I1Cent= 0 IOpClX= 0 NMat=1 NMatS=1 NMatT=0.
 ***** Axes restored to original set *****
 -------------------------------------------------------------------
 Center     Atomic                   Forces (Hartrees/Bohr)
 Number     Number              X              Y              Z
 -------------------------------------------------------------------
      1        6           0.000114767    0.000332958    0.000106737
      2        6           0.000545836   -0.000989810   -0.000415353
      3        6          -0.000339319    0.000092819    0.000125085
      4        6          -0.000071635   -0.000559730    0.000023270
      5        6          -0.000094973    0.000131984   -0.000028449
      6        6           0.000526718   -0.000196305    0.000060097
      7        1          -0.000084007   -0.000265056   -0.000007853
      8        1           0.000273739   -0.000065651   -0.000003934
      9        1           0.000245958   -0.000029420   -0.000010806
     10        1           0.000087848   -0.000146935    0.000001226
     11        1          -0.000096559   -0.000233241   -0.000017046
     12        8          -0.001108374    0.001928387    0.000167027
 -------------------------------------------------------------------
 Cartesian Forces:  Max     0.001928387 RMS     0.000461799

 GradGradGradGradGradGradGradGradGradGradGradGradGradGradGradGradGradGrad
 Berny optimization.
 Using GEDIIS/GDIIS optimizer.
 FormGI is forming the generalized inverse of G from B-inverse, IUseBI=4.
 Internal  Forces:  Max     0.002224299 RMS     0.000362100
 Search for a local minimum.
 Step number   4 out of a maximum of   64
 All quantities printed in internal units (Hartrees-Bohrs-Radians)
 Mixed Optimization -- En-DIIS/RFO-DIIS
 Update second derivatives using D2CorX and points    1    2    3    4
 DE= -1.82D-04 DEPred=-2.06D-04 R= 8.86D-01
 TightC=F SS=  1.41D+00  RLast= 4.29D-02 DXNew= 8.4853D-01 1.2866D-01
 Trust test= 8.86D-01 RLast= 4.29D-02 DXMaxT set to 5.05D-01
 ITU=  1  1  1  0
 Use linear search instead of GDIIS.
     Eigenvalues ---    0.02152   0.02153   0.02154   0.02155   0.02155
     Eigenvalues ---    0.02155   0.02156   0.02157   0.02168   0.15006
     Eigenvalues ---    0.16000   0.16000   0.16000   0.16078   0.19950
     Eigenvalues ---    0.22000   0.22382   0.25000   0.33543   0.33716
     Eigenvalues ---    0.33721   0.33723   0.33760   0.37640   0.41899
     Eigenvalues ---    0.44473   0.46454   0.46467   0.47093   0.57136
 RFO step:  Lambda=-1.34473155D-05 EMin= 2.15203882D-02
 Quartic linear search produced a step of -0.07765.
 Iteration  1 RMS(Cart)=  0.00132851 RMS(Int)=  0.00000212
 Iteration  2 RMS(Cart)=  0.00000197 RMS(Int)=  0.00000127
 Iteration  3 RMS(Cart)=  0.00000000 RMS(Int)=  0.00000127
 Variable       Old X    -DE/DX   Delta X   Delta X   Delta X     New X
                                 (Linear)    (Quad)   (Total)
    R1        2.74515  -0.00054  -0.00108   0.00044  -0.00063   2.74452
    R2        2.62447  -0.00059   0.00012  -0.00140  -0.00128   2.62319
    R3        2.07091   0.00027  -0.00003   0.00086   0.00083   2.07174
    R4        2.74506  -0.00052  -0.00109   0.00050  -0.00059   2.74448
    R5        2.37510  -0.00222  -0.00023  -0.00381  -0.00404   2.37106
    R6        2.62450  -0.00060   0.00013  -0.00142  -0.00129   2.62321
    R7        2.07090   0.00027  -0.00003   0.00087   0.00083   2.07173
    R8        2.65550   0.00006  -0.00021   0.00046   0.00025   2.65575
    R9        2.07536   0.00010   0.00004   0.00022   0.00027   2.07563
   R10        2.65556   0.00005  -0.00020   0.00042   0.00022   2.65578
   R11        2.06784  -0.00017   0.00010  -0.00062  -0.00052   2.06732
   R12        2.07536   0.00010   0.00004   0.00022   0.00026   2.07563
    A1        2.15017  -0.00018  -0.00073   0.00028  -0.00045   2.14972
    A2        2.02676   0.00003   0.00093  -0.00131  -0.00037   2.02639
    A3        2.10625   0.00015  -0.00021   0.00103   0.00083   2.10708
    A4        1.96768   0.00043   0.00155  -0.00083   0.00072   1.96840
    A5        2.15771  -0.00021  -0.00078   0.00044  -0.00034   2.15737
    A6        2.15779  -0.00022  -0.00077   0.00040  -0.00038   2.15741
    A7        2.15017  -0.00018  -0.00073   0.00028  -0.00045   2.14971
    A8        2.02685   0.00002   0.00094  -0.00135  -0.00041   2.02643
    A9        2.10617   0.00016  -0.00021   0.00108   0.00087   2.10704
   A10        2.12707   0.00000  -0.00046   0.00083   0.00037   2.12744
   A11        2.07691  -0.00024   0.00035  -0.00202  -0.00167   2.07524
   A12        2.07921   0.00023   0.00011   0.00119   0.00130   2.08051
   A13        2.04425  -0.00009   0.00082  -0.00139  -0.00056   2.04368
   A14        2.11950   0.00004  -0.00041   0.00067   0.00026   2.11977
   A15        2.11944   0.00005  -0.00042   0.00072   0.00030   2.11974
   A16        2.12705   0.00001  -0.00046   0.00084   0.00038   2.12743
   A17        2.07698  -0.00025   0.00036  -0.00207  -0.00172   2.07527
   A18        2.07916   0.00024   0.00010   0.00124   0.00134   2.08049
    D1       -0.00107   0.00006   0.00014   0.00230   0.00245   0.00138
    D2       -3.13988  -0.00008  -0.00022  -0.00318  -0.00340   3.13990
    D3        3.14065   0.00005   0.00013   0.00196   0.00209  -3.14044
    D4        0.00184  -0.00009  -0.00024  -0.00352  -0.00376  -0.00192
    D5        0.00016  -0.00002   0.00001  -0.00069  -0.00068  -0.00052
    D6       -3.14109  -0.00003  -0.00006  -0.00102  -0.00108   3.14101
    D7       -3.14156  -0.00001   0.00003  -0.00034  -0.00031   3.14131
    D8        0.00037  -0.00002  -0.00005  -0.00066  -0.00071  -0.00034
    D9        0.00127  -0.00006  -0.00020  -0.00248  -0.00268  -0.00141
   D10       -3.14060  -0.00005  -0.00014  -0.00201  -0.00215   3.14044
   D11        3.14009   0.00007   0.00017   0.00300   0.00317  -3.13993
   D12       -0.00179   0.00009   0.00022   0.00348   0.00370   0.00191
   D13       -0.00058   0.00003   0.00010   0.00106   0.00116   0.00058
   D14        3.14104   0.00003   0.00006   0.00108   0.00114  -3.14100
   D15        3.14130   0.00001   0.00005   0.00056   0.00060  -3.14128
   D16       -0.00026   0.00001   0.00001   0.00058   0.00059   0.00033
   D17       -0.00042   0.00002   0.00006   0.00078   0.00084   0.00042
   D18       -3.14152  -0.00000  -0.00001  -0.00004  -0.00005  -3.14157
   D19        3.14114   0.00002   0.00010   0.00075   0.00086  -3.14119
   D20        0.00004  -0.00000   0.00004  -0.00007  -0.00003   0.00001
   D21        0.00063  -0.00003  -0.00011  -0.00096  -0.00107  -0.00044
   D22       -3.14130  -0.00002  -0.00004  -0.00063  -0.00067   3.14121
   D23       -3.14146  -0.00000  -0.00005  -0.00013  -0.00018   3.14154
   D24       -0.00020   0.00001   0.00002   0.00019   0.00021   0.00001
         Item               Value     Threshold  Converged?
 Maximum Force            0.002224     0.000450     NO 
 RMS     Force            0.000362     0.000300     NO 
 Maximum Displacement     0.005198     0.001800     NO 
 RMS     Displacement     0.001329     0.001200     NO 
 Predicted change in Energy=-8.015805D-06
 GradGradGradGradGradGradGradGradGradGradGradGradGradGradGradGradGradGrad

                          Input orientation:                          
 ---------------------------------------------------------------------
 Center     Atomic      Atomic             Coordinates (Angstroms)
 Number     Number       Type             X           Y           Z
 ---------------------------------------------------------------------
      1          6           0       -0.801576    0.752284   -0.000048
      2          6           0        0.647874    0.660769   -0.000530
      3          6           0        1.293479    1.961697   -0.000143
      4          6           0        0.590261    3.158535   -0.001027
      5          6           0       -0.814648    3.194248   -0.001691
      6          6           0       -1.486325    1.959770   -0.000902
      7          1           0       -1.345025   -0.199856    0.000823
      8          1           0        2.389780    1.956197    0.000659
      9          1           0        1.150380    4.103359   -0.001228
     10          1           0       -1.361594    4.141685   -0.002409
     11          1           0       -2.584628    1.947254   -0.001018
     12          8           0        1.275147   -0.425889    0.001998
 ---------------------------------------------------------------------
                    Distance matrix (angstroms):
                    1          2          3          4          5
     1  C    0.000000
     2  C    1.452336   0.000000
     3  C    2.419077   1.452315   0.000000
     4  C    2.779794   2.498430   1.388142   0.000000
     5  C    2.442000   2.925319   2.442004   1.405363   0.000000
     6  C    1.388130   2.498442   2.779805   2.397759   1.405378
     7  H    1.096315   2.170788   3.410867   3.876096   3.435294
     8  H    3.410888   2.170800   1.096315   2.164229   3.435278
     9  H    3.878123   3.479071   2.146437   1.098374   2.165137
    10  H    3.435355   4.019296   3.435369   2.185480   1.093977
    11  H    2.146446   3.479097   3.878134   3.398105   2.165139
    12  O    2.387650   1.254712   2.387657   3.649270   4.180030
                    6          7          8          9         10
     6  C    0.000000
     7  H    2.164244   0.000000
     8  H    3.876107   4.312462   0.000000
     9  H    3.398115   4.974405   2.479197   0.000000
    10  H    2.185477   4.341573   4.341563   2.512266   0.000000
    11  H    1.098374   2.479254   4.974416   4.312664   2.512238
    12  O    3.649261   2.629903   2.629970   4.530967   5.274007
                   11         12
    11  H    0.000000
    12  O    4.530969   0.000000
 Stoichiometry    C6H5O(1-)
 Framework group  C1[X(C6H5O)]
 Deg. of freedom    30
 Full point group                 C1      NOp   1
 Largest Abelian subgroup         C1      NOp   1
 Largest concise Abelian subgroup C1      NOp   1
                         Standard orientation:                         
 ---------------------------------------------------------------------
 Center     Atomic      Atomic             Coordinates (Angstroms)
 Number     Number       Type             X           Y           Z
 ---------------------------------------------------------------------
      1          6           0        0.286847   -1.209536   -0.000048
      2          6           0        1.090754    0.000014   -0.001082
      3          6           0        0.286849    1.209541   -0.000034
      4          6           0       -1.101252    1.198873    0.000127
      5          6           0       -1.834565   -0.000000   -0.000039
      6          6           0       -1.101243   -1.198886    0.000144
      7          1           0        0.839756   -2.156214    0.000363
      8          1           0        0.839707    2.156248    0.000393
      9          1           0       -1.639490    2.156331    0.000374
     10          1           0       -2.928542   -0.000015    0.000067
     11          1           0       -1.639498   -2.156334    0.000391
     12          8           0        2.345465   -0.000007    0.000501
 ---------------------------------------------------------------------
 Rotational constants (GHZ):           5.7201382           2.6739144           1.8221427
 Standard basis: def2SVP (5D, 7F)
 There are   130 symmetry adapted cartesian basis functions of A   symmetry.
 There are   123 symmetry adapted basis functions of A   symmetry.
   123 basis functions,   210 primitive gaussians,   130 cartesian basis functions
    25 alpha electrons       25 beta electrons
       nuclear repulsion energy       259.0929146863 Hartrees.
 NAtoms=   12 NActive=   12 NUniq=   12 SFac= 1.00D+00 NAtFMM=   60 NAOKFM=F Big=F
 Integral buffers will be    131072 words long.
 Raffenetti 2 integral format.
 Two-electron integral symmetry is turned on.
 One-electron integrals computed using PRISM.
   1 Symmetry operations used in ECPInt.
 ECPInt:  NShTT=    1653 NPrTT=    6101 LenC2=    1650 LenP2D=    5045.
 LDataN:  DoStor=T MaxTD1= 4 Len=   56
 NBasis=   123 RedAO= T EigKep=  3.18D-04  NBF=   123
 NBsUse=   123 1.00D-06 EigRej= -1.00D+00 NBFU=   123
 Initial guess from the checkpoint file:  "phenol_b_opt.chk"
 B after Tr=     0.000000   -0.000000   -0.000000
         Rot=    1.000000   -0.000000   -0.000000   -0.000000 Ang=  -0.00 deg.
 Keep R1 ints in memory in canonical form, NReq=90305121.
 Requested convergence on RMS density matrix=1.00D-08 within 128 cycles.
 Requested convergence on MAX density matrix=1.00D-06.
 Requested convergence on             energy=1.00D-06.
 No special actions if energy rises.
 SCF Done:  E(RMN15) =  -306.264975047     A.U. after   10 cycles
            NFock= 10  Conv=0.28D-08     -V/T= 2.0117
   1 Symmetry operations used in ECPInt.
 ECPInt:  NShTT=    1653 NPrTT=    6101 LenC2=    1650 LenP2D=    5045.
 LDataN:  DoStor=T MaxTD1= 5 Len=  102
 Calling FoFJK, ICntrl=      2127 FMM=F ISym2X=0 I1Cent= 0 IOpClX= 0 NMat=1 NMatS=1 NMatT=0.
 ***** Axes restored to original set *****
 -------------------------------------------------------------------
 Center     Atomic                   Forces (Hartrees/Bohr)
 Number     Number              X              Y              Z
 -------------------------------------------------------------------
      1        6           0.000013450   -0.000150379   -0.000131546
      2        6          -0.000452415    0.000764359    0.000456765
      3        6           0.000125575   -0.000072844   -0.000133910
      4        6          -0.000128918    0.000025109   -0.000028137
      5        6           0.000010084   -0.000031972    0.000013791
      6        6           0.000044405    0.000135600   -0.000032462
      7        1           0.000026316    0.000014754    0.000003951
      8        1          -0.000025790   -0.000018495    0.000003423
      9        1           0.000043431    0.000011567    0.000014065
     10        1           0.000000965    0.000000517   -0.000000535
     11        1          -0.000031564   -0.000033818    0.000014614
     12        8           0.000374459   -0.000644399   -0.000180019
 -------------------------------------------------------------------
 Cartesian Forces:  Max     0.000764359 RMS     0.000218061

 GradGradGradGradGradGradGradGradGradGradGradGradGradGradGradGradGradGrad
 Berny optimization.
 Using GEDIIS/GDIIS optimizer.
 FormGI is forming the generalized inverse of G from B-inverse, IUseBI=4.
 Internal  Forces:  Max     0.000744931 RMS     0.000109102
 Search for a local minimum.
 Step number   5 out of a maximum of   64
[...]
   D22       -3.14138  -0.00001   0.00000  -0.00021  -0.00021  -3.14159
   D23        3.14155   0.00000   0.00000   0.00004   0.00004  -3.14159
   D24       -0.00001   0.00000   0.00000   0.00001   0.00001   0.00000
         Item               Value     Threshold  Converged?
 Maximum Force            0.000227     0.000450     YES
 RMS     Force            0.000038     0.000300     YES
 Maximum Displacement     0.001167     0.001800     YES
 RMS     Displacement     0.000207     0.001200     YES
 Predicted change in Energy=-2.135967D-07
 Optimization completed.
    -- Stationary point found.
                           ----------------------------
                           !   Optimized Parameters   !
                           ! (Angstroms and Degrees)  !
 --------------------------                            --------------------------
 ! Name  Definition              Value          Derivative Info.                !
 --------------------------------------------------------------------------------
 ! R1    R(1,2)                  1.4522         -DE/DX =    0.0                 !
 ! R2    R(1,6)                  1.3881         -DE/DX =    0.0001              !
 ! R3    R(1,7)                  1.0963         -DE/DX =    0.0                 !
 ! R4    R(2,3)                  1.4522         -DE/DX =    0.0                 !
 ! R5    R(2,12)                 1.2552         -DE/DX =    0.0002              !
 ! R6    R(3,4)                  1.3882         -DE/DX =    0.0001              !
 ! R7    R(3,8)                  1.0963         -DE/DX =    0.0                 !
 ! R8    R(4,5)                  1.4053         -DE/DX =    0.0                 !
 ! R9    R(4,9)                  1.0984         -DE/DX =    0.0                 !
 ! R10   R(5,6)                  1.4054         -DE/DX =    0.0                 !
 ! R11   R(5,10)                 1.094          -DE/DX =    0.0                 !
 ! R12   R(6,11)                 1.0984         -DE/DX =    0.0                 !
 ! A1    A(2,1,6)              123.1536         -DE/DX =    0.0                 !
 ! A2    A(2,1,7)              116.1074         -DE/DX =    0.0                 !
 ! A3    A(6,1,7)              120.7391         -DE/DX =    0.0                 !
 ! A4    A(1,2,3)              112.8091         -DE/DX =    0.0                 !
 ! A5    A(1,2,12)             123.5948         -DE/DX =    0.0                 !
 ! A6    A(3,2,12)             123.5961         -DE/DX =    0.0                 !
 ! A7    A(2,3,4)              123.1533         -DE/DX =    0.0                 !
 ! A8    A(2,3,8)              116.109          -DE/DX =    0.0                 !
 ! A9    A(4,3,8)              120.7377         -DE/DX =    0.0                 !
 ! A10   A(3,4,5)              121.893          -DE/DX =    0.0                 !
 ! A11   A(3,4,9)              118.8887         -DE/DX =    0.0                 !
 ! A12   A(5,4,9)              119.2182         -DE/DX =    0.0                 !
 ! A13   A(4,5,6)              117.0984         -DE/DX =    0.0                 !
 ! A14   A(4,5,10)             121.4512         -DE/DX =    0.0                 !
 ! A15   A(6,5,10)             121.4503         -DE/DX =    0.0                 !
 ! A16   A(1,6,5)              121.8926         -DE/DX =    0.0                 !
 ! A17   A(1,6,11)             118.8897         -DE/DX =    0.0                 !
 ! A18   A(5,6,11)             119.2177         -DE/DX =    0.0                 !
 ! D1    D(6,1,2,3)             -0.0426         -DE/DX =    0.0                 !
 ! D2    D(6,1,2,12)           180.0541         -DE/DX =    0.0                 !
 ! D3    D(7,1,2,3)            179.9647         -DE/DX =    0.0                 !
 ! D4    D(7,1,2,12)             0.0615         -DE/DX =   -0.0001              !
 ! D5    D(2,1,6,5)              0.019          -DE/DX =    0.0                 !
 ! D6    D(2,1,6,11)          -179.9829         -DE/DX =    0.0                 !
 ! D7    D(7,1,6,5)           -179.9887         -DE/DX =    0.0                 !
 ! D8    D(7,1,6,11)             0.0094         -DE/DX =    0.0                 !
 ! D9    D(1,2,3,4)              0.0414         -DE/DX =    0.0                 !
 ! D10   D(1,2,3,8)           -179.965          -DE/DX =    0.0                 !
 ! D11   D(12,2,3,4)          -180.0554         -DE/DX =    0.0                 !
 ! D12   D(12,2,3,8)            -0.0617         -DE/DX =    0.0001              !
 ! D13   D(2,3,4,5)             -0.0164         -DE/DX =    0.0                 !
 ! D14   D(2,3,4,9)            179.9832         -DE/DX =    0.0                 !
 ! D15   D(8,3,4,5)            179.9902         -DE/DX =    0.0                 !
 ! D16   D(8,3,4,9)             -0.0101         -DE/DX =    0.0                 !
 ! D17   D(3,4,5,6)             -0.0113         -DE/DX =    0.0                 !
 ! D18   D(3,4,5,10)           180.0012         -DE/DX =    0.0                 !
 ! D19   D(9,4,5,6)            179.9891         -DE/DX =    0.0                 !
 ! D20   D(9,4,5,10)             0.0015         -DE/DX =    0.0                 !
 ! D21   D(4,5,6,1)              0.01           -DE/DX =    0.0                 !
 ! D22   D(4,5,6,11)          -179.9881         -DE/DX =    0.0                 !
 ! D23   D(10,5,6,1)          -180.0024         -DE/DX =    0.0                 !
 ! D24   D(10,5,6,11)           -0.0005         -DE/DX =    0.0                 !
 --------------------------------------------------------------------------------
 GradGradGradGradGradGradGradGradGradGradGradGradGradGradGradGradGradGrad


 ----------------------------------------------------------------------

 Electric dipole moment (input orientation):
 (Debye = 10**-18 statcoulomb cm , SI units = C m)
                  (au)            (Debye)         (10**-30 SI)
   Tot        0.149521D+01      0.380043D+01      0.126769D+02
   x         -0.747532D+00     -0.190004D+01     -0.633784D+01
   y          0.129493D+01      0.329138D+01      0.109788D+02
   z         -0.703079D-03     -0.178705D-02     -0.596095D-02

 Dipole polarizability, Alpha (input orientation).
 (esu units = cm**3 , SI units = C**2 m**2 J**-1)
 Alpha(0;0):
               (au)            (10**-24 esu)      (10**-40 SI)
   iso        0.689254D+02      0.102137D+02      0.113643D+02
   aniso      0.583725D+02      0.864991D+01      0.962432D+01
   xx         0.845717D+02      0.125322D+02      0.139440D+02
   yx        -0.590300D+01     -0.874735D+00     -0.973274D+00
   yy         0.913896D+02      0.135425D+02      0.150681D+02
   zx         0.211953D-01      0.314082D-02      0.349463D-02
   zy        -0.411100D-01     -0.609187D-02     -0.677812D-02
   zz         0.308148D+02      0.456628D+01      0.508067D+01

 ----------------------------------------------------------------------

 Dipole orientation:
     6         -0.52008769         -0.30165678          1.98855385
     6          1.46021123          0.84000660          0.47011618
     6          3.43908818          1.98409887          1.98853677
     6          3.42113575          1.97470901          4.61169656
     6          1.45898787          0.84212040          5.99736718
     6         -0.50296277         -0.29085055          4.61169799
     1         -2.06930451         -1.19586289          0.94340519
     1          4.98815702          2.87861941          0.94343682
     1          4.98806670          2.87994902          5.62849123
     1          1.45862668          0.84272438          8.06465618
     1         -2.07039957         -1.19518507          5.62851820
     8          1.45961615          0.84097735         -1.90177845

 Electric dipole moment (dipole orientation):
 (Debye = 10**-18 statcoulomb cm , SI units = C m)
                  (au)            (Debye)         (10**-30 SI)
   Tot        0.149521D+01      0.380043D+01      0.126769D+02
   x          0.000000D+00      0.000000D+00      0.000000D+00
   y          0.000000D+00      0.000000D+00      0.000000D+00
   z          0.149521D+01      0.380043D+01      0.126769D+02

 Dipole polarizability, Alpha (dipole orientation).
 (esu units = cm**3 , SI units = C**2 m**2 J**-1)
 Alpha(0;0):
               (au)            (10**-24 esu)      (10**-40 SI)
   iso        0.689254D+02      0.102137D+02      0.113643D+02
   aniso      0.583725D+02      0.864991D+01      0.962432D+01
   xx         0.685772D+02      0.101621D+02      0.113069D+02
   yx         0.218016D+02      0.323066D+01      0.359460D+01
   yy         0.434016D+02      0.643145D+01      0.715595D+01
   zx        -0.808167D-02     -0.119758D-02     -0.133249D-02
   zy         0.139409D-01      0.206583D-02      0.229855D-02
   zz         0.947973D+02      0.140475D+02      0.156300D+02

 ----------------------------------------------------------------------
 1\1\GINC-CHPC-CN072\Freq\RMN15\def2SVP\C6H5O1(1-)\S1155246976\14-Jan-2
 026\0\\#N Geom=AllCheck Guess=TCheck SCRF=Check GenChk RMN15/def2SVP F
 req\\Gaussian job with default settings\\-1,1\C,-0.801643091,0.7522799
 094,0.0001569409\C,0.6476610932,0.6611317873,0.0012302858\C,1.29351625
 2,1.961756684,0.0000586172\C,0.5902473962,3.1585832117,-0.0010403309\C
 ,-0.8146480773,3.1942442523,-0.0014374681\C,-1.4863578846,1.9598077223
 ,-0.0009175973\H,-1.3449174985,-0.1999484991,0.0003615071\H,2.38980726
 35,1.9560413767,0.0001909222\H,1.1505823538,4.1033351761,-0.0016081179
 \H,-1.3615819401,4.1416702693,-0.0023242307\H,-2.584706048,1.947055745
 4,-0.0014046502\O,1.2751639408,-0.4259048055,0.0012181617\\Version=ES6
 4L-G16RevB.01\State=1-A\HF=-306.2649759\RMSD=1.189e-09\RMSF=7.375e-05\
 ZeroPoint=0.0915297\Thermal=0.0967484\Dipole=-0.7475315,1.2949269,-0.0
 007031\DipoleDeriv=-0.2890773,0.6887275,-0.0003605,-0.0506812,-0.21740
 64,-0.0000102,-0.0000658,0.0004619,-0.3067388,0.5207565,-0.8061291,0.0
 00678,-0.8061527,1.451893,-0.0011671,0.0004838,-0.0008176,0.2088611,0.
 0409852,-0.2412926,0.0001803,0.4981447,-0.5475071,0.0002804,-0.0004242
 ,0.0003088,-0.3067503,0.6039479,0.0317788,0.0001683,-0.3024271,0.22866
 21,-0.0004062,0.000429,-0.0002487,-0.1309623,-0.5936178,-0.1643192,0.0
 000143,-0.1643287,-0.4037997,-0.0000023,0.0001036,-0.0001471,-0.306030
 1,0.2053123,-0.0722094,0.0002427,0.2620019,0.6272633,-0.0003968,-0.000
 0232,-0.0005247,-0.1309645,-0.0336828,-0.0912879,-0.0000212,-0.1256659
 ,-0.1867473,0.0001065,-0.0000351,0.0001054,0.0982467,-0.2424301,-0.005
 1214,-0.000059,0.0292465,0.0219895,0.0000737,-0.0000499,0.0000897,0.09
 82495,-0.0332672,-0.1454862,0.0000869,-0.1406246,-0.2084252,0.0001747,
 -0.0000048,0.0001872,0.0844849,-0.0543646,0.1186312,-0.0001421,0.11862
 91,-0.1913784,0.0002576,-0.0001624,0.0002967,0.1250093,-0.2885254,0.00
 67892,-0.0001639,0.0019316,0.0468308,0.0000137,-0.0001378,0.0001011,0.
 0844856,-0.8360368,0.6799192,-0.0006238,0.6799263,-1.6213746,0.0010761
 ,-0.0001131,0.0001874,-0.5178911\Polar=84.5717251,-5.9030032,91.389586
 5,0.0211953,-0.04111,30.8147724\Quadrupole=1.1201751,-4.9269106,3.8067
 354,5.2355089,-0.0031542,0.0054445\PG=C01 [X(C6H5O1)]\NImag=0\\0.61903
 823,-0.02278728,0.75954344,0.00030891,-0.00037345,0.11373206,-0.247503
 78,-0.03776123,-0.00012341,0.64539859,0.00723933,-0.11865714,0.0000418
 8,-0.14708909,0.81532560,-0.00013951,0.00001663,-0.07525230,0.00012174
 ,-0.00023897,0.20511705,-0.01037167,-0.02812958,0.00002257,-0.16410355
 ,-0.08593510,0.00006517,0.70466539,-0.03840471,0.02805239,-0.00002777,
 -0.04093590,-0.20208084,0.00013588,-0.07221105,0.67391692,0.00001585,-
 0.00003273,0.00615990,0.00003290,0.00013937,-0.07525024,0.00013400,-0.
 00047764,0.11373097,-0.03522492,0.03181248,-0.00004747,0.06583101,0.02
 679179,0.00000419,-0.18869079,0.08975254,-0.00009060,0.69719280,0.0075
 4859,-0.01458960,0.00001907,-0.01290810,-0.04333235,0.00000816,0.15173
 965,-0.32611041,0.00025614,-0.00126081,0.72215204,-0.00001334,0.000017
 94,-0.00222828,0.00001999,0.00004186,-0.00057212,-0.00014692,0.0002485
 9,-0.05719447,0.00015345,-0.00045272,0.13937425,0.04738577,-0.02331991
 ,0.00004153,-0.04900799,-0.03301949,0.00000236,-0.03111216,0.06872311,
 -0.00006895,-0.34573421,-0.02566807,-0.00005294,0.67702321,0.02338982,
 -0.05733218,0.00005567,-0.03301824,-0.01087097,0.00000130,0.02201238,0
 .02116562,-0.00001050,0.03664061,-0.10916984,0.00004764,-0.03445348,0.
 71679109,0.00000592,0.00003503,0.01134955,0.00000438,-0.00000122,-0.00
 681705,-0.00003153,0.00000646,0.01134969,-0.00010560,0.00003412,-0.060
 69102,0.00021643,-0.00043030,0.10462836,-0.18716600,0.15086516,-0.0001
 7014,-0.01001711,0.03089425,-0.00000917,-0.00270414,-0.01123203,0.0000
 0800,-0.03410960,-0.02086192,-0.00000376,-0.16357825,-0.13085253,0.000
 03900,0.71481989,0.08887908,-0.32765653,0.00020651,0.07059389,0.032517
 54,-0.00000680,0.01303184,-0.04711044,0.00005201,-0.07075074,0.0187966
 4,-0.00003324,-0.06854370,-0.29130651,0.00012680,-0.01146129,0.7045252
 4,-0.00013295,0.00024685,-0.05719312,-0.00004886,-0.00000020,-0.000571
 90,-0.00000932,0.00002368,-0.00222826,0.00003780,-0.00001248,0.0086837
 3,-0.00000276,0.00009242,-0.06069222,0.00026760,-0.00038078,0.13937355
 ,-0.12443864,-0.12344021,0.00000387,-0.00706280,-0.03178654,0.00001181
 ,-0.00604257,0.00127145,-0.00000798,-0.00109271,0.00118561,-0.00000043
 ,-0.00015806,0.00263089,-0.00000739,0.00926590,0.01513379,-0.00000326,
 0.12463148,-0.12333289,-0.26265937,0.00005069,0.00442762,-0.00206693,0
 .00001123,-0.00070795,0.00088467,-0.00000112,0.00037035,0.00080949,0.0
 0000028,0.00445456,-0.00171685,0.00000522,-0.01663151,-0.01696778,0.00
 000224,0.13296244,0.27954213,0.00001845,0.00005513,-0.03153065,-0.0000
 1584,-0.00002326,0.00635916,-0.00000748,0.00000365,0.00426188,0.000000
 54,0.00000154,-0.00016569,-0.00000597,0.00000457,0.00694658,0.00001181
 ,0.00002312,0.00132091,-0.00000607,-0.00006342,0.02268687,-0.00060369,
 -0.00384874,0.00000539,-0.01516370,0.00910645,-0.00001450,-0.33495957,
 -0.00176453,-0.00002584,-0.01105631,-0.00489598,0.00000102,0.00174137,
 0.00335769,-0.00000078,0.00100757,-0.00084257,-0.00000006,-0.00102338,
 -0.00016762,-0.00000039,0.35596244,-0.00186958,-0.00455412,0.00000686,
 -0.02710746,0.00603544,-0.00000268,-0.00187256,-0.05213822,0.00002336,
 0.02686963,0.00335345,0.00000180,0.00153403,-0.00361636,0.00000954,-0.
 00002732,-0.00129087,0.00000057,-0.00156013,-0.00002564,-0.00000206,-0
 .00062357,0.04821087,0.00000102,0.00000890,0.00426222,0.00003074,0.000
 00123,0.00635893,-0.00003648,0.00001293,-0.03153018,-0.00002685,0.0000
 0154,0.00132074,-0.00000052,0.00000790,0.00694632,-0.00000159,0.000000
 39,-0.00016572,0.00000205,-0.00000070,-0.00105323,0.00003588,-0.000027
 81,0.02268666,0.00034340,0.00102216,-0.00000022,-0.00123900,0.00245118
 ,-0.00000334,0.01000252,0.01362871,-0.00001297,-0.12764342,-0.11919801
 ,0.00007079,-0.00819708,-0.02861966,0.00001859,-0.00604090,0.00162277,
 -0.00000360,0.00004998,-0.00012443,0.00000025,0.00100446,-0.00053640,0
 .00000171,0.13095247,0.00063853,0.00048383,0.00000008,0.00497784,0.000
 54209,0.00000416,-0.01808738,-0.01923252,0.00002025,-0.11953867,-0.255
 83328,0.00013341,0.00274987,0.00163344,0.00000357,-0.00062128,0.001839
 17,0.00000342,-0.00008920,-0.00014626,-0.00000080,0.00083558,0.0012616
 1,-0.00000376,0.13025495,0.27164386,0.00000198,-0.00000423,-0.00064192
 ,-0.00001220,0.00000235,0.00888540,0.00001564,0.00003154,0.00534281,0.
 00007518,0.00012944,-0.03784789,-0.00001108,-0.00000464,0.00390101,-0.
 00000028,0.00000493,0.00546224,0.00000077,-0.00000022,-0.00079147,-0.0
 0000082,-0.00000612,-0.00525246,-0.00007210,-0.00015606,0.02559289,-0.
 00104531,-0.00183926,-0.00000155,-0.00070109,-0.00121344,0.00000108,-0
 .00455329,-0.00221741,-0.00000095,-0.00882680,0.02849939,-0.00002405,-
 0.12531588,0.12337635,-0.00012645,0.00979534,-0.01485648,0.00001479,0.
 00027826,-0.00056764,-0.00000008,-0.00074827,0.00122706,-0.00000161,0.
 00126594,-0.00072265,0.00000197,0.12858549,-0.00424332,-0.00221084,0.0
 0000313,-0.00121343,0.00070041,-0.00000185,0.00018664,0.00129743,0.000
 00308,-0.00410211,0.00191666,-0.00000350,0.12337618,-0.26781136,0.0002
 2289,0.01774514,-0.01670578,0.00001818,0.00063427,-0.00112906,0.000002
 00,0.00002516,-0.00010255,0.00000114,0.00080519,0.00081323,-0.00000338
 ,-0.13329786,0.28254069,0.00000173,0.00000176,0.00518988,0.00000123,-0
 .00000188,-0.00098965,-0.00000164,-0.00000029,0.00519014,-0.00000186,0
 .00000659,-0.00119837,-0.00012954,0.00022820,-0.02069789,-0.00000674,0
 .00000693,-0.00119831,-0.00000149,0.00000157,0.00125816,-0.00000048,0.
 00000203,0.00125817,0.00000075,-0.00000450,-0.00378425,0.00013533,-0.0
 0023793,0.01915438,-0.01385171,-0.00431145,-0.00000960,0.00331420,0.00
 234830,-0.00000144,0.00116784,0.00016238,-0.00000015,0.00030200,-0.004
 28440,-0.00000055,-0.01202865,0.00496259,-0.00001154,-0.32716319,-0.00
 431321,-0.00012892,0.00132682,0.00064942,0.00000188,-0.00018970,0.0000
 4919,0.00000052,-0.00098857,-0.00017586,0.00000023,0.00096220,-0.00054
 721,0.00000321,0.34927642,0.02740467,0.00462212,0.00001937,-0.00017848
 ,-0.00401064,0.00000532,0.00054607,-0.00034061,0.00000020,-0.00204029,
 -0.00450390,0.00000546,-0.02640696,0.00546487,-0.00001232,-0.00397226,
 -0.05631382,0.00000637,-0.00072275,0.00093921,-0.00000353,0.00001400,0
 .00009342,-0.00000066,-0.00138416,-0.00008766,0.00000029,0.00098056,0.
 00111696,-0.00000320,0.00417005,0.05331985,-0.00003436,0.00000255,0.00
 534294,0.00000450,0.00001189,0.00888574,0.00000244,-0.00000409,-0.0006
 4193,-0.00000393,0.00000384,0.00546199,0.00001264,0.00000723,0.0039008
 9,-0.00012878,0.00000035,-0.03784773,0.00000522,-0.00000260,-0.0052526
 8,-0.00000023,-0.00000084,-0.00079152,-0.00000015,0.,0.00039608,0.0000
 0149,-0.00000358,-0.00378402,0.00014674,-0.00001705,0.02559274,-0.0465
 6167,0.06173786,-0.00002989,-0.21974477,0.22021237,-0.00003841,0.02670
 198,-0.00677257,0.00001670,-0.01094705,0.00010405,-0.00000326,0.008981
 92,0.01057359,-0.00000104,-0.00410952,-0.01849340,0.00000954,0.0042657
 3,-0.00133235,0.00000290,0.00402879,0.00391711,-0.00000487,0.00049022,
 -0.00022174,0.00000072,0.00030341,0.00063135,-0.00000051,-0.00212767,0
 .00158956,-0.00000557,0.23871863,0.03553776,-0.00504200,-0.00000205,0.
 22021258,-0.47410223,0.00006763,0.01942705,-0.07830399,0.00002758,-0.0
 1454478,0.00651109,-0.00000753,0.01057386,-0.00323097,0.00000021,-0.00
 384442,-0.00032686,-0.00000028,0.00378038,0.00253639,0.00000305,-0.001
 19587,0.00277296,-0.00000108,0.00007769,-0.00291751,0.00000609,0.00063
 138,-0.00042579,0.00000074,0.00129020,-0.00029980,0.00000229,-0.271945
 84,0.55282871,-0.00003370,0.00002561,0.02080973,-0.00001519,0.00002693
 ,-0.07615300,-0.00000645,0.00004706,0.02080969,0.00000517,0.00000475,0
 .00505712,-0.00000119,0.00000051,-0.00012421,-0.00000596,-0.00000022,0
 .00505683,0.00000287,-0.00000317,-0.00403983,0.00000082,-0.00000465,-0
 .00403992,0.00000029,0.00000023,-0.00126244,0.00000004,-0.00000017,-0.
 00039824,-0.00000037,-0.00000025,-0.00126249,0.00005368,-0.00009665,0.
 03554677\\0.00001321,0.00007164,-0.00007492,0.00010154,-0.00016488,0.0
 0025198,-0.00006909,0.00001489,-0.00007292,0.00004942,-0.00003963,-0.0
 0001476,-0.00000054,0.00000877,0.00000476,0.00000897,-0.00006997,-0.00
 001083,-0.00002565,-0.00002292,0.00000170,0.00003292,0.00001261,0.0000
 0207,-0.00000078,0.00000072,0.00000787,0.00000457,-0.00000915,-0.00000
 172,-0.00000017,0.00000209,0.00000718,-0.00011438,0.00019583,-0.000100
 41\\\@


 SCIENCE IS A VERY HUMAN FORM OF KNOWLEDGE.
 WE ARE ALWAYS AT THE BRINK OF THE KNOWN,
 WE ALWAYS FEEL FORWARD FOR WHAT IS HOPED.
 EVERY JUDGEMENT IN SCIENCE STANDS ON THE EDGE OF ERROR, AND IS PERSONAL.
 SCIENCE IS A TRIBUTE TO WHAT WE CAN KNOW ALTHOUGH WE ARE FALLIBLE.

                     -- J. BRONOWSKI
 Job cpu time:       0 days  0 hours  9 minutes 44.7 seconds.
 Elapsed time:       0 days  0 hours  0 minutes  9.4 seconds.
 File lengths (MBytes):  RWF=     94 Int=      0 D2E=      0 Chk=      3 Scr=      2
 Normal termination of Gaussian 16 at Wed Jan 14 11:05:50 2026.
