 Entering Gaussian System, Link 0=/project/xlzhang/shared/bin/g16/g16
 Input=/users/s1155246976/scratch/phenol_opt_wat_smd_water/phenol_opt_wat_smd_water.com
 Output=/users/s1155246976/scratch/phenol_opt_wat_smd_water/phenol_opt_wat_smd_water.log
 Initial command:
 /project/xlzhang/shared/bin/g16/l1.exe "/ss02/scratch/s1/xlzhang/jingyi/phenol_opt_wat_smd_water/Gau-1386921.inp" -scrdir="/ss02/scratch/s1/xlzhang/jingyi/phenol_opt_wat_smd_water/"
 Entering Link 1 = /project/xlzhang/shared/bin/g16/l1.exe PID=   1386922.
  
 Copyright (c) 1988-2017, Gaussian, Inc.  All Rights Reserved.
  
 This is part of the Gaussian(R) 16 program.  It is based on
 the Gaussian(R) 09 system (copyright 2009, Gaussian, Inc.),
 the Gaussian(R) 03 system (copyright 2003, Gaussian, Inc.),
 the Gaussian(R) 98 system (copyright 1998, Gaussian, Inc.),
 the Gaussian(R) 94 system (copyright 1995, Gaussian, Inc.),
 the Gaussian 92(TM) system (copyright 1992, Gaussian, Inc.),
 the Gaussian 90(TM) system (copyright 1990, Gaussian, Inc.),
 the Gaussian 88(TM) system (copyright 1988, Gaussian, Inc.),
 the Gaussian 86(TM) system (copyright 1986, Carnegie Mellon
 University), and the Gaussian 82(TM) system (copyright 1983,
 Carnegie Mellon University). Gaussian is a federally registered
 trademark of Gaussian, Inc.
  
 This software contains proprietary and confidential information,
 including trade secrets, belonging to Gaussian, Inc.
  
 This software is provided under written license and may be
 used, copied, transmitted, or stored only in accord with that
 written license.
  
 The following legend is applicable only to US Government
 contracts under FAR:
  
                    RESTRICTED RIGHTS LEGEND
  
 Use, reproduction and disclosure by the US Government is
 subject to restrictions as set forth in subparagraphs (a)
 and (c) of the Commercial Computer Software - Restricted
 Rights clause in FAR 52.227-19.
  
 Gaussian, Inc.
 340 Quinnipiac St., Bldg. 40, Wallingford CT 06492
  
  
 ---------------------------------------------------------------
 Warning -- This program may not be used in any manner that
 competes with the business of Gaussian, Inc. or will provide
 assistance to any competitor of Gaussian, Inc.  The licensee
 of this program is prohibited from giving any competitor of
 Gaussian, Inc. access to this program.  By using this program,
 the user acknowledges that Gaussian, Inc. is engaged in the
 business of creating and licensing software in the field of
 computational chemistry and represents and warrants to the
 licensee that it is not a competitor of Gaussian, Inc. and that
 it will not use this program in any manner prohibited above.
 ---------------------------------------------------------------
  

 Cite this work as:
 Gaussian 16, Revision B.01,
 M. J. Frisch, G. W. Trucks, H. B. Schlegel, G. E. Scuseria, 
 M. A. Robb, J. R. Cheeseman, G. Scalmani, V. Barone, 
 G. A. Petersson, H. Nakatsuji, X. Li, M. Caricato, A. V. Marenich, 
 J. Bloino, B. G. Janesko, R. Gomperts, B. Mennucci, H. P. Hratchian, 
 J. V. Ortiz, A. F. Izmaylov, J. L. Sonnenberg, D. Williams-Young, 
 F. Ding, F. Lipparini, F. Egidi, J. Goings, B. Peng, A. Petrone, 
 T. Henderson, D. Ranasinghe, V. G. Zakrzewski, J. Gao, N. Rega, 
 G. Zheng, W. Liang, M. Hada, M. Ehara, K. Toyota, R. Fukuda, 
 J. Hasegawa, M. Ishida, T. Nakajima, Y. Honda, O. Kitao, H. Nakai, 
 T. Vreven, K. Throssell, J. A. Montgomery, Jr., J. E. Peralta, 
 F. Ogliaro, M. J. Bearpark, J. J. Heyd, E. N. Brothers, K. N. Kudin, 
 V. N. Staroverov, T. A. Keith, R. Kobayashi, J. Normand, 
 K. Raghavachari, A. P. Rendell, J. C. Burant, S. S. Iyengar, 
 J. Tomasi, M. Cossi, J. M. Millam, M. Klene, C. Adamo, R. Cammi, 
 J. W. Ochterski, R. L. Martin, K. Morokuma, O. Farkas, 
 J. B. Foresman, and D. J. Fox, Gaussian, Inc., Wallingford CT, 2016.
 
 ******************************************
 Gaussian 16:  ES64L-G16RevB.01 20-Dec-2017
                19-Jan-2026 
 ******************************************
 %chk=phenol_opt_wat_smd_water.chk
 %nprocshared=64
 Will use up to   64 processors via shared memory.
 %mem=180GB
 ----------------------------------------
 # mn15 def2qzvp scrf=(smd,solvent=water)
 ----------------------------------------
 1/38=1,172=1/1;
 2/12=2,17=6,18=5,40=1/2;
 3/5=45,7=101,11=2,25=1,30=1,70=32201,72=1,74=-73/1,2,3;
 4//1;
 5/5=2,38=5,53=1/2;
 6/7=2,8=2,9=2,10=2,28=1/1;
 99/5=1,9=1/99;
 ----------------------------------
 Gaussian job with default settings
 ----------------------------------
 Symbolic Z-matrix:
 Charge =  0 Multiplicity = 1
 C                     0.21656  -1.22602   0.00001 
 C                     0.94711  -0.03152   0.00005 
 C                     0.27015   1.19394   0.00001 
 C                    -1.12519   1.22208  -0.00001 
 C                    -1.85762   0.03443   0. 
 C                    -1.17597  -1.18624  -0.00002 
 H                     0.76273  -2.17094  0. 
 H                     0.84392   2.12619   0. 
 H                    -1.64114   2.18503  -0.00002 
 H                    -2.94881   0.05865  -0.00001 
 H                    -1.73716  -2.12364  -0.00003 
 O                     2.29855  -0.11142  -0.00001 
 H                     2.68181   0.77607  -0.00016 
 
                          Input orientation:                          
 ---------------------------------------------------------------------
 Center     Atomic      Atomic             Coordinates (Angstroms)
 Number     Number       Type             X           Y           Z
 ---------------------------------------------------------------------
      1          6           0        0.216559   -1.226022    0.000008
      2          6           0        0.947111   -0.031524    0.000050
      3          6           0        0.270145    1.193941    0.000009
      4          6           0       -1.125192    1.222077   -0.000005
      5          6           0       -1.857615    0.034430    0.000003
      6          6           0       -1.175968   -1.186241   -0.000018
      7          1           0        0.762727   -2.170944   -0.000004
      8          1           0        0.843923    2.126190    0.000000
      9          1           0       -1.641142    2.185029   -0.000023
     10          1           0       -2.948809    0.058646   -0.000009
     11          1           0       -1.737156   -2.123641   -0.000029
     12          8           0        2.298550   -0.111415   -0.000007
     13          1           0        2.681812    0.776067   -0.000156
 ---------------------------------------------------------------------
                    Distance matrix (angstroms):
                    1          2          3          4          5
     1  C    0.000000
     2  C    1.400190   0.000000
     3  C    2.420556   1.400017   0.000000
     4  C    2.791681   2.421973   1.395621   0.000000
     5  C    2.427125   2.805501   2.423186   1.395331   0.000000
     6  C    1.393095   2.416782   2.785051   2.408853   1.398099
     7  H    1.091411   2.147351   3.400748   3.882889   3.424889
     8  H    3.410412   2.160180   1.094673   2.166757   3.416690
     9  H    3.884111   3.407662   2.152969   1.092466   2.161466
    10  H    3.416127   3.896963   3.413292   2.163134   1.091463
    11  H    2.150052   3.403269   3.877578   3.401225   2.161430
    12  O    2.361575   1.353798   2.412132   3.674263   4.158723
    13  H    3.175820   1.913476   2.447602   3.833041   4.599611
                    6          7          8          9         10
     6  C    0.000000
     7  H    2.174437   0.000000
     8  H    3.879711   4.297901   0.000000
     9  H    3.403211   4.975247   2.485761   0.000000
    10  H    2.166266   4.329731   4.319671   2.496297   0.000000
    11  H    1.092543   2.500330   4.972226   4.309740   2.496093
    12  O    3.636967   2.569127   2.668860   4.560135   5.250114
    13  H    4.328177   3.516783   2.280497   4.546769   5.676142
                   11         12         13
    11  H    0.000000
    12  O    4.509543   0.000000
    13  H    5.285412   0.966703   0.000000
 Stoichiometry    C6H6O
 Framework group  C1[X(C6H6O)]
 Deg. of freedom    33
 Full point group                 C1      NOp   1
 Largest Abelian subgroup         C1      NOp   1
 Largest concise Abelian subgroup C1      NOp   1
                         Standard orientation:                         
 ---------------------------------------------------------------------
 Center     Atomic      Atomic             Coordinates (Angstroms)
 Number     Number       Type             X           Y           Z
 ---------------------------------------------------------------------
      1          6           0       -0.216559   -1.226022   -0.000008
      2          6           0       -0.947111   -0.031524   -0.000050
      3          6           0       -0.270145    1.193941   -0.000009
      4          6           0        1.125192    1.222077    0.000005
      5          6           0        1.857615    0.034430   -0.000003
      6          6           0        1.175968   -1.186241    0.000018
      7          1           0       -0.762727   -2.170944    0.000004
      8          1           0       -0.843923    2.126190    0.000000
      9          1           0        1.641142    2.185029    0.000023
     10          1           0        2.948809    0.058646    0.000009
     11          1           0        1.737156   -2.123641    0.000029
     12          8           0       -2.298550   -0.111415    0.000007
     13          1           0       -2.681812    0.776067    0.000156
 ---------------------------------------------------------------------
 Rotational constants (GHZ):           5.6531106           2.6188510           1.7897393
 Standard basis: def2QZVP (5D, 7F)
 There are   714 symmetry adapted cartesian basis functions of A   symmetry.
 There are   579 symmetry adapted basis functions of A   symmetry.
   579 basis functions,   872 primitive gaussians,   714 cartesian basis functions
    25 alpha electrons       25 beta electrons
       nuclear repulsion energy       270.9282531625 Hartrees.
 NAtoms=   13 NActive=   13 NUniq=   13 SFac= 1.00D+00 NAtFMM=   60 NAOKFM=F Big=F
 Integral buffers will be    131072 words long.
 Raffenetti 2 integral format.
 Two-electron integral symmetry is turned on.
 ------------------------------------------------------------------------------
 Polarizable Continuum Model (PCM)
 =================================
 Model                : PCM.
 Atomic radii         : SMD-Coulomb.
 Polarization charges : Total charges.
 Charge compensation  : None.
 Solution method      : On-the-fly selection.
 Cavity type          : VdW (van der Waals Surface) (Alpha=1.000).
 Cavity algorithm     : GePol (No added spheres)
                        Default sphere list used, NSphG=   13.
                        Lebedev-Laikov grids with approx.  5.0 points / Ang**2.
                        Smoothing algorithm: York/Karplus (Gamma=1.0000).
                        Polarization charges: spherical gaussians, with
                                              point-specific exponents (IZeta= 3).
                        Self-potential: point-specific (ISelfS= 7).
                        Self-field    : sphere-specific E.n sum rule (ISelfD= 2).
 Solvent              : Water, Eps=  78.355300 Eps(inf)=   1.777849
 ------------------------------------------------------------------------------
 Spheres list:
 ISph  on   Nord     Re0    Alpha      Xe            Ye            Ze
    1   C      1    1.8500  1.000     -0.216559     -1.226022     -0.000008
    2   C      2    1.8500  1.000     -0.947111     -0.031524     -0.000050
    3   C      3    1.8500  1.000     -0.270145      1.193941     -0.000009
    4   C      4    1.8500  1.000      1.125192      1.222077      0.000005
    5   C      5    1.8500  1.000      1.857615      0.034430     -0.000003
    6   C      6    1.8500  1.000      1.175968     -1.186241      0.000018
    7   H      7    1.2000  1.000     -0.762727     -2.170944      0.000004
    8   H      8    1.2000  1.000     -0.843923      2.126190      0.000000
    9   H      9    1.2000  1.000      1.641142      2.185029      0.000023
   10   H     10    1.2000  1.000      2.948809      0.058646      0.000009
   11   H     11    1.2000  1.000      1.737156     -2.123641      0.000029
   12   O     12    1.5200  1.000     -2.298550     -0.111415      0.000007
   13   H     13    1.2000  1.000     -2.681812      0.776067      0.000156
 ------------------------------------------------------------------------------
 ------------------------------------------------------------------------------
 Atomic radii for non-electrostatic terms: SMD-CDS.
 ------------------------------------------------------------------------------
 Nuclear repulsion after PCM non-electrostatic terms =      270.9336684768 Hartrees.
 One-electron integrals computed using PRISM.
   1 Symmetry operations used in ECPInt.
 ECPInt:  NShTT=   16110 NPrTT=   39930 LenC2=   15483 LenP2D=   31541.
 LDataN:  DoStor=T MaxTD1= 8 Len=  415
 NBasis=   579 RedAO= T EigKep=  6.90D-06  NBF=   579
 NBsUse=   579 1.00D-06 EigRej= -1.00D+00 NBFU=   579
 ExpMin= 7.60D-02 ExpMax= 1.17D+05 ExpMxC= 1.13D+03 IAcc=3 IRadAn=         5 AccDes= 0.00D+00
 Harris functional with IExCor= 1009 and IRadAn=       5 diagonalized for initial guess.
 HarFok:  IExCor= 1009 AccDes= 0.00D+00 IRadAn=         5 IDoV= 1 UseB2=F ITyADJ=14
 ICtDFT=  3500011 ScaDFX=  1.000000  1.000000  1.000000  1.000000
 FoFCou: FMM=F IPFlag=           0 FMFlag=      100000 FMFlg1=           0
         NFxFlg=           0 DoJE=T BraDBF=F KetDBF=T FulRan=T
         wScrn=  0.000000 ICntrl=       500 IOpCl=  0 I1Cent=   200000004 NGrid=           0
         NMat0=    1 NMatS0=      1 NMatT0=    0 NMatD0=    1 NMtDS0=    0 NMtDT0=    0
 Petite list used in FoFCou.
 Requested convergence on RMS density matrix=1.00D-08 within 128 cycles.
 Requested convergence on MAX density matrix=1.00D-06.
 Requested convergence on             energy=1.00D-06.
 No special actions if energy rises.
 Inv3:  Mode=1 IEnd=     3351747.
 Iteration    1 A*A^-1 deviation from unit magnitude is 3.77D-15 for   1054.
 Iteration    1 A*A^-1 deviation from orthogonality  is 2.25D-15 for   1038    275.
 Iteration    1 A^-1*A deviation from unit magnitude is 4.11D-15 for   1044.
 Iteration    1 A^-1*A deviation from orthogonality  is 1.41D-13 for    481    381.
 EnCoef did     1 forward-backward iterations
 Error on total polarization charges =  0.04588
 SCF Done:  E(RMN15) =  -307.409280230     A.U. after   12 cycles
            NFock= 12  Conv=0.95D-08     -V/T= 2.0053
 SMD-CDS (non-electrostatic) energy       (kcal/mol) =       3.40
 (included in total energy above)

 **********************************************************************

            Population analysis using the SCF Density.

 **********************************************************************

 Orbital symmetries:
       Occupied  (A) (A) (A) (A) (A) (A) (A) (A) (A) (A) (A) (A)
                 (A) (A) (A) (A) (A) (A) (A) (A) (A) (A) (A) (A)
                 (A)
       Virtual   (A) (A) (A) (A) (A) (A) (A) (A) (A) (A) (A) (A)
                 (A) (A) (A) (A) (A) (A) (A) (A) (A) (A) (A) (A)
                 (A) (A) (A) (A) (A) (A) (A) (A) (A) (A) (A) (A)
                 (A) (A) (A) (A) (A) (A) (A) (A) (A) (A) (A) (A)
                 (A) (A) (A) (A) (A) (A) (A) (A) (A) (A) (A) (A)
                 (A) (A) (A) (A) (A) (A) (A) (A) (A) (A) (A) (A)
                 (A) (A) (A) (A) (A) (A) (A) (A) (A) (A) (A) (A)
                 (A) (A) (A) (A) (A) (A) (A) (A) (A) (A) (A) (A)
                 (A) (A) (A) (A) (A) (A) (A) (A) (A) (A) (A) (A)
                 (A) (A) (A) (A) (A) (A) (A) (A) (A) (A) (A) (A)
                 (A) (A) (A) (A) (A) (A) (A) (A) (A) (A) (A) (A)
                 (A) (A) (A) (A) (A) (A) (A) (A) (A) (A) (A) (A)
                 (A) (A) (A) (A) (A) (A) (A) (A) (A) (A) (A) (A)
                 (A) (A) (A) (A) (A) (A) (A) (A) (A) (A) (A) (A)
                 (A) (A) (A) (A) (A) (A) (A) (A) (A) (A) (A) (A)
                 (A) (A) (A) (A) (A) (A) (A) (A) (A) (A) (A) (A)
                 (A) (A) (A) (A) (A) (A) (A) (A) (A) (A) (A) (A)
                 (A) (A) (A) (A) (A) (A) (A) (A) (A) (A) (A) (A)
                 (A) (A) (A) (A) (A) (A) (A) (A) (A) (A) (A) (A)
                 (A) (A) (A) (A) (A) (A) (A) (A) (A) (A) (A) (A)
                 (A) (A) (A) (A) (A) (A) (A) (A) (A) (A) (A) (A)
                 (A) (A) (A) (A) (A) (A) (A) (A) (A) (A) (A) (A)
                 (A) (A) (A) (A) (A) (A) (A) (A) (A) (A) (A) (A)
                 (A) (A) (A) (A) (A) (A) (A) (A) (A) (A) (A) (A)
                 (A) (A) (A) (A) (A) (A) (A) (A) (A) (A) (A) (A)
                 (A) (A) (A) (A) (A) (A) (A) (A) (A) (A) (A) (A)
                 (A) (A) (A) (A) (A) (A) (A) (A) (A) (A) (A) (A)
                 (A) (A) (A) (A) (A) (A) (A) (A) (A) (A) (A) (A)
                 (A) (A) (A) (A) (A) (A) (A) (A) (A) (A) (A) (A)
                 (A) (A) (A) (A) (A) (A) (A) (A) (A) (A) (A) (A)
                 (A) (A) (A) (A) (A) (A) (A) (A) (A) (A) (A) (A)
                 (A) (A) (A) (A) (A) (A) (A) (A) (A) (A) (A) (A)
                 (A) (A) (A) (A) (A) (A) (A) (A) (A) (A) (A) (A)
                 (A) (A) (A) (A) (A) (A) (A) (A) (A) (A) (A) (A)
                 (A) (A) (A) (A) (A) (A) (A) (A) (A) (A) (A) (A)
                 (A) (A) (A) (A) (A) (A) (A) (A) (A) (A) (A) (A)
                 (A) (A) (A) (A) (A) (A) (A) (A) (A) (A) (A) (A)
                 (A) (A) (A) (A) (A) (A) (A) (A) (A) (A) (A) (A)
                 (A) (A) (A) (A) (A) (A) (A) (A) (A) (A) (A) (A)
                 (A) (A) (A) (A) (A) (A) (A) (A) (A) (A) (A) (A)
                 (A) (A) (A) (A) (A) (A) (A) (A) (A) (A) (A) (A)
                 (A) (A) (A) (A) (A) (A) (A) (A) (A) (A) (A) (A)
                 (A) (A) (A) (A) (A) (A) (A) (A) (A) (A) (A) (A)
                 (A) (A) (A) (A) (A) (A) (A) (A) (A) (A) (A) (A)
                 (A) (A) (A) (A) (A) (A) (A) (A) (A) (A) (A) (A)
                 (A) (A) (A) (A) (A) (A) (A) (A) (A) (A) (A) (A)
                 (A) (A)
 The electronic state is 1-A.
 Alpha  occ. eigenvalues --  -18.91061 -10.16073 -10.09960 -10.09933 -10.09469
 Alpha  occ. eigenvalues --  -10.09281 -10.09025  -1.10645  -0.89628  -0.79056
 Alpha  occ. eigenvalues --   -0.77842  -0.66574  -0.64188  -0.58538  -0.53780
 Alpha  occ. eigenvalues --   -0.50856  -0.47295  -0.46867  -0.45774  -0.43529
 Alpha  occ. eigenvalues --   -0.39675  -0.38990  -0.37362  -0.29325  -0.26398
 Alpha virt. eigenvalues --    0.00857   0.02371   0.07863   0.09114   0.10722
 Alpha virt. eigenvalues --    0.12469   0.13247   0.14404   0.15666   0.17014
 Alpha virt. eigenvalues --    0.17717   0.19393   0.20158   0.21292   0.21620
 Alpha virt. eigenvalues --    0.21888   0.22218   0.24488   0.27930   0.28056
 Alpha virt. eigenvalues --    0.28093   0.29049   0.30729   0.32423   0.33270
 Alpha virt. eigenvalues --    0.34051   0.34221   0.34354   0.35640   0.36522
 Alpha virt. eigenvalues --    0.36841   0.37858   0.38872   0.40024   0.41701
 Alpha virt. eigenvalues --    0.44114   0.44983   0.45227   0.45294   0.47765
 Alpha virt. eigenvalues --    0.49139   0.50142   0.50794   0.50935   0.53647
 Alpha virt. eigenvalues --    0.54408   0.55664   0.57275   0.57303   0.60620
 Alpha virt. eigenvalues --    0.60949   0.61068   0.63404   0.64151   0.64345
 Alpha virt. eigenvalues --    0.70175   0.70892   0.71949   0.73020   0.74179
 Alpha virt. eigenvalues --    0.75354   0.75457   0.76693   0.78326   0.79070
 Alpha virt. eigenvalues --    0.79229   0.79935   0.80671   0.83218   0.83758
 Alpha virt. eigenvalues --    0.86888   0.87616   0.89366   0.89919   0.91614
 Alpha virt. eigenvalues --    0.92686   0.93875   0.94109   0.94477   0.94611
 Alpha virt. eigenvalues --    0.95719   0.97658   0.98963   1.02671   1.03898
 Alpha virt. eigenvalues --    1.04699   1.05557   1.06373   1.06553   1.08571
 Alpha virt. eigenvalues --    1.09480   1.10526   1.12161   1.13675   1.14201
 Alpha virt. eigenvalues --    1.17796   1.18143   1.19839   1.19845   1.22972
 Alpha virt. eigenvalues --    1.23733   1.24766   1.26535   1.28620   1.31292
 Alpha virt. eigenvalues --    1.33151   1.36668   1.37527   1.40636   1.45154
 Alpha virt. eigenvalues --    1.46501   1.47426   1.49802   1.51665   1.52801
 Alpha virt. eigenvalues --    1.54499   1.55310   1.57392   1.57617   1.58977
 Alpha virt. eigenvalues --    1.61507   1.63161   1.64144   1.64176   1.66547
 Alpha virt. eigenvalues --    1.70421   1.71946   1.74577   1.75804   1.76346
 Alpha virt. eigenvalues --    1.76577   1.77867   1.79655   1.82591   1.84061
 Alpha virt. eigenvalues --    1.85680   1.86315   1.87600   1.88848   1.93897
 Alpha virt. eigenvalues --    1.94684   1.95043   1.96446   1.97680   1.97701
 Alpha virt. eigenvalues --    1.98403   1.98914   1.99535   2.00904   2.01379
 Alpha virt. eigenvalues --    2.03270   2.04780   2.06016   2.08704   2.11678
 Alpha virt. eigenvalues --    2.13490   2.13831   2.14011   2.17960   2.18342
 Alpha virt. eigenvalues --    2.18620   2.20451   2.22262   2.24571   2.26333
 Alpha virt. eigenvalues --    2.27040   2.27141   2.27416   2.29073   2.29262
 Alpha virt. eigenvalues --    2.31603   2.32869   2.34079   2.35408   2.37506
 Alpha virt. eigenvalues --    2.38067   2.38569   2.41034   2.43965   2.44171
 Alpha virt. eigenvalues --    2.45095   2.45365   2.46329   2.48292   2.48858
 Alpha virt. eigenvalues --    2.50340   2.52653   2.52778   2.56426   2.56745
 Alpha virt. eigenvalues --    2.57405   2.59017   2.59760   2.61494   2.62487
 Alpha virt. eigenvalues --    2.63444   2.64183   2.66825   2.67176   2.68264
 Alpha virt. eigenvalues --    2.69590   2.69988   2.71807   2.74465   2.75315
 Alpha virt. eigenvalues --    2.75677   2.77080   2.79359   2.81171   2.82547
 Alpha virt. eigenvalues --    2.82968   2.83528   2.86194   2.87339   2.89032
 Alpha virt. eigenvalues --    2.93639   2.94876   2.96848   2.97831   3.02198
 Alpha virt. eigenvalues --    3.03752   3.05753   3.06714   3.10907   3.11698
 Alpha virt. eigenvalues --    3.14216   3.16039   3.17370   3.17911   3.25639
 Alpha virt. eigenvalues --    3.25799   3.31582   3.31852   3.34091   3.35147
 Alpha virt. eigenvalues --    3.38009   3.38849   3.40445   3.42399   3.42950
 Alpha virt. eigenvalues --    3.45617   3.45819   3.47301   3.48362   3.50938
 Alpha virt. eigenvalues --    3.51549   3.55651   3.58511   3.58849   3.60391
 Alpha virt. eigenvalues --    3.70847   3.72521   3.74806   3.78451   3.82091
 Alpha virt. eigenvalues --    3.82245   3.84890   3.93673   3.94361   3.99073
 Alpha virt. eigenvalues --    3.99771   4.02283   4.04267   4.05581   4.06151
 Alpha virt. eigenvalues --    4.12897   4.15708   4.18728   4.19419   4.24559
 Alpha virt. eigenvalues --    4.31259   4.34887   4.37838   4.38727   4.38741
 Alpha virt. eigenvalues --    4.46318   4.48019   4.49836   4.53447   4.56747
 Alpha virt. eigenvalues --    4.59287   4.62142   4.67816   4.70147   4.72424
 Alpha virt. eigenvalues --    4.72899   4.76552   4.82738   4.84997   4.85807
 Alpha virt. eigenvalues --    4.85963   4.87662   4.89997   4.90586   4.91585
 Alpha virt. eigenvalues --    4.94883   4.99116   5.02845   5.04765   5.04940
 Alpha virt. eigenvalues --    5.06764   5.08245   5.09138   5.14398   5.17841
 Alpha virt. eigenvalues --    5.18240   5.19101   5.19527   5.24131   5.28909
 Alpha virt. eigenvalues --    5.29701   5.33722   5.33837   5.34795   5.35121
 Alpha virt. eigenvalues --    5.38268   5.43842   5.46806   5.47789   5.48626
 Alpha virt. eigenvalues --    5.50122   5.51904   5.53277   5.57245   5.60255
 Alpha virt. eigenvalues --    5.61234   5.65799   5.66349   5.67172   5.67895
 Alpha virt. eigenvalues --    5.68188   5.71353   5.72272   5.73042   5.76229
 Alpha virt. eigenvalues --    5.76398   5.79128   5.79401   5.83449   5.84639
 Alpha virt. eigenvalues --    5.85446   5.87112   5.88714   5.88819   5.89823
 Alpha virt. eigenvalues --    5.90753   5.91687   5.93113   5.93987   5.94848
 Alpha virt. eigenvalues --    5.98217   5.99361   6.00241   6.01367   6.04097
 Alpha virt. eigenvalues --    6.04412   6.06155   6.06366   6.06608   6.09332
 Alpha virt. eigenvalues --    6.09857   6.10272   6.11772   6.12777   6.13928
 Alpha virt. eigenvalues --    6.16562   6.17934   6.20560   6.23727   6.24807
 Alpha virt. eigenvalues --    6.28007   6.29186   6.32858   6.34498   6.35310
 Alpha virt. eigenvalues --    6.36934   6.37081   6.38311   6.41025   6.41822
 Alpha virt. eigenvalues --    6.43056   6.45098   6.46274   6.48177   6.48239
 Alpha virt. eigenvalues --    6.48593   6.53736   6.58000   6.59329   6.62140
 Alpha virt. eigenvalues --    6.62934   6.66139   6.66667   6.68732   6.69800
 Alpha virt. eigenvalues --    6.73829   6.75998   6.78942   6.79853   6.85652
 Alpha virt. eigenvalues --    6.89609   6.91080   6.92049   6.93563   6.99471
 Alpha virt. eigenvalues --    7.04064   7.04247   7.07282   7.09075   7.11219
 Alpha virt. eigenvalues --    7.13289   7.13828   7.15798   7.16726   7.18531
 Alpha virt. eigenvalues --    7.21463   7.21939   7.22529   7.28712   7.29017
 Alpha virt. eigenvalues --    7.33484   7.35972   7.38180   7.40231   7.41233
 Alpha virt. eigenvalues --    7.45798   7.50914   7.53318   7.55598   7.56138
 Alpha virt. eigenvalues --    7.58353   7.59354   7.63363   7.63457   7.65371
 Alpha virt. eigenvalues --    7.66738   7.68154   7.70966   7.75865   7.78820
 Alpha virt. eigenvalues --    7.81001   7.85497   7.86117   7.86866   7.89655
 Alpha virt. eigenvalues --    7.91128   7.92177   7.92449   7.93394   7.94374
 Alpha virt. eigenvalues --    7.95739   7.96331   7.97954   7.99077   8.01569
 Alpha virt. eigenvalues --    8.03834   8.05424   8.08359   8.09280   8.11546
 Alpha virt. eigenvalues --    8.12618   8.13347   8.13793   8.16183   8.22210
 Alpha virt. eigenvalues --    8.24320   8.24871   8.25885   8.30842   8.31097
 Alpha virt. eigenvalues --    8.34149   8.35062   8.39053   8.42631   8.44342
 Alpha virt. eigenvalues --    8.44502   8.44962   8.50329   8.50736   8.59114
 Alpha virt. eigenvalues --    8.61478   8.63531   8.66700   8.70124   8.79538
 Alpha virt. eigenvalues --    8.92713   8.99535   9.09033   9.09329   9.15777
 Alpha virt. eigenvalues --    9.23928   9.26902   9.30157   9.32207   9.35204
 Alpha virt. eigenvalues --    9.36973   9.41556   9.42341   9.46702   9.47946
 Alpha virt. eigenvalues --    9.61159   9.63522   9.64547   9.64603   9.68540
 Alpha virt. eigenvalues --    9.69535   9.83757   9.84575   9.87084   9.92192
 Alpha virt. eigenvalues --   10.02183  10.06115  10.13889  10.19548  10.23780
 Alpha virt. eigenvalues --   10.24881  10.46140  10.52035  10.57439  10.98488
 Alpha virt. eigenvalues --   11.03000  11.18095  11.22393  11.33630  11.45486
 Alpha virt. eigenvalues --   11.53122  11.61241  11.68318  11.85994  11.96061
 Alpha virt. eigenvalues --   12.05800  12.10420  12.24899  12.31953  12.50736
 Alpha virt. eigenvalues --   12.80166  13.34312  13.63993  14.00084  15.99526
 Alpha virt. eigenvalues --   27.46280  27.95840  28.08275  28.41525  28.53858
 Alpha virt. eigenvalues --   28.84183  47.66090 136.15635 136.61658 136.74722
 Alpha virt. eigenvalues --  137.03668 137.16015 137.47601 236.61958
          Condensed to atoms (all electrons):
               1          2          3          4          5          6
     1  C    5.109348   0.448227  -0.061616  -0.041419  -0.065714   0.452319
     2  C    0.448227   4.832152   0.416296  -0.004176  -0.031288  -0.034588
     3  C   -0.061616   0.416296   5.234838   0.402069  -0.062500  -0.036543
     4  C   -0.041419  -0.004176   0.402069   5.147433   0.439317  -0.037354
     5  C   -0.065714  -0.031288  -0.062500   0.439317   5.164077   0.438576
     6  C    0.452319  -0.034588  -0.036543  -0.037354   0.438576   5.128605
     7  H    0.446198  -0.071440   0.009503  -0.005049   0.008296  -0.046915
     8  H    0.004152  -0.055987   0.444064  -0.049650   0.007537  -0.003138
     9  H   -0.001787   0.003785  -0.044999   0.436980  -0.051142   0.007366
    10  H    0.008049  -0.003088   0.008200  -0.054356   0.443749  -0.053661
    11  H   -0.049592   0.007234  -0.002974   0.007932  -0.052137   0.439640
    12  O   -0.074922   0.253384  -0.078566   0.005333   0.001468   0.005895
    13  H    0.004641  -0.029020  -0.009238   0.002978   0.000265  -0.001683
               7          8          9         10         11         12
     1  C    0.446198   0.004152  -0.001787   0.008049  -0.049592  -0.074922
     2  C   -0.071440  -0.055987   0.003785  -0.003088   0.007234   0.253384
     3  C    0.009503   0.444064  -0.044999   0.008200  -0.002974  -0.078566
     4  C   -0.005049  -0.049650   0.436980  -0.054356   0.007932   0.005333
     5  C    0.008296   0.007537  -0.051142   0.443749  -0.052137   0.001468
     6  C   -0.046915  -0.003138   0.007366  -0.053661   0.439640   0.005895
     7  H    0.464145   0.000188   0.000011   0.000180  -0.007212   0.006755
     8  H    0.000188   0.462019  -0.006028   0.000171  -0.000009  -0.001715
     9  H    0.000011  -0.006028   0.449718  -0.007080   0.000170  -0.000161
    10  H    0.000180   0.000171  -0.007080   0.446711  -0.006854   0.000035
    11  H   -0.007212  -0.000009   0.000170  -0.006854   0.448237  -0.000099
    12  O    0.006755  -0.001715  -0.000161   0.000035  -0.000099   8.145446
    13  H   -0.000767   0.002453  -0.000022  -0.000004   0.000014   0.274499
              13
     1  C    0.004641
     2  C   -0.029020
     3  C   -0.009238
     4  C    0.002978
     5  C    0.000265
     6  C   -0.001683
     7  H   -0.000767
     8  H    0.002453
     9  H   -0.000022
    10  H   -0.000004
    11  H    0.000014
    12  O    0.274499
    13  H    0.380402
 Mulliken charges:
               1
     1  C   -0.177886
     2  C    0.268508
     3  C   -0.218535
     4  C   -0.250036
     5  C   -0.240503
     6  C   -0.258518
     7  H    0.196105
     8  H    0.195943
     9  H    0.213191
    10  H    0.217948
    11  H    0.215651
    12  O   -0.537351
    13  H    0.375483
 Sum of Mulliken charges =  -0.00000
 Mulliken charges with hydrogens summed into heavy atoms:
               1
     1  C    0.018220
     2  C    0.268508
     3  C   -0.022592
     4  C   -0.036846
     5  C   -0.022555
     6  C   -0.042867
    12  O   -0.161868
 Electronic spatial extent (au):  <R**2>=            665.6842
 Charge=             -0.0000 electrons
 Dipole moment (field-independent basis, Debye):
    X=             -0.1403    Y=              1.9710    Z=              0.0003  Tot=              1.9760
 Quadrupole moment (field-independent basis, Debye-Ang):
   XX=            -36.7297   YY=            -34.5753   ZZ=            -45.6060
   XY=             -5.4946   XZ=             -0.0008   YZ=              0.0003
 Traceless Quadrupole moment (field-independent basis, Debye-Ang):
   XX=              2.2406   YY=              4.3950   ZZ=             -6.6357
   XY=             -5.4946   XZ=             -0.0008   YZ=              0.0003
 Octapole moment (field-independent basis, Debye-Ang**2):
  XXX=             -8.5796  YYY=              2.2546  ZZZ=              0.0004  XYY=             -5.1462
  XXY=             15.5666  XXZ=              0.0028  XZZ=             -6.2338  YZZ=              0.2751
  YYZ=              0.0007  XYZ=             -0.0009
 Hexadecapole moment (field-independent basis, Debye-Ang**3):
 XXXX=           -475.8596 YYYY=           -268.4584 ZZZZ=            -53.3043 XXXY=            -44.4975
 XXXZ=             -0.0077 YYYX=             -5.5336 YYYZ=              0.0004 ZZZX=             -0.0008
 ZZZY=              0.0002 XXYY=           -116.7014 XXZZ=           -106.1370 YYZZ=            -66.6855
 XXYZ=              0.0025 YYXZ=             -0.0005 ZZXY=             -0.9529
 N-N= 2.709336684768D+02 E-N=-1.258049370334D+03  KE= 3.057906485072D+02
 1\1\GINC-CHPC-CN077\SP\RMN15\def2QZVP\C6H6O1\S1155246976\19-Jan-2026\0
 \\# mn15 def2qzvp scrf=(smd,solvent=water)\\Gaussian job with default 
 settings\\0,1\C,0,0.216559,-1.226022,0.000008\C,0,0.947111,-0.031524,0
 .00005\C,0,0.270145,1.193941,0.000009\C,0,-1.125192,1.222077,-0.000005
 \C,0,-1.857615,0.03443,0.000003\C,0,-1.175968,-1.186241,-0.000018\H,0,
 0.762727,-2.170944,-0.000004\H,0,0.843923,2.12619,0.\H,0,-1.641142,2.1
 85029,-0.000023\H,0,-2.948809,0.058646,-0.000009\H,0,-1.737156,-2.1236
 41,-0.000029\O,0,2.29855,-0.111415,-0.000007\H,0,2.681812,0.776067,-0.
 000156\\Version=ES64L-G16RevB.01\State=1-A\HF=-307.4092802\RMSD=9.489e
 -09\Dipole=0.055183,0.7754476,-0.0001329\Quadrupole=1.6658465,3.267611
 1,-4.9334576,4.0851067,-0.0005829,-0.0002542\PG=C01 [X(C6H6O1)]\\@


 EVANS BOLDLY PUT 50 ATM. OF ETHYLENE IN A CELL WITH 25 ATM. OF OXYGEN.
 THE APPARATUS SUBSEQUENTLY BLEW UP, BUT LUCKILY NOT BEFORE HE
 OBTAINED THE SPECTRA SHOWN IN FIGURE 8.
 A.J.MERER AND R.S.MULLIKEN, CHEM.REV. 69, 645 (1969)
 Job cpu time:       0 days  1 hours 36 minutes 17.8 seconds.
 Elapsed time:       0 days  0 hours  1 minutes 32.2 seconds.
 File lengths (MBytes):  RWF=    211 Int=      0 D2E=      0 Chk=     21 Scr=      2
 Normal termination of Gaussian 16 at Mon Jan 19 15:35:43 2026.
