 Entering Gaussian System, Link 0=g16
 Initial command:
 /opt/packages/gaussian/g16RevC.01/g16/l1.exe "/jet/home/jliu40/programs/g16/scratch/Gau-19997.inp" -scrdir="/jet/home/jliu40/programs/g16/scratch/"
 Entering Link 1 = /opt/packages/gaussian/g16RevC.01/g16/l1.exe PID=     19998.
  
 Copyright (c) 1988-2019, Gaussian, Inc.  All Rights Reserved.
  
 This is part of the Gaussian(R) 16 program.  It is based on
 the Gaussian(R) 09 system (copyright 2009, Gaussian, Inc.),
 the Gaussian(R) 03 system (copyright 2003, Gaussian, Inc.),
 the Gaussian(R) 98 system (copyright 1998, Gaussian, Inc.),
 the Gaussian(R) 94 system (copyright 1995, Gaussian, Inc.),
 the Gaussian 92(TM) system (copyright 1992, Gaussian, Inc.),
 the Gaussian 90(TM) system (copyright 1990, Gaussian, Inc.),
 the Gaussian 88(TM) system (copyright 1988, Gaussian, Inc.),
 the Gaussian 86(TM) system (copyright 1986, Carnegie Mellon
 University), and the Gaussian 82(TM) system (copyright 1983,
 Carnegie Mellon University). Gaussian is a federally registered
 trademark of Gaussian, Inc.
  
 This software contains proprietary and confidential information,
 including trade secrets, belonging to Gaussian, Inc.
  
 This software is provided under written license and may be
 used, copied, transmitted, or stored only in accord with that
 written license.
  
 The following legend is applicable only to US Government
 contracts under FAR:
  
                    RESTRICTED RIGHTS LEGEND
  
 Use, reproduction and disclosure by the US Government is
 subject to restrictions as set forth in subparagraphs (a)
 and (c) of the Commercial Computer Software - Restricted
 Rights clause in FAR 52.227-19.
  
 Gaussian, Inc.
 340 Quinnipiac St., Bldg. 40, Wallingford CT 06492
  
  
 ---------------------------------------------------------------
 Warning -- This program may not be used in any manner that
 competes with the business of Gaussian, Inc. or will provide
 assistance to any competitor of Gaussian, Inc.  The licensee
 of this program is prohibited from giving any competitor of
 Gaussian, Inc. access to this program.  By using this program,
 the user acknowledges that Gaussian, Inc. is engaged in the
 business of creating and licensing software in the field of
 computational chemistry and represents and warrants to the
 licensee that it is not a competitor of Gaussian, Inc. and that
 it will not use this program in any manner prohibited above.
 ---------------------------------------------------------------
  

 Cite this work as:
 Gaussian 16, Revision C.01,
 M. J. Frisch, G. W. Trucks, H. B. Schlegel, G. E. Scuseria, 
 M. A. Robb, J. R. Cheeseman, G. Scalmani, V. Barone, 
 G. A. Petersson, H. Nakatsuji, X. Li, M. Caricato, A. V. Marenich, 
 J. Bloino, B. G. Janesko, R. Gomperts, B. Mennucci, H. P. Hratchian, 
 J. V. Ortiz, A. F. Izmaylov, J. L. Sonnenberg, D. Williams-Young, 
 F. Ding, F. Lipparini, F. Egidi, J. Goings, B. Peng, A. Petrone, 
 T. Henderson, D. Ranasinghe, V. G. Zakrzewski, J. Gao, N. Rega, 
 G. Zheng, W. Liang, M. Hada, M. Ehara, K. Toyota, R. Fukuda, 
 J. Hasegawa, M. Ishida, T. Nakajima, Y. Honda, O. Kitao, H. Nakai, 
 T. Vreven, K. Throssell, J. A. Montgomery, Jr., J. E. Peralta, 
 F. Ogliaro, M. J. Bearpark, J. J. Heyd, E. N. Brothers, K. N. Kudin, 
 V. N. Staroverov, T. A. Keith, R. Kobayashi, J. Normand, 
 K. Raghavachari, A. P. Rendell, J. C. Burant, S. S. Iyengar, 
 J. Tomasi, M. Cossi, J. M. Millam, M. Klene, C. Adamo, R. Cammi, 
 J. W. Ochterski, R. L. Martin, K. Morokuma, O. Farkas, 
 J. B. Foresman, and D. J. Fox, Gaussian, Inc., Wallingford CT, 2019.
 
 ******************************************
 Gaussian 16:  ES64L-G16RevC.01  3-Jul-2019
                13-Mar-2025 
 ******************************************
 %chk=qmmm_test3.chk
 ---------------------------------------
 # oniom(hf/6-31g:uff) geom=connectivity
 ---------------------------------------
 1/38=1,52=2,56=1,57=2,61=3,64=2,172=1/1;
 2/12=2,17=6,18=5,40=1/2;
 1/38=1,52=2,53=3172,61=3,64=2/20;
 3/5=30,11=9,25=1,30=1,41=10200000,43=2/1;
 4/20=10,24=3/2;
 1/52=2,53=2032,61=3/20;
 3/5=1,6=6,11=9,25=1,30=1/1,2,3;
 4//1;
 5/5=2,38=5/2;
 6/7=2,8=2,9=2,10=2,28=1/1;
 1/52=2,53=1022,61=3,64=2/20;
 3/5=30,11=9,25=1,30=1,41=10200000,43=2/1;
 4/20=10,24=3/2;
 1/52=2,53=3014,61=3,64=2/20;
 99/5=1,9=1/99;
 -------------------
 Title Card Required
 -------------------
 Symbolic Z-matrix:
 Charge =  0 Multiplicity = 1 for low   level calculation on real  system.
 Charge =  0 Multiplicity = 1 for high  level calculation on model system.
 Charge =  0 Multiplicity = 1 for low   level calculation on model system.
 O-O_3                0     3.76347  -1.28716   0.1499   H 
 H-H_                 0     4.68481  -1.33491   0.41531  H 
 H-H_                 0     3.4342   -0.39698   0.29401  H 
 C-C_R                0     2.47622  -4.51733   1.05259  H 
 O-O_R                0     3.6983   -4.54478   0.91357  H 
 O-O_R                0     1.86026  -3.31108   0.96922  H 
 H-H_                 0     2.49237  -2.63888   0.6971   H 
 C-C_3                0     1.48241  -5.66384   1.31612  L    H-H_     4     0.        0. 
 H-H_                 0     0.96776  -5.48514   2.23704  L 
 H-H_                 0     0.77423  -5.71308   0.51552  L 
 C-C_3                0     2.24854  -6.99669   1.40646  L 
 H-H_                 0     1.55845  -7.7928    1.59321  L 
 H-H_                 0     2.76023  -7.17718   0.48424  L 
 H-H_                 0     2.95927  -6.94615   2.20472  L 
 
 I=    1 IAn=  8 Valence= 3.
          JB=  1 J=    2 IAn=  1 IBT= 1 Dist= 9.60D-01
          JB=  2 J=    3 IAn=  1 IBT= 1 Dist= 9.60D-01
          JB=  3 J=    7 IAn=  1 IBT= 1 Dist= 1.93D+00
 I=    7 IAn=  1 Valence= 2.
          JB=  1 J=    1 IAn=  8 IBT= 1 Dist= 1.93D+00
          JB=  2 J=    6 IAn=  8 IBT= 1 Dist= 9.62D-01
 Include all MM classes

 MM sanity checks:
 All charges sum to:                0.00000000
 Charges of atoms sum to:           0.00000000
 Layer 1 (M) has      8 atoms and charge   0.00000000 sum=   0.00000000
 Layer 2 (R) adds     6 atoms and charge   0.00000000 sum=   0.00000000
 MMInit generated parameter data with length LenPar=        1945.
                          Input orientation:                          
 ---------------------------------------------------------------------
 Center     Atomic      Atomic             Coordinates (Angstroms)
 Number     Number       Type             X           Y           Z
 ---------------------------------------------------------------------
      1          8    10081003        3.763467   -1.287157    0.149902
      2          1    10011000        4.684813   -1.334911    0.415309
      3          1    10011000        3.434196   -0.396980    0.294006
      4          6    10061000        2.476223   -4.517333    1.052587
      5          8    10081000        3.698304   -4.544779    0.913565
      6          8    10081000        1.860255   -3.311081    0.969218
      7          1    10011000        2.492366   -2.638878    0.697103
      8          6    10061003        1.482409   -5.663844    1.316116
      9          1    10011000        0.967765   -5.485141    2.237043
     10          1    10011000        0.774232   -5.713081    0.515516
     11          6    10061003        2.248544   -6.996688    1.406464
     12          1    10011000        1.558452   -7.792804    1.593206
     13          1    10011000        2.760227   -7.177181    0.484237
     14          1    10011000        2.959268   -6.946146    2.204723
 ---------------------------------------------------------------------
                    Distance matrix (angstroms):
                    1          2          3          4          5
     1  O    0.000000
     2  H    0.960000   0.000000
     3  H    0.960000   1.567952   0.000000
     4  C    3.592475   3.925787   4.297728   0.000000
     5  O    3.346570   3.394807   4.202124   1.230269   0.000000
     6  O    2.896509   3.491446   3.380116   1.356986   2.214392
     7  H    1.934496   2.566430   2.464880   1.911864   2.265745
     8  C    5.071357   5.459533   5.709118   1.540000   2.514864
     9  H    5.458495   5.861704   5.978967   2.148263   3.176746
    10  H    5.353317   5.871206   5.948562   2.148263   3.173888
    11  C    6.039262   6.242877   6.797019   2.514810   2.890780
    12  H    7.019163   7.270898   7.739802   3.444311   3.948486
    13  H    5.984200   6.151496   6.816270   2.734680   2.827340
    14  H    6.073975   6.137220   6.838711   2.731278   2.824858
                    6          7          8          9         10
     6  O    0.000000
     7  H    0.962013   0.000000
     8  C    2.408027   3.248632   0.000000
     9  H    2.670291   3.577295   1.070000   0.000000
    10  H    2.674863   3.526427   1.070000   1.747303   0.000000
    11  C    3.731709   4.421895   1.540000   2.148263   2.148263
    12  H    4.535006   5.313958   2.148263   2.467538   2.470155
    13  H    3.998985   4.551182   2.148263   3.024608   2.467538
    14  H    3.993494   4.587317   2.148263   2.470155   3.024608
                   11         12         13         14
    11  C    0.000000
    12  H    1.070000   0.000000
    13  H    1.070000   1.747303   0.000000
    14  H    1.070000   1.747303   1.747303   0.000000
 Stoichiometry    C3H8O3
 Framework group  C1[X(C3H8O3)]
 Deg. of freedom    36
 Full point group                 C1      NOp   1
 Largest Abelian subgroup         C1      NOp   1
 Largest concise Abelian subgroup C1      NOp   1
                         Standard orientation:                         
 ---------------------------------------------------------------------
 Center     Atomic      Atomic             Coordinates (Angstroms)
 Number     Number       Type             X           Y           Z
 ---------------------------------------------------------------------
      1          8    10081003       -3.284251   -0.200556    0.129428
      2          1    10011000       -3.456879   -1.064807   -0.251189
      3          1    10011000       -3.991387    0.402548   -0.111037
      4          6    10061000        0.293414    0.076776   -0.041675
      5          8    10081000       -0.066929   -1.099122   -0.072928
      6          8    10081000       -0.670521    1.031419   -0.071623
      7          1    10011000       -1.538615    0.622245   -0.004851
      8          6    10061003        1.709363    0.678248    0.028471
      9          1    10011000        1.876577    1.297671   -0.827832
     10          1    10011000        1.803589    1.265930    0.917657
     11          6    10061003        2.749032   -0.457607    0.051289
     12          1    10011000        3.732990   -0.039638    0.096333
     13          1    10011000        2.584101   -1.074900    0.909571
     14          1    10011000        2.652372   -1.047481   -0.836182
 ---------------------------------------------------------------------
 Rotational constants (GHZ):           9.0221514           1.3467229           1.1919832
 ONIOM: Cut between C /H     8 and C     4 factor= 0.723886 0.723886
 ONIOM: saving gridpoint 17
 ONIOM: generating point  3 -- low level on real system.
 Standard basis: Dummy (5D, 7F)
 There are    14 symmetry adapted cartesian basis functions of A   symmetry.
 There are    14 symmetry adapted basis functions of A   symmetry.
    14 basis functions,    14 primitive gaussians,    14 cartesian basis functions
    10 alpha electrons       10 beta electrons
       nuclear repulsion energy        39.6462852821 Hartrees.
 NAtoms=   14 NActive=   14 NUniq=   14 SFac= 1.00D+00 NAtFMM=   60 NAOKFM=F Big=F
 Integral buffers will be    131072 words long.
 Raffenetti 1 integral format.
 Two-electron integral symmetry is turned on.
 UFF calculation of energy.
 Energy=    0.832474474     NIter=   0.
 Dipole moment=       0.000000       0.000000       0.000000
 ONIOM: saving gridpoint  3
 ONIOM: restoring gridpoint 17
 ONIOM: generating point  2 -- high level on model system.
 Standard basis: 6-31G (6D, 7F)
 There are    44 symmetry adapted cartesian basis functions of A   symmetry.
 There are    44 symmetry adapted basis functions of A   symmetry.
    44 basis functions,   104 primitive gaussians,    44 cartesian basis functions
    17 alpha electrons       17 beta electrons
       nuclear repulsion energy       117.7001068907 Hartrees.
 NAtoms=   14 NActive=    8 NUniq=    8 SFac= 1.00D+00 NAtFMM=   60 NAOKFM=F Big=F
 Integral buffers will be    131072 words long.
 Raffenetti 1 integral format.
 Two-electron integral symmetry is turned on.
 One-electron integrals computed using PRISM.
 NBasis=    44 RedAO= T EigKep=  1.57D-02  NBF=    44
 NBsUse=    44 1.00D-06 EigRej= -1.00D+00 NBFU=    44
 ExpMin= 1.61D-01 ExpMax= 5.48D+03 ExpMxC= 8.25D+02 IAcc=3 IRadAn=         5 AccDes= 0.00D+00
 Harris functional with IExCor=  205 and IRadAn=       5 diagonalized for initial guess.
 HarFok:  IExCor=  205 AccDes= 0.00D+00 IRadAn=         5 IDoV= 1 UseB2=F ITyADJ=14
 ICtDFT=  3500011 ScaDFX=  1.000000  1.000000  1.000000  1.000000
 FoFCou: FMM=F IPFlag=           0 FMFlag=      100000 FMFlg1=           0
         NFxFlg=           0 DoJE=T BraDBF=F KetDBF=T FulRan=T
         wScrn=  0.000000 ICntrl=       500 IOpCl=  0 I1Cent=   200000004 NGrid=           0
         NMat0=    1 NMatS0=      1 NMatT0=    0 NMatD0=    1 NMtDS0=    0 NMtDT0=    0
 Petite list used in FoFCou.
 Keep R1 ints in memory in canonical form, NReq=1312624.
 Requested convergence on RMS density matrix=1.00D-08 within 128 cycles.
 Requested convergence on MAX density matrix=1.00D-06.
 Requested convergence on             energy=1.00D-06.
 No special actions if energy rises.
 SCF Done:  E(RHF) =  -264.660655439     A.U. after   13 cycles
            NFock= 13  Conv=0.93D-08     -V/T= 2.0008

 **********************************************************************

            Population analysis using the SCF Density.

 **********************************************************************

 Orbital symmetries:
       Occupied  (A) (A) (A) (A) (A) (A) (A) (A) (A) (A) (A) (A)
                 (A) (A) (A) (A) (A)
       Virtual   (A) (A) (A) (A) (A) (A) (A) (A) (A) (A) (A) (A)
                 (A) (A) (A) (A) (A) (A) (A) (A) (A) (A) (A) (A)
                 (A) (A) (A)
 The electronic state is 1-A.
 Alpha  occ. eigenvalues --  -20.59171 -20.59070 -20.56540 -11.40569  -1.46508
 Alpha  occ. eigenvalues --   -1.38264  -1.34958  -0.87794  -0.74911  -0.70556
 Alpha  occ. eigenvalues --   -0.67890  -0.60842  -0.59741  -0.55821  -0.53004
 Alpha  occ. eigenvalues --   -0.45801  -0.45011
 Alpha virt. eigenvalues --    0.16224   0.18182   0.26089   0.28203   0.35822
 Alpha virt. eigenvalues --    0.42537   0.49586   0.73588   0.79282   0.92311
 Alpha virt. eigenvalues --    0.94656   1.05517   1.08472   1.12557   1.13650
 Alpha virt. eigenvalues --    1.17314   1.22431   1.23376   1.29022   1.30787
 Alpha virt. eigenvalues --    1.35835   1.40015   1.45187   1.54624   1.73930
 Alpha virt. eigenvalues --    1.98414   2.09475
          Condensed to atoms (all electrons):
               1          2          3          4          5          6
     1  O    8.286928   0.262220   0.257850   0.000123  -0.000273  -0.009623
     2  H    0.262220   0.329414  -0.024053   0.000053   0.000645   0.000387
     3  H    0.257850  -0.024053   0.347423   0.000034   0.000037   0.000568
     4  C    0.000123   0.000053   0.000034   4.419029   0.470285   0.180319
     5  O   -0.000273   0.000645   0.000037   0.470285   8.253713  -0.117520
     6  O   -0.009623   0.000387   0.000568   0.180319  -0.117520   8.525520
     7  H    0.028115  -0.001055  -0.001674  -0.018034   0.006333   0.238280
     8  H   -0.000018   0.000006   0.000002   0.374285  -0.045650  -0.069822
               7          8
     1  O    0.028115  -0.000018
     2  H   -0.001055   0.000006
     3  H   -0.001674   0.000002
     4  C   -0.018034   0.374285
     5  O    0.006333  -0.045650
     6  O    0.238280  -0.069822
     7  H    0.244660   0.003542
     8  H    0.003542   0.522596
 Mulliken charges:
               1
     1  O   -0.825322
     2  H    0.432384
     3  H    0.419814
     4  C    0.573907
     5  O   -0.567569
     6  O   -0.748108
     7  H    0.499833
     8  H    0.215060
     9  H    0.000000
    10  H    0.000000
    11  C    0.000000
    12  H    0.000000
    13  H    0.000000
    14  H    0.000000
 Sum of Mulliken charges =   0.00000
 Mulliken charges with hydrogens summed into heavy atoms:
               1
     1  O    0.026876
     4  C    0.788968
     5  O   -0.567569
     6  O   -0.248275
    11  C    0.000000
 Electronic spatial extent (au):  <R**2>=            552.4540
 Charge=              0.0000 electrons
 Dipole moment (field-independent basis, Debye):
    X=             -2.4347    Y=              0.8004    Z=             -1.1466  Tot=              2.8077
 Quadrupole moment (field-independent basis, Debye-Ang):
   XX=             -2.6947   YY=            -28.4241   ZZ=            -24.0959
   XY=              2.5683   XZ=              4.9371   YZ=              0.7347
 Traceless Quadrupole moment (field-independent basis, Debye-Ang):
   XX=             15.7102   YY=            -10.0192   ZZ=             -5.6910
   XY=              2.5683   XZ=              4.9371   YZ=              0.7347
 Octapole moment (field-independent basis, Debye-Ang**2):
  XXX=            -13.2099  YYY=             -0.3664  ZZZ=              0.8545  XYY=             16.8316
  XXY=             -1.2838  XXZ=            -17.6386  XZZ=             25.9919  YZZ=              0.4788
  YYZ=              0.3156  XYZ=             -2.5772
 Hexadecapole moment (field-independent basis, Debye-Ang**3):
 XXXX=           -100.1735 YYYY=           -111.8387 ZZZZ=            -19.4652 XXXY=              2.7075
 XXXZ=             69.8564 YYYX=              7.7240 YYYZ=              0.9823 ZZZX=              6.3596
 ZZZY=              0.4149 XXYY=            -64.3198 XXZZ=            -89.2972 YYZZ=            -20.7496
 XXYZ=              8.3150 YYXZ=              3.9654 ZZXY=             -1.0346
 N-N= 1.177001068907D+02 E-N=-8.620407291911D+02  KE= 2.644482270379D+02
 SvSCFP is copying densities from files   528 and   530 to   603.
 ONIOM: saving gridpoint  2
 ONIOM: restoring gridpoint 17
 ONIOM: generating point  1 -- low level on model system.
 Generating MM parameters for model system.
 I=    1 IAn=  8 Valence= 3.
          JB=  1 J=    2 IAn=  1 IBT= 1 Dist= 9.60D-01
          JB=  2 J=    3 IAn=  1 IBT= 1 Dist= 9.60D-01
          JB=  3 J=    7 IAn=  1 IBT= 1 Dist= 1.93D+00
 I=    7 IAn=  1 Valence= 2.
          JB=  1 J=    1 IAn=  8 IBT= 1 Dist= 1.93D+00
          JB=  2 J=    6 IAn=  8 IBT= 1 Dist= 9.62D-01
 Include all MM classes

 MM sanity checks:
 All charges sum to:                0.00000000
 Charges of atoms sum to:           0.00000000
 MMInit generated parameter data with length LenPar=        1129.
 Standard basis: Dummy (5D, 7F)
 There are     8 symmetry adapted cartesian basis functions of A   symmetry.
 There are     8 symmetry adapted basis functions of A   symmetry.
     8 basis functions,     8 primitive gaussians,     8 cartesian basis functions
     6 alpha electrons        6 beta electrons
       nuclear repulsion energy        16.0941559649 Hartrees.
 NAtoms=   14 NActive=    8 NUniq=    8 SFac= 1.00D+00 NAtFMM=   60 NAOKFM=F Big=F
 Integral buffers will be    131072 words long.
 Raffenetti 1 integral format.
 Two-electron integral symmetry is turned on.
 UFF calculation of energy.
 Energy=    0.820934801     NIter=   0.
 Dipole moment=       0.000000       0.000000       0.000000
 ONIOM: saving gridpoint  1
 ONIOM: restoring gridpoint  3
 ONIOM: calculating energy.
 ONIOM: gridpoint  1 method:  low   system:  model energy:     0.820934800915
 ONIOM: gridpoint  2 method:  high  system:  model energy:  -264.660655438502
 ONIOM: gridpoint  3 method:  low   system:  real  energy:     0.832474474001
 ONIOM: extrapolated energy =    -264.649115765417
 ONIOM: calculating electric field derivatives.
 ONIOM: Integrating ONIOM file  4 number   619
 ONIOM: Dipole        =-9.57883576D-01 3.14883707D-01-4.51095815D-01
 ONIOM: Dipole moment (Debye):
    X=    -2.4347    Y=     0.8004    Z=    -1.1466  Tot=     2.8077
 ONIOM: Integrating ONIOM file  5 number   695
 Nuclear Quadrupole Tensors: 
                 1             2             3             4             5 
      1   0.955103D-01  0.229324D+00 -0.149097D+00  0.254747D+00  0.159874D+01
      2   0.744593D+00 -0.976484D-01  0.364353D+00  0.197648D+00 -0.944840D+00
      3  -0.140482D+01 -0.393629D+00 -0.870987D-01  0.212572D+00 -0.612969D+00
      4  -0.760053D+00 -0.672620D-01 -0.150587D+00  0.274418D-01  0.969377D-01
      5  -0.547225D+00 -0.275548D+00  0.102193D+00  0.186357D-01 -0.539962D-01
      6   0.130931D+01  0.164305D+00  0.236196D+00 -0.467319D+00 -0.985771D+00
                 6             7             8             9            10 
      1  -0.147300D+01 -0.360813D+00  0.000000D+00  0.000000D+00  0.000000D+00
      2   0.619641D+00 -0.230010D+00  0.000000D+00  0.000000D+00  0.000000D+00
      3   0.295348D+00  0.108789D+00  0.000000D+00  0.000000D+00  0.000000D+00
      4   0.818917D-01  0.391470D-01  0.000000D+00  0.000000D+00  0.000000D+00
      5   0.109776D+00  0.197532D-01  0.000000D+00  0.000000D+00  0.000000D+00
      6   0.117765D+01  0.252024D+00  0.000000D+00  0.000000D+00  0.000000D+00
                11            12            13            14 
      1   0.000000D+00  0.000000D+00  0.000000D+00  0.000000D+00
      2   0.000000D+00  0.000000D+00  0.000000D+00  0.000000D+00
      3   0.000000D+00  0.000000D+00  0.000000D+00  0.000000D+00
      4   0.000000D+00  0.000000D+00  0.000000D+00  0.000000D+00
      5   0.000000D+00  0.000000D+00  0.000000D+00  0.000000D+00
      6   0.000000D+00  0.000000D+00  0.000000D+00  0.000000D+00
 Unable to Open any file for archive entry.
 1\1\GINC-R423\SP\ONIOM(HF/6-31G:UFF)\Mixed\C3H8O3\JLIU40\13-Mar-2025\0
 \\# oniom(hf/6-31g:uff) geom=connectivity\\Title Card Required\\0,1\O,
 0,3.76346697,-1.28715714,0.14990231\H,0,4.68481327,-1.33491104,0.41530
 87\H,0,3.43419554,-0.39698048,0.2940059\C,0,2.47622305,-4.51733298,1.0
 5258741\O,0,3.69830379,-4.5447794,0.91356521\O,0,1.86025515,-3.3110812
 9,0.96921829\H,0,2.49236632,-2.63887772,0.69710288\C,0,1.48240922,-5.6
 638437,1.31611587\H,0,0.9677649,-5.48514069,2.23704282\H,0,0.77423209,
 -5.71308085,0.51551555\C,0,2.24854448,-6.99668803,1.40646381\H,0,1.558
 45238,-7.79280371,1.59320622\H,0,2.76022741,-7.1771811,0.48423671\H,0,
 2.9592682,-6.94614605,2.20472273\\Version=ES64L-G16RevC.01\HF=0.820934
 8\RMSD=9.257e-09\Dipole=0.046375,1.0686102,0.2758655\Quadrupole=-4.235
 2025,9.3105493,-5.0753468,7.5499805,0.3639425,-0.019795\PG=C01 [X(C3H8
 O3)]\\@
 The archive entry for this job was punched.


 A FOOL CAN ASK MORE QUESTIONS THAN
 A WISE MAN CAN ANSWER.
 Job cpu time:       0 days  0 hours  0 minutes  1.2 seconds.
 Elapsed time:       0 days  0 hours  0 minutes  1.3 seconds.
 File lengths (MBytes):  RWF=      6 Int=      0 D2E=      0 Chk=      2 Scr=      1
 Normal termination of Gaussian 16 at Thu Mar 13 04:49:02 2025.
