 Entering Gaussian System, Link 0=/jet/home/xzhangj/programs/g16/g16
 Input=/jet/home/xzhangj/scratch/TS_5coord_XIII_wbi/TS_5coord_XIII_wbi.com
 Output=/jet/home/xzhangj/scratch/TS_5coord_XIII_wbi/TS_5coord_XIII_wbi.log
 Initial command:
 /jet/home/xzhangj/programs/g16/l1.exe "/tmp/TS_5coord_XIII_wbi/Gau-89255.inp" -scrdir="/tmp/TS_5coord_XIII_wbi/"
 Entering Link 1 = /jet/home/xzhangj/programs/g16/l1.exe PID=     89257.
  
 Copyright (c) 1988-2017, Gaussian, Inc.  All Rights Reserved.
  
 This is part of the Gaussian(R) 16 program.  It is based on
 the Gaussian(R) 09 system (copyright 2009, Gaussian, Inc.),
 the Gaussian(R) 03 system (copyright 2003, Gaussian, Inc.),
 the Gaussian(R) 98 system (copyright 1998, Gaussian, Inc.),
 the Gaussian(R) 94 system (copyright 1995, Gaussian, Inc.),
 the Gaussian 92(TM) system (copyright 1992, Gaussian, Inc.),
 the Gaussian 90(TM) system (copyright 1990, Gaussian, Inc.),
 the Gaussian 88(TM) system (copyright 1988, Gaussian, Inc.),
 the Gaussian 86(TM) system (copyright 1986, Carnegie Mellon
 University), and the Gaussian 82(TM) system (copyright 1983,
 Carnegie Mellon University). Gaussian is a federally registered
 trademark of Gaussian, Inc.
  
 This software contains proprietary and confidential information,
 including trade secrets, belonging to Gaussian, Inc.
  
 This software is provided under written license and may be
 used, copied, transmitted, or stored only in accord with that
 written license.
  
 The following legend is applicable only to US Government
 contracts under FAR:
  
                    RESTRICTED RIGHTS LEGEND
  
 Use, reproduction and disclosure by the US Government is
 subject to restrictions as set forth in subparagraphs (a)
 and (c) of the Commercial Computer Software - Restricted
 Rights clause in FAR 52.227-19.
  
 Gaussian, Inc.
 340 Quinnipiac St., Bldg. 40, Wallingford CT 06492
  
  
 ---------------------------------------------------------------
 Warning -- This program may not be used in any manner that
 competes with the business of Gaussian, Inc. or will provide
 assistance to any competitor of Gaussian, Inc.  The licensee
 of this program is prohibited from giving any competitor of
 Gaussian, Inc. access to this program.  By using this program,
 the user acknowledges that Gaussian, Inc. is engaged in the
 business of creating and licensing software in the field of
 computational chemistry and represents and warrants to the
 licensee that it is not a competitor of Gaussian, Inc. and that
 it will not use this program in any manner prohibited above.
 ---------------------------------------------------------------
  

 Cite this work as:
 Gaussian 16, Revision B.01,
 M. J. Frisch, G. W. Trucks, H. B. Schlegel, G. E. Scuseria, 
 M. A. Robb, J. R. Cheeseman, G. Scalmani, V. Barone, 
 G. A. Petersson, H. Nakatsuji, X. Li, M. Caricato, A. V. Marenich, 
 J. Bloino, B. G. Janesko, R. Gomperts, B. Mennucci, H. P. Hratchian, 
 J. V. Ortiz, A. F. Izmaylov, J. L. Sonnenberg, D. Williams-Young, 
 F. Ding, F. Lipparini, F. Egidi, J. Goings, B. Peng, A. Petrone, 
 T. Henderson, D. Ranasinghe, V. G. Zakrzewski, J. Gao, N. Rega, 
 G. Zheng, W. Liang, M. Hada, M. Ehara, K. Toyota, R. Fukuda, 
 J. Hasegawa, M. Ishida, T. Nakajima, Y. Honda, O. Kitao, H. Nakai, 
 T. Vreven, K. Throssell, J. A. Montgomery, Jr., J. E. Peralta, 
 F. Ogliaro, M. J. Bearpark, J. J. Heyd, E. N. Brothers, K. N. Kudin, 
 V. N. Staroverov, T. A. Keith, R. Kobayashi, J. Normand, 
 K. Raghavachari, A. P. Rendell, J. C. Burant, S. S. Iyengar, 
 J. Tomasi, M. Cossi, J. M. Millam, M. Klene, C. Adamo, R. Cammi, 
 J. W. Ochterski, R. L. Martin, K. Morokuma, O. Farkas, 
 J. B. Foresman, and D. J. Fox, Gaussian, Inc., Wallingford CT, 2016.
 
 ******************************************
 Gaussian 16:  ES64L-G16RevB.01 20-Dec-2017
                 5-Nov-2024 
 ******************************************
 %chk=TS_5coord_XIII_wbi.chk
 %nprocshared=64
 Will use up to   64 processors via shared memory.
 %mem=50GB
 ----------------------------------------------------------
 # m06 def2svp scrf=(smd,solvent=chlorobenzene) pop=nboread
 ----------------------------------------------------------
 1/38=1,172=1/1;
 2/12=2,17=6,18=5,40=1/2;
 3/5=43,7=101,11=2,25=1,30=1,70=32201,72=14,74=-54/1,2,3;
 4//1;
 5/5=2,38=5,53=14/2;
 6/7=2,8=2,9=2,10=2,28=1,40=2/1,7;
 99/5=1,9=1/99;
 ------------
 Gaussian job
 ------------
 Symbolic Z-matrix:
 Charge =  0 Multiplicity = 1
 Ni                   -1.75672  -1.70676   0.31049 
 P                    -2.11853   0.56829  -0.12538 
 O                    -2.1751    1.99399   2.42428 
 O                    -4.68313   1.36132  -1.43701 
 O                    -2.37197   2.87376  -2.18037 
 O                    -1.50711  -1.73816  -1.76292 
 O                     0.18486  -1.13933   0.37933 
 C                    -4.47792   2.12587  -0.34584 
 C                     0.50034   0.10779   0.41154 
 C                     1.86908   0.50509   0.56887 
 C                    -3.31277   1.8478    0.39158 
 C                    -1.99664   0.57258  -1.97417 
 C                    -0.442     1.16711   0.26161 
 C                    -0.71223  -2.82682  -2.21155 
 H                    -1.26564  -3.44771  -2.93742 
 H                    -0.4691   -3.43254  -1.32901 
 H                     0.2258   -2.46087  -2.65473 
 C                    -5.56563   1.80034  -2.43219 
 H                    -5.41761   1.14822  -3.30575 
 H                    -5.35808   2.84513  -2.72942 
 H                    -6.62299   1.72672  -2.11834 
 C                    -5.36626   3.12738   0.06024 
 H                    -6.25295   3.36094  -0.53371 
 C                     2.21105   1.8464    0.64182 
 H                     3.26781   2.10449   0.77697 
 C                     1.26857   2.88897   0.52888 
 C                    -1.67489   2.76985   3.47928 
 H                    -0.76687   2.26592   3.84195 
 H                    -2.39061   2.85149   4.31779 
 H                    -1.40188   3.78708   3.14104 
 C                    -2.44207   4.0632   -2.91845 
 H                    -1.47042   4.32073  -3.37883 
 H                    -2.72083   4.85864  -2.21237 
 H                    -3.20795   4.01764  -3.71419 
 C                    -2.09135   1.71308  -2.79908 
 C                    -1.89112   1.62107  -4.18132 
 H                    -1.9717    2.50412  -4.81859 
 C                    -1.56523   0.38843  -4.74253 
 H                    -1.40569   0.31567  -5.82254 
 C                    -0.05617   2.51061   0.31723 
 H                    -0.83318   3.27168   0.18705 
 C                    -5.12706   3.80622   1.25325 
 H                    -5.81938   4.59083   1.57319 
 C                    -4.0444    3.47698   2.0625 
 H                    -3.89884   3.9785    3.02203 
 C                    -3.16961   2.46488   1.64885 
 C                    -1.63976  -0.64096  -2.57571 
 C                    -1.42821  -0.74691  -3.95559 
 H                    -1.16112  -1.70236  -4.41094 
 C                    -2.51544  -4.49497   0.59778 
 C                    -3.22028  -5.65995   0.31862 
 C                    -4.35345  -5.58122  -0.48513 
 C                    -4.73753  -4.33809  -0.98205 
 C                    -3.97245  -3.22415  -0.66138 
 N                    -2.88084  -3.29966   0.11503 
 H                    -4.93192  -6.47839  -0.72225 
 H                    -1.62136  -4.51407   1.23039 
 H                    -2.87743  -6.61224   0.72943 
 H                    -5.62089  -4.22546  -1.61463 
 H                    -4.23259  -2.22761  -1.03905 
 C                    -1.91175  -1.65789   2.20996 
 H                    -1.31691  -2.51838   2.58614 
 H                    -1.36804  -0.74741   2.52998 
 Si                   -3.59684  -1.6786    3.0214 
 C                    -4.26224  -3.43452   3.25385 
 H                    -3.49843  -4.1237    3.65638 
 H                    -5.10466  -3.42298   3.9695 
 H                    -4.64507  -3.86684   2.31281 
 C                    -3.43315  -0.91074   4.74198 
 H                    -2.69954  -1.45502   5.36274 
 H                    -3.08496   0.13525   4.66098 
 H                    -4.3958   -0.90461   5.28453 
 C                    -4.96088  -0.72041   2.13661 
 H                    -4.79258   0.37003   2.16759 
 H                    -5.07339  -1.01325   1.07773 
 H                    -5.92489  -0.91798   2.64081 
 C                     1.73643   4.34277   0.5858 
 C                     0.5791    5.32239   0.41772 
 H                     0.07122   5.19804  -0.55441 
 H                    -0.18007   5.2067    1.2111 
 H                     0.95129   6.36045   0.46569 
 C                     2.74319   4.60207  -0.54038 
 H                     3.10748   5.64522  -0.51346 
 H                     3.62442   3.94097  -0.46863 
 H                     2.27862   4.43088  -1.528 
 C                     2.40654   4.62148   1.93402 
 H                     3.28114   3.97076   2.10132 
 H                     2.75558   5.66841   1.99305 
 H                     1.7016    4.45107   2.76693 
 P                     3.04096  -0.88935   0.77599 
 C                     3.37173  -1.55318  -0.93487 
 C                     2.68087  -1.27836  -2.12293 
 C                     4.45964  -2.4507   -1.01833 
 C                     3.07925  -1.8413   -3.34439 
 C                     4.88683  -2.98617  -2.23558 
 C                     4.18463  -2.67815  -3.40044 
 H                     2.49991  -1.60103  -4.24288 
 H                     5.74765  -3.65876  -2.27263 
 H                     4.50105  -3.10916  -4.35523 
 C                     4.66162  -0.00978   1.04212 
 C                     5.28185  -0.16495   2.29963 
 C                     5.37302   0.68759   0.04544 
 C                     6.57392   0.32453   2.5425 
 C                     6.67199   1.16643   0.27359 
 C                     7.25449   0.97717   1.52098 
 H                     7.04897   0.19831   3.51725 
 H                     7.21655   1.69956  -0.50872 
 H                     8.26418   1.35706   1.70603 
 O                     4.57131  -0.81426   3.24176 
 O                     4.74542   0.88376  -1.13303 
 O                     5.07017  -2.74185   0.154 
 O                     1.58535  -0.47074  -2.12096 
 C                     5.14135  -1.06085   4.49616 
 H                     5.38434  -0.12712   5.03586 
 H                     4.39628  -1.61586   5.08284 
 H                     6.05738  -1.67607   4.42331 
 C                     5.49385   1.21606  -2.2695 
 H                     5.91434   2.23734  -2.21647 
 H                     6.32024   0.4999   -2.43849 
 H                     4.81003   1.17383  -3.13036 
 C                     6.42365  -3.09844   0.15541 
 H                     6.76655  -3.06666   1.20057 
 H                     6.59617  -4.1204   -0.23005 
 H                     7.03081  -2.38764  -0.43764 
 C                     1.72758   0.79914  -2.70633 
 H                     1.9736    0.73961  -3.78512 
 H                     0.76091   1.31754  -2.59943 
 H                     2.50364   1.39201  -2.18808 
 
 Stoichiometry    C51H63NNiO9P2Si
 Framework group  C1[X(C51H63NNiO9P2Si)]
 Deg. of freedom   378
 Full point group                 C1      NOp   1
 Largest Abelian subgroup         C1      NOp   1
 Largest concise Abelian subgroup C1      NOp   1
                         Standard orientation:                         
 ---------------------------------------------------------------------
 Center     Atomic      Atomic             Coordinates (Angstroms)
 Number     Number       Type             X           Y           Z
 ---------------------------------------------------------------------
      1         28           0       -1.756720   -1.706764    0.310485
      2         15           0       -2.118527    0.568289   -0.125381
      3          8           0       -2.175100    1.993987    2.424277
      4          8           0       -4.683130    1.361317   -1.437006
      5          8           0       -2.371969    2.873756   -2.180373
      6          8           0       -1.507106   -1.738161   -1.762920
      7          8           0        0.184857   -1.139326    0.379329
      8          6           0       -4.477925    2.125873   -0.345836
      9          6           0        0.500343    0.107790    0.411541
     10          6           0        1.869082    0.505088    0.568868
     11          6           0       -3.312773    1.847800    0.391581
     12          6           0       -1.996635    0.572584   -1.974170
     13          6           0       -0.441998    1.167114    0.261606
     14          6           0       -0.712228   -2.826822   -2.211552
     15          1           0       -1.265638   -3.447709   -2.937424
     16          1           0       -0.469102   -3.432542   -1.329011
     17          1           0        0.225795   -2.460872   -2.654729
     18          6           0       -5.565625    1.800339   -2.432192
     19          1           0       -5.417614    1.148216   -3.305752
     20          1           0       -5.358076    2.845134   -2.729418
     21          1           0       -6.622990    1.726719   -2.118344
     22          6           0       -5.366263    3.127381    0.060240
     23          1           0       -6.252948    3.360940   -0.533712
     24          6           0        2.211054    1.846400    0.641819
     25          1           0        3.267808    2.104488    0.776967
     26          6           0        1.268569    2.888972    0.528877
     27          6           0       -1.674888    2.769845    3.479276
     28          1           0       -0.766873    2.265923    3.841951
     29          1           0       -2.390612    2.851493    4.317788
     30          1           0       -1.401878    3.787084    3.141042
     31          6           0       -2.442065    4.063199   -2.918447
     32          1           0       -1.470416    4.320728   -3.378831
     33          1           0       -2.720830    4.858636   -2.212367
     34          1           0       -3.207953    4.017640   -3.714194
     35          6           0       -2.091348    1.713077   -2.799079
     36          6           0       -1.891119    1.621074   -4.181318
     37          1           0       -1.971700    2.504122   -4.818592
     38          6           0       -1.565225    0.388427   -4.742528
     39          1           0       -1.405685    0.315668   -5.822541
     40          6           0       -0.056174    2.510609    0.317234
     41          1           0       -0.833178    3.271677    0.187053
     42          6           0       -5.127056    3.806216    1.253252
     43          1           0       -5.819383    4.590833    1.573186
     44          6           0       -4.044396    3.476980    2.062499
     45          1           0       -3.898835    3.978502    3.022035
     46          6           0       -3.169606    2.464882    1.648847
     47          6           0       -1.639759   -0.640956   -2.575710
     48          6           0       -1.428206   -0.746909   -3.955593
     49          1           0       -1.161123   -1.702364   -4.410942
     50          6           0       -2.515442   -4.494965    0.597777
     51          6           0       -3.220277   -5.659952    0.318624
     52          6           0       -4.353452   -5.581219   -0.485128
     53          6           0       -4.737529   -4.338086   -0.982052
     54          6           0       -3.972453   -3.224151   -0.661380
     55          7           0       -2.880844   -3.299662    0.115030
     56          1           0       -4.931918   -6.478389   -0.722252
     57          1           0       -1.621360   -4.514074    1.230385
     58          1           0       -2.877425   -6.612242    0.729431
     59          1           0       -5.620890   -4.225461   -1.614628
     60          1           0       -4.232585   -2.227605   -1.039051
     61          6           0       -1.911751   -1.657887    2.209958
     62          1           0       -1.316905   -2.518380    2.586143
     63          1           0       -1.368037   -0.747408    2.529975
     64         14           0       -3.596837   -1.678599    3.021395
     65          6           0       -4.262242   -3.434516    3.253847
     66          1           0       -3.498427   -4.123701    3.656382
     67          1           0       -5.104659   -3.422980    3.969495
     68          1           0       -4.645070   -3.866835    2.312809
     69          6           0       -3.433154   -0.910740    4.741978
     70          1           0       -2.699536   -1.455019    5.362740
     71          1           0       -3.084959    0.135245    4.660983
     72          1           0       -4.395798   -0.904606    5.284534
     73          6           0       -4.960877   -0.720407    2.136614
     74          1           0       -4.792577    0.370025    2.167588
     75          1           0       -5.073390   -1.013247    1.077727
     76          1           0       -5.924885   -0.917975    2.640811
     77          6           0        1.736426    4.342767    0.585800
     78          6           0        0.579098    5.322392    0.417720
     79          1           0        0.071215    5.198041   -0.554413
     80          1           0       -0.180068    5.206702    1.211098
     81          1           0        0.951293    6.360453    0.465685
     82          6           0        2.743192    4.602068   -0.540376
     83          1           0        3.107476    5.645218   -0.513455
     84          1           0        3.624421    3.940969   -0.468628
     85          1           0        2.278617    4.430884   -1.527998
     86          6           0        2.406538    4.621484    1.934018
     87          1           0        3.281144    3.970757    2.101317
     88          1           0        2.755576    5.668414    1.993046
     89          1           0        1.701600    4.451070    2.766930
     90         15           0        3.040958   -0.889346    0.775985
     91          6           0        3.371732   -1.553183   -0.934868
     92          6           0        2.680874   -1.278361   -2.122932
     93          6           0        4.459636   -2.450703   -1.018326
     94          6           0        3.079254   -1.841303   -3.344390
     95          6           0        4.886832   -2.986172   -2.235581
     96          6           0        4.184629   -2.678151   -3.400444
     97          1           0        2.499911   -1.601031   -4.242884
     98          1           0        5.747649   -3.658758   -2.272625
     99          1           0        4.501046   -3.109157   -4.355231
    100          6           0        4.661617   -0.009775    1.042121
    101          6           0        5.281854   -0.164947    2.299625
    102          6           0        5.373016    0.687585    0.045444
    103          6           0        6.573918    0.324532    2.542495
    104          6           0        6.671992    1.166434    0.273590
    105          6           0        7.254493    0.977171    1.520980
    106          1           0        7.048969    0.198307    3.517247
    107          1           0        7.216546    1.699562   -0.508719
    108          1           0        8.264182    1.357059    1.706027
    109          8           0        4.571307   -0.814256    3.241763
    110          8           0        4.745420    0.883757   -1.133029
    111          8           0        5.070174   -2.741851    0.153998
    112          8           0        1.585354   -0.470736   -2.120963
    113          6           0        5.141352   -1.060849    4.496161
    114          1           0        5.384343   -0.127121    5.035858
    115          1           0        4.396281   -1.615857    5.082840
    116          1           0        6.057375   -1.676068    4.423307
    117          6           0        5.493845    1.216057   -2.269499
    118          1           0        5.914336    2.237342   -2.216470
    119          1           0        6.320240    0.499900   -2.438490
    120          1           0        4.810032    1.173826   -3.130360
    121          6           0        6.423652   -3.098445    0.155411
    122          1           0        6.766546   -3.066657    1.200573
    123          1           0        6.596174   -4.120403   -0.230049
    124          1           0        7.030810   -2.387644   -0.437637
    125          6           0        1.727575    0.799142   -2.706329
    126          1           0        1.973598    0.739610   -3.785123
    127          1           0        0.760913    1.317543   -2.599425
    128          1           0        2.503642    1.392012   -2.188083
 ---------------------------------------------------------------------
 Rotational constants (GHZ):           0.0486250           0.0295559           0.0267725
 Standard basis: def2SVP (5D, 7F)
 There are  1323 symmetry adapted cartesian basis functions of A   symmetry.
 There are  1254 symmetry adapted basis functions of A   symmetry.
  1254 basis functions,  2158 primitive gaussians,  1323 cartesian basis functions
   260 alpha electrons      260 beta electrons
       nuclear repulsion energy     13544.8379136042 Hartrees.
 NAtoms=  128 NActive=  128 NUniq=  128 SFac= 1.00D+00 NAtFMM=   60 NAOKFM=T Big=T
 Integral buffers will be    131072 words long.
 Raffenetti 2 integral format.
 Two-electron integral symmetry is turned on.
 ------------------------------------------------------------------------------
 Polarizable Continuum Model (PCM)
 =================================
 Model                : PCM.
 Atomic radii         : SMD-Coulomb.
 Polarization charges : Total charges.
 Charge compensation  : None.
 Solution method      : On-the-fly selection.
 Cavity type          : VdW (van der Waals Surface) (Alpha=1.000).
 Cavity algorithm     : GePol (No added spheres)
                        Default sphere list used, NSphG=  128.
                        Lebedev-Laikov grids with approx.  5.0 points / Ang**2.
                        Smoothing algorithm: York/Karplus (Gamma=1.0000).
                        Polarization charges: spherical gaussians, with
                                              point-specific exponents (IZeta= 3).
                        Self-potential: point-specific (ISelfS= 7).
                        Self-field    : sphere-specific E.n sum rule (ISelfD= 2).
 Solvent              : ChloroBenzene, Eps=   5.696800 Eps(inf)=   2.322881
 ------------------------------------------------------------------------------
 ------------------------------------------------------------------------------
 Atomic radii for non-electrostatic terms: SMD-CDS.
 ------------------------------------------------------------------------------
 Nuclear repulsion after PCM non-electrostatic terms =    13544.8218732894 Hartrees.
 One-electron integrals computed using PRISM.
   1 Symmetry operations used in ECPInt.
 ECPInt:  NShTT=  174345 NPrTT=  640106 LenC2=  131220 LenP2D=  292427.
 LDataN:  DoStor=T MaxTD1= 6 Len=  172
 Number of processors reduced to  45 by ecpmxn.
 NBasis=  1254 RedAO= T EigKep=  1.72D-04  NBF=  1254
 NBsUse=  1254 1.00D-06 EigRej= -1.00D+00 NBFU=  1254
 ExpMin= 3.81D-02 ExpMax= 7.11D+04 ExpMxC= 1.07D+04 IAcc=3 IRadAn=         5 AccDes= 0.00D+00
 Harris functional with IExCor= 1009 and IRadAn=       5 diagonalized for initial guess.
 HarFok:  IExCor= 1009 AccDes= 0.00D+00 IRadAn=         5 IDoV= 1 UseB2=F ITyADJ=14
 ICtDFT=  3500011 ScaDFX=  1.000000  1.000000  1.000000  1.000000
 FoFCou: FMM=F IPFlag=           0 FMFlag=      100000 FMFlg1=        2001
         NFxFlg=           0 DoJE=T BraDBF=F KetDBF=T FulRan=T
         wScrn=  0.000000 ICntrl=       500 IOpCl=  0 I1Cent=   200000004 NGrid=           0
         NMat0=    1 NMatS0=      1 NMatT0=    0 NMatD0=    1 NMtDS0=    0 NMtDT0=    0
 Petite list used in FoFCou.
 Requested convergence on RMS density matrix=1.00D-08 within 128 cycles.
 Requested convergence on MAX density matrix=1.00D-06.
 Requested convergence on             energy=1.00D-06.
 No special actions if energy rises.
 Inv3:  Mode=1 IEnd=   193876563.
 Iteration    1 A*A^-1 deviation from unit magnitude is 1.02D-14 for   3013.
 Iteration    1 A*A^-1 deviation from orthogonality  is 3.90D-15 for   5450   1005.
 Iteration    1 A^-1*A deviation from unit magnitude is 8.88D-15 for   3013.
 Iteration    1 A^-1*A deviation from orthogonality  is 7.75D-14 for   4608   3325.
 EnCoef did     2 forward-backward iterations
 EnCoef did     2 forward-backward iterations
 EnCoef did     2 forward-backward iterations
 Restarting incremental Fock formation.
 Error on total polarization charges =  0.06742
 SCF Done:  E(RM06) =  -5189.24970724     A.U. after   22 cycles
            NFock= 22  Conv=0.16D-08     -V/T= 2.0067
 SMD-CDS (non-electrostatic) energy       (kcal/mol) =     -10.07
 (included in total energy above)
 Hyperfine terms turned off by default for NAtoms > 100.

 **********************************************************************

            Population analysis using the SCF Density.

 **********************************************************************

 Orbital symmetries:
       Occupied  (A) (A) (A) (A) (A) (A) (A) (A) (A) (A) (A) (A)
                 (A) (A) (A) (A) (A) (A) (A) (A) (A) (A) (A) (A)
                 (A) (A) (A) (A) (A) (A) (A) (A) (A) (A) (A) (A)
                 (A) (A) (A) (A) (A) (A) (A) (A) (A) (A) (A) (A)
                 (A) (A) (A) (A) (A) (A) (A) (A) (A) (A) (A) (A)
                 (A) (A) (A) (A) (A) (A) (A) (A) (A) (A) (A) (A)
                 (A) (A) (A) (A) (A) (A) (A) (A) (A) (A) (A) (A)
                 (A) (A) (A) (A) (A) (A) (A) (A) (A) (A) (A) (A)
                 (A) (A) (A) (A) (A) (A) (A) (A) (A) (A) (A) (A)
                 (A) (A) (A) (A) (A) (A) (A) (A) (A) (A) (A) (A)
                 (A) (A) (A) (A) (A) (A) (A) (A) (A) (A) (A) (A)
                 (A) (A) (A) (A) (A) (A) (A) (A) (A) (A) (A) (A)
                 (A) (A) (A) (A) (A) (A) (A) (A) (A) (A) (A) (A)
                 (A) (A) (A) (A) (A) (A) (A) (A) (A) (A) (A) (A)
                 (A) (A) (A) (A) (A) (A) (A) (A) (A) (A) (A) (A)
                 (A) (A) (A) (A) (A) (A) (A) (A) (A) (A) (A) (A)
                 (A) (A) (A) (A) (A) (A) (A) (A) (A) (A) (A) (A)
                 (A) (A) (A) (A) (A) (A) (A) (A) (A) (A) (A) (A)
                 (A) (A) (A) (A) (A) (A) (A) (A) (A) (A) (A) (A)
                 (A) (A) (A) (A) (A) (A) (A) (A) (A) (A) (A) (A)
                 (A) (A) (A) (A) (A) (A) (A) (A) (A) (A) (A) (A)
                 (A) (A) (A) (A) (A) (A) (A) (A)
       Virtual   (A) (A) (A) (A) (A) (A) (A) (A) (A) (A) (A) (A)
                 (A) (A) (A) (A) (A) (A) (A) (A) (A) (A) (A) (A)
                 (A) (A) (A) (A) (A) (A) (A) (A) (A) (A) (A) (A)
                 (A) (A) (A) (A) (A) (A) (A) (A) (A) (A) (A) (A)
                 (A) (A) (A) (A) (A) (A) (A) (A) (A) (A) (A) (A)
                 (A) (A) (A) (A) (A) (A) (A) (A) (A) (A) (A) (A)
                 (A) (A) (A) (A) (A) (A) (A) (A) (A) (A) (A) (A)
                 (A) (A) (A) (A) (A) (A) (A) (A) (A) (A) (A) (A)
                 (A) (A) (A) (A) (A) (A) (A) (A) (A) (A) (A) (A)
                 (A) (A) (A) (A) (A) (A) (A) (A) (A) (A) (A) (A)
                 (A) (A) (A) (A) (A) (A) (A) (A) (A) (A) (A) (A)
                 (A) (A) (A) (A) (A) (A) (A) (A) (A) (A) (A) (A)
                 (A) (A) (A) (A) (A) (A) (A) (A) (A) (A) (A) (A)
                 (A) (A) (A) (A) (A) (A) (A) (A) (A) (A) (A) (A)
                 (A) (A) (A) (A) (A) (A) (A) (A) (A) (A) (A) (A)
                 (A) (A) (A) (A) (A) (A) (A) (A) (A) (A) (A) (A)
                 (A) (A) (A) (A) (A) (A) (A) (A) (A) (A) (A) (A)
                 (A) (A) (A) (A) (A) (A) (A) (A) (A) (A) (A) (A)
                 (A) (A) (A) (A) (A) (A) (A) (A) (A) (A) (A) (A)
                 (A) (A) (A) (A) (A) (A) (A) (A) (A) (A) (A) (A)
                 (A) (A) (A) (A) (A) (A) (A) (A) (A) (A) (A) (A)
                 (A) (A) (A) (A) (A) (A) (A) (A) (A) (A) (A) (A)
                 (A) (A) (A) (A) (A) (A) (A) (A) (A) (A) (A) (A)
                 (A) (A) (A) (A) (A) (A) (A) (A) (A) (A) (A) (A)
                 (A) (A) (A) (A) (A) (A) (A) (A) (A) (A) (A) (A)
                 (A) (A) (A) (A) (A) (A) (A) (A) (A) (A) (A) (A)
                 (A) (A) (A) (A) (A) (A) (A) (A) (A) (A) (A) (A)
                 (A) (A) (A) (A) (A) (A) (A) (A) (A) (A) (A) (A)
                 (A) (A) (A) (A) (A) (A) (A) (A) (A) (A) (A) (A)
                 (A) (A) (A) (A) (A) (A) (A) (A) (A) (A) (A) (A)
                 (A) (A) (A) (A) (A) (A) (A) (A) (A) (A) (A) (A)
                 (A) (A) (A) (A) (A) (A) (A) (A) (A) (A) (A) (A)
                 (A) (A) (A) (A) (A) (A) (A) (A) (A) (A) (A) (A)
                 (A) (A) (A) (A) (A) (A) (A) (A) (A) (A) (A) (A)
                 (A) (A) (A) (A) (A) (A) (A) (A) (A) (A) (A) (A)
                 (A) (A) (A) (A) (A) (A) (A) (A) (A) (A) (A) (A)
                 (A) (A) (A) (A) (A) (A) (A) (A) (A) (A) (A) (A)
                 (A) (A) (A) (A) (A) (A) (A) (A) (A) (A) (A) (A)
                 (A) (A) (A) (A) (A) (A) (A) (A) (A) (A) (A) (A)
                 (A) (A) (A) (A) (A) (A) (A) (A) (A) (A) (A) (A)
                 (A) (A) (A) (A) (A) (A) (A) (A) (A) (A) (A) (A)
                 (A) (A) (A) (A) (A) (A) (A) (A) (A) (A) (A) (A)
                 (A) (A) (A) (A) (A) (A) (A) (A) (A) (A) (A) (A)
                 (A) (A) (A) (A) (A) (A) (A) (A) (A) (A) (A) (A)
                 (A) (A) (A) (A) (A) (A) (A) (A) (A) (A) (A) (A)
                 (A) (A) (A) (A) (A) (A) (A) (A) (A) (A) (A) (A)
                 (A) (A) (A) (A) (A) (A) (A) (A) (A) (A) (A) (A)
                 (A) (A) (A) (A) (A) (A) (A) (A) (A) (A) (A) (A)
                 (A) (A) (A) (A) (A) (A) (A) (A) (A) (A) (A) (A)
                 (A) (A) (A) (A) (A) (A) (A) (A) (A) (A) (A) (A)
                 (A) (A) (A) (A) (A) (A) (A) (A) (A) (A) (A) (A)
                 (A) (A) (A) (A) (A) (A) (A) (A) (A) (A) (A) (A)
                 (A) (A) (A) (A) (A) (A) (A) (A) (A) (A) (A) (A)
                 (A) (A) (A) (A) (A) (A) (A) (A) (A) (A) (A) (A)
                 (A) (A) (A) (A) (A) (A) (A) (A) (A) (A) (A) (A)
                 (A) (A) (A) (A) (A) (A) (A) (A) (A) (A) (A) (A)
                 (A) (A) (A) (A) (A) (A) (A) (A) (A) (A) (A) (A)
                 (A) (A) (A) (A) (A) (A) (A) (A) (A) (A) (A) (A)
                 (A) (A) (A) (A) (A) (A) (A) (A) (A) (A) (A) (A)
                 (A) (A) (A) (A) (A) (A) (A) (A) (A) (A) (A) (A)
                 (A) (A) (A) (A) (A) (A) (A) (A) (A) (A) (A) (A)
                 (A) (A) (A) (A) (A) (A) (A) (A) (A) (A) (A) (A)
                 (A) (A) (A) (A) (A) (A) (A) (A) (A) (A) (A) (A)
                 (A) (A) (A) (A) (A) (A) (A) (A) (A) (A) (A) (A)
                 (A) (A) (A) (A) (A) (A) (A) (A) (A) (A) (A) (A)
                 (A) (A) (A) (A) (A) (A) (A) (A) (A) (A) (A) (A)
                 (A) (A) (A) (A) (A) (A) (A) (A) (A) (A) (A) (A)
                 (A) (A) (A) (A) (A) (A) (A) (A) (A) (A) (A) (A)
                 (A) (A) (A) (A) (A) (A) (A) (A) (A) (A) (A) (A)
                 (A) (A) (A) (A) (A) (A) (A) (A) (A) (A) (A) (A)
                 (A) (A) (A) (A) (A) (A) (A) (A) (A) (A) (A) (A)
                 (A) (A) (A) (A) (A) (A) (A) (A) (A) (A) (A) (A)
                 (A) (A) (A) (A) (A) (A) (A) (A) (A) (A) (A) (A)
                 (A) (A) (A) (A) (A) (A) (A) (A) (A) (A) (A) (A)
                 (A) (A) (A) (A) (A) (A) (A) (A) (A) (A) (A) (A)
                 (A) (A) (A) (A) (A) (A) (A) (A) (A) (A) (A) (A)
                 (A) (A) (A) (A) (A) (A) (A) (A) (A) (A) (A) (A)
                 (A) (A) (A) (A) (A) (A) (A) (A) (A) (A) (A) (A)
                 (A) (A) (A) (A) (A) (A) (A) (A) (A) (A) (A) (A)
                 (A) (A) (A) (A) (A) (A) (A) (A) (A) (A) (A) (A)
                 (A) (A) (A) (A) (A) (A) (A) (A) (A) (A) (A) (A)
                 (A) (A) (A) (A) (A) (A) (A) (A) (A) (A) (A) (A)
                 (A) (A) (A) (A) (A) (A) (A) (A) (A) (A)
 The electronic state is 1-A.
 Alpha  occ. eigenvalues -- -300.07748 -77.21586 -77.19159 -66.21344 -35.97312
 Alpha  occ. eigenvalues --  -31.33710 -31.31614 -31.29753 -19.26695 -19.24453
 Alpha  occ. eigenvalues --  -19.24138 -19.23731 -19.23665 -19.23594 -19.23295
 Alpha  occ. eigenvalues --  -19.21344 -19.14383 -14.43630 -10.31969 -10.31700
 Alpha  occ. eigenvalues --  -10.31147 -10.31088 -10.30905 -10.30899 -10.30403
 Alpha  occ. eigenvalues --  -10.30119 -10.30065 -10.29754 -10.29638 -10.29611
 Alpha  occ. eigenvalues --  -10.29600 -10.29221 -10.29110 -10.29011 -10.29007
 Alpha  occ. eigenvalues --  -10.27957 -10.27786 -10.27175 -10.26988 -10.26892
 Alpha  occ. eigenvalues --  -10.25610 -10.25111 -10.25069 -10.24779 -10.24713
 Alpha  occ. eigenvalues --  -10.24464 -10.24410 -10.24371 -10.24239 -10.23908
 Alpha  occ. eigenvalues --  -10.23868 -10.23839 -10.23702 -10.23641 -10.23601
 Alpha  occ. eigenvalues --  -10.23573 -10.23413 -10.22478 -10.22441 -10.22428
 Alpha  occ. eigenvalues --  -10.22301 -10.22255 -10.21566 -10.21157 -10.21071
 Alpha  occ. eigenvalues --  -10.20531 -10.20288 -10.20245 -10.18622  -6.66093
 Alpha  occ. eigenvalues --   -6.63771  -5.33172  -4.78329  -4.78231  -4.77815
 Alpha  occ. eigenvalues --   -4.76009  -4.75936  -4.75395  -4.03570  -3.65356
 Alpha  occ. eigenvalues --   -3.65343  -3.65261  -2.61467  -2.59261  -2.56668
 Alpha  occ. eigenvalues --   -1.09730  -1.09080  -1.08427  -1.08211  -1.08197
 Alpha  occ. eigenvalues --   -1.08033  -1.07786  -1.05860  -0.97786  -0.97543
 Alpha  occ. eigenvalues --   -0.86055  -0.85446  -0.85077  -0.84741  -0.83456
 Alpha  occ. eigenvalues --   -0.82382  -0.79450  -0.78003  -0.77950  -0.76922
 Alpha  occ. eigenvalues --   -0.76380  -0.76133  -0.75645  -0.75472  -0.75234
 Alpha  occ. eigenvalues --   -0.74513  -0.72872  -0.70845  -0.70183  -0.70006
 Alpha  occ. eigenvalues --   -0.69977  -0.69797  -0.69010  -0.68842  -0.68475
 Alpha  occ. eigenvalues --   -0.68281  -0.67545  -0.67318  -0.67078  -0.65746
 Alpha  occ. eigenvalues --   -0.65553  -0.65114  -0.64850  -0.64538  -0.63655
 Alpha  occ. eigenvalues --   -0.62535  -0.61739  -0.60701  -0.59763  -0.58964
 Alpha  occ. eigenvalues --   -0.58437  -0.58148  -0.58002  -0.57892  -0.57274
 Alpha  occ. eigenvalues --   -0.55601  -0.55183  -0.55033  -0.54338  -0.53672
 Alpha  occ. eigenvalues --   -0.52740  -0.52506  -0.51722  -0.51195  -0.51182
 Alpha  occ. eigenvalues --   -0.50828  -0.50302  -0.50124  -0.49596  -0.49458
 Alpha  occ. eigenvalues --   -0.49279  -0.48993  -0.48495  -0.48437  -0.48219
 Alpha  occ. eigenvalues --   -0.48007  -0.47836  -0.47640  -0.47465  -0.47388
 Alpha  occ. eigenvalues --   -0.47125  -0.46974  -0.46837  -0.46354  -0.46331
 Alpha  occ. eigenvalues --   -0.46266  -0.45633  -0.44984  -0.44782  -0.44484
 Alpha  occ. eigenvalues --   -0.44273  -0.44166  -0.44084  -0.43813  -0.43375
 Alpha  occ. eigenvalues --   -0.43331  -0.42046  -0.41817  -0.41624  -0.41475
 Alpha  occ. eigenvalues --   -0.41324  -0.40898  -0.40728  -0.40592  -0.40277
 Alpha  occ. eigenvalues --   -0.40103  -0.39874  -0.39704  -0.39477  -0.39146
 Alpha  occ. eigenvalues --   -0.39039  -0.38866  -0.38705  -0.38480  -0.38275
 Alpha  occ. eigenvalues --   -0.38149  -0.38043  -0.37915  -0.37866  -0.37752
 Alpha  occ. eigenvalues --   -0.37615  -0.37460  -0.37367  -0.37275  -0.37045
 Alpha  occ. eigenvalues --   -0.36661  -0.36547  -0.36268  -0.35956  -0.35648
 Alpha  occ. eigenvalues --   -0.35555  -0.35484  -0.35228  -0.34963  -0.34486
 Alpha  occ. eigenvalues --   -0.34349  -0.34039  -0.33685  -0.33494  -0.33399
 Alpha  occ. eigenvalues --   -0.33169  -0.32952  -0.32915  -0.32619  -0.32269
 Alpha  occ. eigenvalues --   -0.32005  -0.31653  -0.31582  -0.31334  -0.31209
 Alpha  occ. eigenvalues --   -0.30488  -0.30363  -0.29721  -0.29427  -0.28951
 Alpha  occ. eigenvalues --   -0.28429  -0.28297  -0.27553  -0.26833  -0.25457
 Alpha  occ. eigenvalues --   -0.25117  -0.24773  -0.23980  -0.23776  -0.23655
 Alpha  occ. eigenvalues --   -0.23513  -0.23262  -0.22990  -0.22758  -0.22716
 Alpha  occ. eigenvalues --   -0.22311  -0.20278  -0.19920  -0.17288  -0.16148
 Alpha virt. eigenvalues --   -0.04431  -0.02357  -0.02125  -0.01350  -0.01020
 Alpha virt. eigenvalues --   -0.00182   0.00641   0.01217   0.01307   0.01498
 Alpha virt. eigenvalues --    0.02162   0.02482   0.04489   0.05036   0.05281
 Alpha virt. eigenvalues --    0.06264   0.06328   0.06786   0.07160   0.07379
 Alpha virt. eigenvalues --    0.07485   0.07764   0.07879   0.08218   0.08283
 Alpha virt. eigenvalues --    0.08784   0.09045   0.09209   0.09554   0.09831
 Alpha virt. eigenvalues --    0.10117   0.10299   0.10763   0.10910   0.11170
 Alpha virt. eigenvalues --    0.11208   0.11352   0.11590   0.11699   0.11789
 Alpha virt. eigenvalues --    0.11960   0.12104   0.12157   0.12287   0.12576
 Alpha virt. eigenvalues --    0.12706   0.12916   0.12990   0.12993   0.13196
 Alpha virt. eigenvalues --    0.13396   0.13453   0.13618   0.13760   0.13933
 Alpha virt. eigenvalues --    0.14180   0.14200   0.14362   0.14730   0.14904
 Alpha virt. eigenvalues --    0.14972   0.15284   0.15386   0.15468   0.15909
 Alpha virt. eigenvalues --    0.15930   0.16044   0.16140   0.16300   0.16496
 Alpha virt. eigenvalues --    0.16642   0.16805   0.16888   0.16925   0.17109
 Alpha virt. eigenvalues --    0.17165   0.17444   0.17535   0.17611   0.17778
 Alpha virt. eigenvalues --    0.17955   0.18121   0.18227   0.18495   0.18722
 Alpha virt. eigenvalues --    0.18897   0.19085   0.19357   0.19709   0.19745
 Alpha virt. eigenvalues --    0.19924   0.20221   0.20388   0.20588   0.20817
 Alpha virt. eigenvalues --    0.21403   0.21562   0.22459   0.22575   0.22902
 Alpha virt. eigenvalues --    0.23378   0.23563   0.24084   0.24349   0.24739
 Alpha virt. eigenvalues --    0.25361   0.25709   0.26544   0.26817   0.26880
 Alpha virt. eigenvalues --    0.27212   0.27603   0.27687   0.27830   0.28149
 Alpha virt. eigenvalues --    0.28385   0.28428   0.28817   0.29183   0.29334
 Alpha virt. eigenvalues --    0.29476   0.29671   0.29847   0.30314   0.30831
 Alpha virt. eigenvalues --    0.31201   0.31656   0.31995   0.32040   0.32518
 Alpha virt. eigenvalues --    0.32642   0.33008   0.33419   0.33635   0.33859
 Alpha virt. eigenvalues --    0.34413   0.34494   0.35074   0.35425   0.35632
 Alpha virt. eigenvalues --    0.36022   0.36123   0.36373   0.36676   0.37238
 Alpha virt. eigenvalues --    0.37672   0.38100   0.38501   0.38917   0.39242
 Alpha virt. eigenvalues --    0.39560   0.40121   0.40259   0.40407   0.40871
 Alpha virt. eigenvalues --    0.41022   0.41465   0.41576   0.41680   0.42125
 Alpha virt. eigenvalues --    0.42347   0.42413   0.42940   0.43025   0.43142
 Alpha virt. eigenvalues --    0.43301   0.43483   0.43931   0.44092   0.44321
 Alpha virt. eigenvalues --    0.44476   0.44603   0.44785   0.44894   0.45144
 Alpha virt. eigenvalues --    0.45227   0.45378   0.45695   0.45922   0.46021
 Alpha virt. eigenvalues --    0.46135   0.46491   0.46589   0.46809   0.47193
 Alpha virt. eigenvalues --    0.47343   0.47400   0.47667   0.47739   0.48036
 Alpha virt. eigenvalues --    0.48612   0.48868   0.49190   0.49428   0.49579
 Alpha virt. eigenvalues --    0.49675   0.49925   0.50337   0.50627   0.50727
 Alpha virt. eigenvalues --    0.50841   0.51226   0.51823   0.51965   0.52119
 Alpha virt. eigenvalues --    0.52318   0.52700   0.52885   0.53156   0.53218
 Alpha virt. eigenvalues --    0.53370   0.53858   0.54067   0.54260   0.54495
 Alpha virt. eigenvalues --    0.54822   0.54915   0.55263   0.55608   0.55810
 Alpha virt. eigenvalues --    0.55989   0.56034   0.56350   0.56517   0.56939
 Alpha virt. eigenvalues --    0.57382   0.57618   0.57675   0.58051   0.58120
 Alpha virt. eigenvalues --    0.58287   0.58471   0.58691   0.58800   0.59052
 Alpha virt. eigenvalues --    0.59308   0.59357   0.59418   0.59605   0.59906
 Alpha virt. eigenvalues --    0.59971   0.60010   0.60171   0.60279   0.60475
 Alpha virt. eigenvalues --    0.60623   0.60930   0.60976   0.61037   0.61267
 Alpha virt. eigenvalues --    0.61401   0.61566   0.61710   0.61909   0.61966
 Alpha virt. eigenvalues --    0.62092   0.62330   0.62452   0.62638   0.62806
 Alpha virt. eigenvalues --    0.62930   0.63076   0.63155   0.63478   0.63639
 Alpha virt. eigenvalues --    0.63788   0.63832   0.63951   0.64112   0.64365
 Alpha virt. eigenvalues --    0.64422   0.64496   0.64772   0.64798   0.64985
 Alpha virt. eigenvalues --    0.65131   0.65220   0.65423   0.65597   0.65714
 Alpha virt. eigenvalues --    0.65767   0.65955   0.66075   0.66132   0.66288
 Alpha virt. eigenvalues --    0.66511   0.66665   0.66812   0.66910   0.67222
 Alpha virt. eigenvalues --    0.67336   0.67553   0.67719   0.67845   0.67891
 Alpha virt. eigenvalues --    0.68078   0.68185   0.68530   0.68611   0.68890
 Alpha virt. eigenvalues --    0.68975   0.69047   0.69179   0.69303   0.69675
 Alpha virt. eigenvalues --    0.69732   0.69856   0.69988   0.70497   0.70611
 Alpha virt. eigenvalues --    0.70938   0.70975   0.71291   0.71504   0.71729
 Alpha virt. eigenvalues --    0.71948   0.72071   0.72329   0.72496   0.72586
 Alpha virt. eigenvalues --    0.72838   0.73024   0.73589   0.73707   0.73825
 Alpha virt. eigenvalues --    0.73955   0.74269   0.74530   0.74699   0.75171
 Alpha virt. eigenvalues --    0.75242   0.75462   0.75946   0.75986   0.76341
 Alpha virt. eigenvalues --    0.76517   0.76719   0.77053   0.77122   0.77417
 Alpha virt. eigenvalues --    0.77622   0.77665   0.78024   0.78292   0.78449
 Alpha virt. eigenvalues --    0.78865   0.78917   0.79393   0.79533   0.79869
 Alpha virt. eigenvalues --    0.80323   0.80465   0.80673   0.80918   0.81197
 Alpha virt. eigenvalues --    0.81498   0.81743   0.81905   0.82381   0.82814
 Alpha virt. eigenvalues --    0.83062   0.83284   0.83750   0.83880   0.84684
 Alpha virt. eigenvalues --    0.85080   0.85431   0.85877   0.86213   0.87092
 Alpha virt. eigenvalues --    0.87149   0.87485   0.87646   0.88446   0.88698
 Alpha virt. eigenvalues --    0.89151   0.89305   0.90089   0.90148   0.90892
 Alpha virt. eigenvalues --    0.91022   0.91091   0.91659   0.92306   0.92936
 Alpha virt. eigenvalues --    0.93388   0.93487   0.94050   0.94201   0.94283
 Alpha virt. eigenvalues --    0.94559   0.94859   0.95195   0.95331   0.96184
 Alpha virt. eigenvalues --    0.96513   0.97027   0.97264   0.97389   0.97736
 Alpha virt. eigenvalues --    0.98057   0.98838   0.99270   0.99955   1.00148
 Alpha virt. eigenvalues --    1.00371   1.00924   1.01280   1.01413   1.01570
 Alpha virt. eigenvalues --    1.02422   1.03065   1.03146   1.04137   1.04428
 Alpha virt. eigenvalues --    1.04569   1.05335   1.05893   1.06109   1.06847
 Alpha virt. eigenvalues --    1.07115   1.07566   1.08168   1.08309   1.08697
 Alpha virt. eigenvalues --    1.08889   1.09297   1.09328   1.09980   1.10425
 Alpha virt. eigenvalues --    1.10717   1.10915   1.11542   1.12193   1.13003
 Alpha virt. eigenvalues --    1.13141   1.13436   1.14376   1.14539   1.15342
 Alpha virt. eigenvalues --    1.15905   1.16024   1.16425   1.16538   1.17061
 Alpha virt. eigenvalues --    1.17636   1.18201   1.18266   1.18802   1.19321
 Alpha virt. eigenvalues --    1.19678   1.19916   1.20102   1.20743   1.21063
 Alpha virt. eigenvalues --    1.21282   1.21392   1.21703   1.21864   1.22229
 Alpha virt. eigenvalues --    1.22455   1.22600   1.23190   1.23595   1.23888
 Alpha virt. eigenvalues --    1.24533   1.24883   1.25154   1.25512   1.26086
 Alpha virt. eigenvalues --    1.26498   1.26735   1.27109   1.27355   1.27376
 Alpha virt. eigenvalues --    1.27752   1.27962   1.28159   1.28501   1.28838
 Alpha virt. eigenvalues --    1.28973   1.29224   1.29480   1.30334   1.30609
 Alpha virt. eigenvalues --    1.31269   1.31627   1.31968   1.32850   1.33362
 Alpha virt. eigenvalues --    1.33747   1.34195   1.34513   1.35160   1.35857
 Alpha virt. eigenvalues --    1.36696   1.37205   1.37823   1.38042   1.38554
 Alpha virt. eigenvalues --    1.39297   1.39476   1.40026   1.40595   1.40799
 Alpha virt. eigenvalues --    1.41548   1.41988   1.43752   1.44357   1.44645
 Alpha virt. eigenvalues --    1.44767   1.44997   1.45513   1.46269   1.47287
 Alpha virt. eigenvalues --    1.47955   1.48594   1.49055   1.49496   1.49568
 Alpha virt. eigenvalues --    1.49885   1.50172   1.50223   1.50515   1.50681
 Alpha virt. eigenvalues --    1.50956   1.51051   1.51304   1.51464   1.51760
 Alpha virt. eigenvalues --    1.52547   1.52743   1.53310   1.53677   1.53770
 Alpha virt. eigenvalues --    1.53990   1.54149   1.54404   1.54534   1.54831
 Alpha virt. eigenvalues --    1.55274   1.55520   1.55648   1.56410   1.56451
 Alpha virt. eigenvalues --    1.56720   1.57071   1.57875   1.58135   1.58564
 Alpha virt. eigenvalues --    1.59471   1.60250   1.60935   1.61227   1.61701
 Alpha virt. eigenvalues --    1.61961   1.62642   1.63370   1.63793   1.63980
 Alpha virt. eigenvalues --    1.64543   1.64748   1.65187   1.65748   1.65824
 Alpha virt. eigenvalues --    1.66746   1.66981   1.67008   1.67286   1.67676
 Alpha virt. eigenvalues --    1.67904   1.68349   1.68695   1.68978   1.69111
 Alpha virt. eigenvalues --    1.69309   1.69630   1.69998   1.70197   1.70463
 Alpha virt. eigenvalues --    1.70795   1.70856   1.71012   1.71258   1.71522
 Alpha virt. eigenvalues --    1.71643   1.71763   1.71930   1.72390   1.72531
 Alpha virt. eigenvalues --    1.72612   1.73023   1.73145   1.73468   1.73656
 Alpha virt. eigenvalues --    1.73739   1.73922   1.74198   1.74326   1.74625
 Alpha virt. eigenvalues --    1.74903   1.75181   1.75286   1.75457   1.75549
 Alpha virt. eigenvalues --    1.76095   1.76462   1.76604   1.76645   1.76921
 Alpha virt. eigenvalues --    1.77145   1.77414   1.77692   1.77942   1.78187
 Alpha virt. eigenvalues --    1.78457   1.78722   1.78934   1.79251   1.79424
 Alpha virt. eigenvalues --    1.79695   1.79849   1.80126   1.80187   1.80394
 Alpha virt. eigenvalues --    1.80648   1.80941   1.81084   1.81224   1.81387
 Alpha virt. eigenvalues --    1.81567   1.81692   1.81825   1.82028   1.82194
 Alpha virt. eigenvalues --    1.82498   1.82576   1.82725   1.82952   1.83289
 Alpha virt. eigenvalues --    1.83573   1.83777   1.83914   1.84195   1.84512
 Alpha virt. eigenvalues --    1.84764   1.85393   1.85823   1.86569   1.86709
 Alpha virt. eigenvalues --    1.87007   1.87515   1.87817   1.88493   1.88826
 Alpha virt. eigenvalues --    1.89181   1.89380   1.89690   1.89843   1.89974
 Alpha virt. eigenvalues --    1.90487   1.90809   1.91071   1.91700   1.92024
 Alpha virt. eigenvalues --    1.92105   1.92578   1.92617   1.93013   1.93247
 Alpha virt. eigenvalues --    1.93472   1.93679   1.93927   1.94262   1.94334
 Alpha virt. eigenvalues --    1.94619   1.94712   1.94926   1.95015   1.95150
 Alpha virt. eigenvalues --    1.95203   1.95342   1.95702   1.95957   1.96049
 Alpha virt. eigenvalues --    1.96181   1.96420   1.96609   1.96844   1.97144
 Alpha virt. eigenvalues --    1.97558   1.97898   1.98075   1.98334   1.98768
 Alpha virt. eigenvalues --    1.98883   1.99008   1.99411   1.99551   2.00035
 Alpha virt. eigenvalues --    2.00298   2.00686   2.01384   2.01516   2.01889
 Alpha virt. eigenvalues --    2.02274   2.02619   2.02778   2.03039   2.03539
 Alpha virt. eigenvalues --    2.04607   2.05829   2.06255   2.07011   2.07502
 Alpha virt. eigenvalues --    2.07723   2.08151   2.08415   2.08735   2.09421
 Alpha virt. eigenvalues --    2.10245   2.10537   2.11216   2.11399   2.12056
 Alpha virt. eigenvalues --    2.12432   2.12924   2.13143   2.13259   2.13752
 Alpha virt. eigenvalues --    2.14031   2.14635   2.15377   2.15963   2.16758
 Alpha virt. eigenvalues --    2.17183   2.17386   2.17860   2.18361   2.18965
 Alpha virt. eigenvalues --    2.19384   2.19481   2.19889   2.20299   2.20663
 Alpha virt. eigenvalues --    2.20888   2.21005   2.21312   2.21357   2.21577
 Alpha virt. eigenvalues --    2.21908   2.22369   2.22470   2.22737   2.22926
 Alpha virt. eigenvalues --    2.23087   2.23459   2.23774   2.24043   2.24526
 Alpha virt. eigenvalues --    2.24828   2.25328   2.26242   2.26457   2.26635
 Alpha virt. eigenvalues --    2.27099   2.27372   2.27599   2.27985   2.28392
 Alpha virt. eigenvalues --    2.28732   2.28764   2.29146   2.29257   2.29469
 Alpha virt. eigenvalues --    2.30174   2.30681   2.30854   2.31069   2.31258
 Alpha virt. eigenvalues --    2.31497   2.31849   2.32042   2.32207   2.32249
 Alpha virt. eigenvalues --    2.32738   2.33119   2.33205   2.33387   2.33734
 Alpha virt. eigenvalues --    2.34205   2.34407   2.34759   2.34994   2.36921
 Alpha virt. eigenvalues --    2.37350   2.38122   2.38543   2.39264   2.39801
 Alpha virt. eigenvalues --    2.40599   2.41018   2.41348   2.41587   2.41799
 Alpha virt. eigenvalues --    2.42292   2.42646   2.42841   2.42950   2.43199
 Alpha virt. eigenvalues --    2.43901   2.44174   2.44400   2.44509   2.44597
 Alpha virt. eigenvalues --    2.45015   2.45251   2.45731   2.46101   2.46312
 Alpha virt. eigenvalues --    2.47092   2.47386   2.48225   2.48628   2.48975
 Alpha virt. eigenvalues --    2.49055   2.50671   2.50811   2.52157   2.54079
 Alpha virt. eigenvalues --    2.55197   2.56451   2.57204   2.58434   2.58492
 Alpha virt. eigenvalues --    2.59100   2.59296   2.59428   2.59647   2.59811
 Alpha virt. eigenvalues --    2.59986   2.60147   2.60487   2.60649   2.61106
 Alpha virt. eigenvalues --    2.61569   2.62287   2.62501   2.63294   2.63381
 Alpha virt. eigenvalues --    2.63409   2.63733   2.63851   2.63952   2.64124
 Alpha virt. eigenvalues --    2.64366   2.64625   2.65554   2.65883   2.66211
 Alpha virt. eigenvalues --    2.67879   2.68202   2.68541   2.68967   2.69387
 Alpha virt. eigenvalues --    2.69551   2.69632   2.70049   2.70132   2.70346
 Alpha virt. eigenvalues --    2.70950   2.71028   2.71963   2.72361   2.72668
 Alpha virt. eigenvalues --    2.73127   2.73437   2.73467   2.73654   2.74290
 Alpha virt. eigenvalues --    2.74629   2.75161   2.75260   2.75492   2.76119
 Alpha virt. eigenvalues --    2.76815   2.77194   2.78410   2.79528   2.79646
 Alpha virt. eigenvalues --    2.79752   2.79957   2.80313   2.80639   2.80710
 Alpha virt. eigenvalues --    2.81893   2.82434   2.83029   2.83579   2.83855
 Alpha virt. eigenvalues --    2.84765   2.84840   2.85501   2.86203   2.87234
 Alpha virt. eigenvalues --    2.87421   2.87700   2.88332   2.88656   2.88771
 Alpha virt. eigenvalues --    2.88940   2.89796   2.89842   2.90026   2.90279
 Alpha virt. eigenvalues --    2.90394   2.90798   2.91089   2.91325   2.91577
 Alpha virt. eigenvalues --    2.91852   2.92129   2.92367   2.92736   2.92877
 Alpha virt. eigenvalues --    2.93207   2.93494   2.93707   2.94002   2.94514
 Alpha virt. eigenvalues --    2.94830   2.95173   2.99279   2.99626   3.00142
 Alpha virt. eigenvalues --    3.00764   3.01030   3.01618   3.02068   3.02101
 Alpha virt. eigenvalues --    3.02398   3.02879   3.03306   3.03717   3.05853
 Alpha virt. eigenvalues --    3.06183   3.06444   3.07128   3.07299   3.08179
 Alpha virt. eigenvalues --    3.08348   3.08731   3.08980   3.10251   3.12008
 Alpha virt. eigenvalues --    3.13334   3.14959   3.15371   3.16023   3.17370
 Alpha virt. eigenvalues --    3.17691   3.28037   3.28491   3.29970   3.30538
 Alpha virt. eigenvalues --    3.31928   3.32160   3.39884   3.41717   3.42126
 Alpha virt. eigenvalues --    3.42899   3.45532   3.45914   3.48754   3.49389
 Alpha virt. eigenvalues --    3.50644   3.51220   3.53296   3.55476   3.55722
 Alpha virt. eigenvalues --    3.56080   3.56203   3.66109   3.66782   3.67694
 Alpha virt. eigenvalues --    3.67908   3.68850   5.63823   5.64073   5.64239
 Alpha virt. eigenvalues --    5.64826   5.68032   5.68517   5.69031
          Condensed to atoms (all electrons):
 Mulliken charges:
               1
     1  Ni   0.313483
     2  P    0.348231
     3  O   -0.347471
     4  O   -0.357095
     5  O   -0.344824
     6  O   -0.424131
     7  O   -0.420680
     8  C    0.197203
     9  C    0.260320
    10  C   -0.233696
    11  C   -0.133536
    12  C   -0.079248
    13  C   -0.146139
    14  C    0.134555
    15  H    0.061934
    16  H    0.085269
    17  H    0.066676
    18  C    0.114544
    19  H    0.061949
    20  H    0.045165
    21  H    0.060858
    22  C   -0.115751
    23  H    0.010382
    24  C   -0.070703
    25  H   -0.030601
    26  C    0.074533
    27  C    0.116302
    28  H    0.068859
    29  H    0.059422
    30  H    0.049947
    31  C    0.110686
    32  H    0.057301
    33  H    0.066960
    34  H    0.055626
    35  C    0.154182
    36  C   -0.096498
    37  H    0.011285
    38  C   -0.038626
    39  H    0.035248
    40  C   -0.080309
    41  H   -0.047775
    42  C   -0.028789
    43  H    0.031973
    44  C   -0.103683
    45  H    0.012562
    46  C    0.173484
    47  C    0.215860
    48  C   -0.085379
    49  H    0.014075
    50  C    0.058574
    51  C   -0.030813
    52  C    0.023951
    53  C   -0.029853
    54  C    0.084283
    55  N   -0.208014
    56  H    0.062262
    57  H    0.078161
    58  H    0.057808
    59  H    0.056354
    60  H    0.060707
    61  C   -0.230780
    62  H    0.030737
    63  H    0.025820
    64  Si   0.298418
    65  C   -0.264021
    66  H    0.056301
    67  H    0.058414
    68  H    0.041695
    69  C   -0.274111
    70  H    0.062571
    71  H    0.055008
    72  H    0.055522
    73  C   -0.237487
    74  H    0.048194
    75  H    0.039972
    76  H    0.054409
    77  C   -0.277796
    78  C    0.023581
    79  H    0.029284
    80  H    0.024604
    81  H    0.027671
    82  C    0.001786
    83  H    0.027902
    84  H    0.021532
    85  H    0.027361
    86  C   -0.006774
    87  H    0.038046
    88  H    0.027078
    89  H    0.028103
    90  P    0.432629
    91  C   -0.066298
    92  C    0.090144
    93  C    0.144809
    94  C   -0.038459
    95  C   -0.092823
    96  C   -0.051222
    97  H   -0.000315
    98  H    0.009013
    99  H    0.027410
   100  C   -0.190312
   101  C    0.158513
   102  C    0.181765
   103  C   -0.114368
   104  C   -0.094633
   105  C   -0.034311
   106  H    0.007234
   107  H    0.006047
   108  H    0.031328
   109  O   -0.335642
   110  O   -0.344182
   111  O   -0.356702
   112  O   -0.380792
   113  C    0.117502
   114  H    0.052643
   115  H    0.065925
   116  H    0.047713
   117  C    0.115195
   118  H    0.056196
   119  H    0.046421
   120  H    0.055264
   121  C    0.116760
   122  H    0.060629
   123  H    0.055931
   124  H    0.041495
   125  C    0.169215
   126  H    0.028221
   127  H    0.035689
   128  H    0.035969
 Sum of Mulliken charges =  -0.00000
 Mulliken charges with hydrogens summed into heavy atoms:
               1
     1  Ni   0.313483
     2  P    0.348231
     3  O   -0.347471
     4  O   -0.357095
     5  O   -0.344824
     6  O   -0.424131
     7  O   -0.420680
     8  C    0.197203
     9  C    0.260320
    10  C   -0.233696
    11  C   -0.133536
    12  C   -0.079248
    13  C   -0.146139
    14  C    0.348434
    18  C    0.282516
    22  C   -0.105368
    24  C   -0.101304
    26  C    0.074533
    27  C    0.294529
    31  C    0.290573
    35  C    0.154182
    36  C   -0.085213
    38  C   -0.003378
    40  C   -0.128084
    42  C    0.003184
    44  C   -0.091121
    46  C    0.173484
    47  C    0.215860
    48  C   -0.071304
    50  C    0.136735
    51  C    0.026995
    52  C    0.086213
    53  C    0.026501
    54  C    0.144990
    55  N   -0.208014
    61  C   -0.174223
    64  Si   0.298418
    65  C   -0.107611
    69  C   -0.101008
    73  C   -0.094912
    77  C   -0.277796
    78  C    0.105140
    82  C    0.078581
    86  C    0.086454
    90  P    0.432629
    91  C   -0.066298
    92  C    0.090144
    93  C    0.144809
    94  C   -0.038774
    95  C   -0.083810
    96  C   -0.023812
   100  C   -0.190312
   101  C    0.158513
   102  C    0.181765
   103  C   -0.107134
   104  C   -0.088586
   105  C   -0.002983
   109  O   -0.335642
   110  O   -0.344182
   111  O   -0.356702
   112  O   -0.380792
   113  C    0.283783
   117  C    0.273076
   121  C    0.274814
   125  C    0.269094
 Electronic spatial extent (au):  <R**2>=          46327.0794
 Charge=             -0.0000 electrons
 Dipole moment (field-independent basis, Debye):
    X=             -3.0296    Y=             -1.9952    Z=             -7.6863  Tot=              8.4994
 Quadrupole moment (field-independent basis, Debye-Ang):
   XX=           -345.2493   YY=           -353.0758   ZZ=           -373.2931
   XY=              4.5248   XZ=             24.5369   YZ=              1.7017
 Traceless Quadrupole moment (field-independent basis, Debye-Ang):
   XX=             11.9568   YY=              4.1303   ZZ=            -16.0871
   XY=              4.5248   XZ=             24.5369   YZ=              1.7017
 Octapole moment (field-independent basis, Debye-Ang**2):
  XXX=            126.6893  YYY=           -247.6016  ZZZ=            -54.1869  XYY=           -190.7648
  XXY=            -90.8976  XXZ=            -94.6388  XZZ=             55.5170  YZZ=             31.5851
  YYZ=            -59.5191  XYZ=            -32.3869
 Hexadecapole moment (field-independent basis, Debye-Ang**3):
 XXXX=         -30378.0599 YYYY=         -14998.6527 ZZZZ=         -11251.8928 XXXY=           -318.5934
 XXXZ=           1020.5477 YYYX=            442.3621 YYYZ=            -79.3175 ZZZX=            624.9420
 ZZZY=            -74.7793 XXYY=          -7267.4797 XXZZ=          -6962.6065 YYZZ=          -4485.8833
 XXYZ=            -44.7326 YYXZ=            170.9811 ZZXY=           -346.1571
 N-N= 1.354482187329D+04 E-N=-3.931353779598D+04  KE= 5.154523960691D+03
 ******************************Gaussian NBO Version 3.1******************************
             N A T U R A L   A T O M I C   O R B I T A L   A N D
          N A T U R A L   B O N D   O R B I T A L   A N A L Y S I S
 ******************************Gaussian NBO Version 3.1******************************

       /RESON  / : Allow strongly delocalized NBO set
       /BNDIDX / : Print bond indices based on the NAO density matrix

 Analyzing the SCF density

 Job title: Gaussian job                                                    

 Storage needed:   4768082 in NPA,   6310241 in NBO (6710803200 available)
 GSVD:  LWork=     1035876 too small for GESVD, short by       32760 words or       32760 for optimal perf.


 NATURAL POPULATIONS:  Natural atomic orbital occupancies 
                                                          
   NAO  Atom  No  lang   Type(AO)    Occupancy      Energy
 ----------------------------------------------------------
     1   Ni    1  S      Cor( 1S)     2.00000    -264.58134
     2   Ni    1  S      Cor( 2S)     1.99999     -69.67466
     3   Ni    1  S      Cor( 3S)     1.99562      -5.74080
     4   Ni    1  S      Val( 4S)     0.27261       0.16096
     5   Ni    1  S      Ryd( 5S)     0.00341       0.44013
     6   Ni    1  px     Cor( 2p)     1.99999     -31.18726
     7   Ni    1  px     Cor( 3p)     1.99902      -2.68528
     8   Ni    1  px     Val( 4p)     0.16253       0.29816
     9   Ni    1  py     Cor( 2p)     1.99999     -31.19070
    10   Ni    1  py     Cor( 3p)     1.99858      -2.68937
    11   Ni    1  py     Val( 4p)     0.19474       0.31941
    12   Ni    1  pz     Cor( 2p)     1.99999     -31.21775
    13   Ni    1  pz     Cor( 3p)     1.99645      -2.71675
    14   Ni    1  pz     Val( 4p)     0.14976       0.38716
    15   Ni    1  dxy    Val( 3d)     1.86750      -0.20156
    16   Ni    1  dxy    Ryd( 4d)     0.00019       1.63055
    17   Ni    1  dxz    Val( 3d)     1.93459      -0.23052
    18   Ni    1  dxz    Ryd( 4d)     0.00023       1.44569
    19   Ni    1  dyz    Val( 3d)     1.95269      -0.23815
    20   Ni    1  dyz    Ryd( 4d)     0.00012       1.50631
    21   Ni    1  dx2y2  Val( 3d)     1.91324      -0.20681
    22   Ni    1  dx2y2  Ryd( 4d)     0.00034       1.69298
    23   Ni    1  dz2    Val( 3d)     1.02970      -0.14586
    24   Ni    1  dz2    Ryd( 4d)     0.00031       1.72658
    25   Ni    1  f(0)   Ryd( 4f)     0.00003       5.66019
    26   Ni    1  f(C1)  Ryd( 4f)     0.00003       5.64506
    27   Ni    1  f(S1)  Ryd( 4f)     0.00002       5.63647
    28   Ni    1  f(C2)  Ryd( 4f)     0.00000       5.64193
    29   Ni    1  f(S2)  Ryd( 4f)     0.00001       5.64170
    30   Ni    1  f(C3)  Ryd( 4f)     0.00002       5.68159
    31   Ni    1  f(S3)  Ryd( 4f)     0.00001       5.67822

    32    P    2  S      Cor( 1S)     1.99999     -76.33192
    33    P    2  S      Cor( 2S)     1.99842      -7.32158
    34    P    2  S      Val( 3S)     1.22130      -0.38881
    35    P    2  S      Ryd( 4S)     0.00719       0.76944
    36    P    2  px     Cor( 2p)     1.99972      -4.77217
    37    P    2  px     Val( 3p)     0.79954      -0.03946
    38    P    2  px     Ryd( 4p)     0.00900       0.85933
    39    P    2  py     Cor( 2p)     1.99954      -4.77046
    40    P    2  py     Val( 3p)     1.20685      -0.08910
    41    P    2  py     Ryd( 4p)     0.00897       1.07838
    42    P    2  pz     Cor( 2p)     1.99974      -4.77367
    43    P    2  pz     Val( 3p)     0.78547      -0.05092
    44    P    2  pz     Ryd( 4p)     0.00784       0.84901
    45    P    2  dxy    Ryd( 3d)     0.00631       1.16507
    46    P    2  dxz    Ryd( 3d)     0.00564       0.95614
    47    P    2  dyz    Ryd( 3d)     0.00242       1.08235
    48    P    2  dx2y2  Ryd( 3d)     0.00505       1.10861
    49    P    2  dz2    Ryd( 3d)     0.00700       1.28101

    50    O    3  S      Cor( 1S)     1.99961     -19.02886
    51    O    3  S      Val( 2S)     1.56260      -0.85239
    52    O    3  S      Ryd( 3S)     0.00085       1.65749
    53    O    3  px     Val( 2p)     1.66349      -0.32507
    54    O    3  px     Ryd( 3p)     0.00195       1.31662
    55    O    3  py     Val( 2p)     1.74957      -0.33708
    56    O    3  py     Ryd( 3p)     0.00221       1.29265
    57    O    3  pz     Val( 2p)     1.58064      -0.32166
    58    O    3  pz     Ryd( 3p)     0.00153       1.48545
    59    O    3  dxy    Ryd( 3d)     0.00101       2.91083
    60    O    3  dxz    Ryd( 3d)     0.00060       3.08091
    61    O    3  dyz    Ryd( 3d)     0.00099       3.00764
    62    O    3  dx2y2  Ryd( 3d)     0.00121       2.81354
    63    O    3  dz2    Ryd( 3d)     0.00051       2.83138

    64    O    4  S      Cor( 1S)     1.99961     -19.03264
    65    O    4  S      Val( 2S)     1.56386      -0.85793
    66    O    4  S      Ryd( 3S)     0.00083       1.64891
    67    O    4  px     Val( 2p)     1.73929      -0.32909
    68    O    4  px     Ryd( 3p)     0.00238       1.42474
    69    O    4  py     Val( 2p)     1.75704      -0.34335
    70    O    4  py     Ryd( 3p)     0.00238       1.20727
    71    O    4  pz     Val( 2p)     1.50054      -0.32578
    72    O    4  pz     Ryd( 3p)     0.00121       1.40995
    73    O    4  dxy    Ryd( 3d)     0.00102       2.83990
    74    O    4  dxz    Ryd( 3d)     0.00057       2.99559
    75    O    4  dyz    Ryd( 3d)     0.00090       3.10564
    76    O    4  dx2y2  Ryd( 3d)     0.00108       2.78321
    77    O    4  dz2    Ryd( 3d)     0.00068       2.89454

    78    O    5  S      Cor( 1S)     1.99961     -19.03533
    79    O    5  S      Val( 2S)     1.56351      -0.85979
    80    O    5  S      Ryd( 3S)     0.00085       1.68183
    81    O    5  px     Val( 2p)     1.81640      -0.32898
    82    O    5  px     Ryd( 3p)     0.00249       1.21803
    83    O    5  py     Val( 2p)     1.40878      -0.32741
    84    O    5  py     Ryd( 3p)     0.00086       1.52330
    85    O    5  pz     Val( 2p)     1.76260      -0.34727
    86    O    5  pz     Ryd( 3p)     0.00294       1.38013
    87    O    5  dxy    Ryd( 3d)     0.00033       2.80976
    88    O    5  dxz    Ryd( 3d)     0.00120       2.72340
    89    O    5  dyz    Ryd( 3d)     0.00108       3.21051
    90    O    5  dx2y2  Ryd( 3d)     0.00044       3.05485
    91    O    5  dz2    Ryd( 3d)     0.00128       2.82444

    92    O    6  S      Cor( 1S)     1.99962     -19.06186
    93    O    6  S      Val( 2S)     1.54989      -0.88508
    94    O    6  S      Ryd( 3S)     0.00052       1.69325
    95    O    6  px     Val( 2p)     1.77138      -0.35351
    96    O    6  px     Ryd( 3p)     0.00183       1.25173
    97    O    6  py     Val( 2p)     1.50691      -0.35476
    98    O    6  py     Ryd( 3p)     0.00112       1.48387
    99    O    6  pz     Val( 2p)     1.71700      -0.37014
   100    O    6  pz     Ryd( 3p)     0.00159       1.60668
   101    O    6  dxy    Ryd( 3d)     0.00052       2.91583
   102    O    6  dxz    Ryd( 3d)     0.00080       2.73883
   103    O    6  dyz    Ryd( 3d)     0.00084       3.07781
   104    O    6  dx2y2  Ryd( 3d)     0.00041       2.87467
   105    O    6  dz2    Ryd( 3d)     0.00060       2.84451

   106    O    7  S      Cor( 1S)     1.99971     -18.91177
   107    O    7  S      Val( 2S)     1.65138      -0.81948
   108    O    7  S      Ryd( 3S)     0.00065       1.76388
   109    O    7  px     Val( 2p)     1.76307      -0.23747
   110    O    7  px     Ryd( 3p)     0.00212       1.62241
   111    O    7  py     Val( 2p)     1.59284      -0.25899
   112    O    7  py     Ryd( 3p)     0.00097       1.33815
   113    O    7  pz     Val( 2p)     1.70966      -0.22604
   114    O    7  pz     Ryd( 3p)     0.00189       1.24378
   115    O    7  dxy    Ryd( 3d)     0.00101       3.06020
   116    O    7  dxz    Ryd( 3d)     0.00007       2.75900
   117    O    7  dyz    Ryd( 3d)     0.00143       2.87789
   118    O    7  dx2y2  Ryd( 3d)     0.00075       3.26943
   119    O    7  dz2    Ryd( 3d)     0.00026       2.97827

   120    C    8  S      Cor( 1S)     1.99855     -10.18249
   121    C    8  S      Val( 2S)     0.77706      -0.07523
   122    C    8  S      Ryd( 3S)     0.00262       0.64231
   123    C    8  px     Val( 2p)     1.05198      -0.06854
   124    C    8  px     Ryd( 3p)     0.00379       0.83260
   125    C    8  py     Val( 2p)     0.94210      -0.06399
   126    C    8  py     Ryd( 3p)     0.00599       0.73307
   127    C    8  pz     Val( 2p)     0.81848      -0.04419
   128    C    8  pz     Ryd( 3p)     0.00717       0.81700
   129    C    8  dxy    Ryd( 3d)     0.00110       2.24739
   130    C    8  dxz    Ryd( 3d)     0.00143       2.25894
   131    C    8  dyz    Ryd( 3d)     0.00159       2.23807
   132    C    8  dx2y2  Ryd( 3d)     0.00109       2.10693
   133    C    8  dz2    Ryd( 3d)     0.00189       2.10753

   134    C    9  S      Cor( 1S)     1.99860     -10.13846
   135    C    9  S      Val( 2S)     0.75473      -0.01809
   136    C    9  S      Ryd( 3S)     0.00254       0.74212
   137    C    9  px     Val( 2p)     1.05569      -0.00963
   138    C    9  px     Ryd( 3p)     0.00496       0.97530
   139    C    9  py     Val( 2p)     0.82777       0.03041
   140    C    9  py     Ryd( 3p)     0.01756       0.85884
   141    C    9  pz     Val( 2p)     0.87920      -0.05759
   142    C    9  pz     Ryd( 3p)     0.00230       0.69688
   143    C    9  dxy    Ryd( 3d)     0.00250       2.48536
   144    C    9  dxz    Ryd( 3d)     0.00064       1.96605
   145    C    9  dyz    Ryd( 3d)     0.00320       1.99823
   146    C    9  dx2y2  Ryd( 3d)     0.00199       2.48262
   147    C    9  dz2    Ryd( 3d)     0.00068       2.27248

   148    C   10  S      Cor( 1S)     1.99881     -10.07615
   149    C   10  S      Val( 2S)     0.93827      -0.12974
   150    C   10  S      Ryd( 3S)     0.00548       0.72230
   151    C   10  px     Val( 2p)     1.14284      -0.07084
   152    C   10  px     Ryd( 3p)     0.00769       0.95594
   153    C   10  py     Val( 2p)     1.16472      -0.07816
   154    C   10  py     Ryd( 3p)     0.00770       0.99831
   155    C   10  pz     Val( 2p)     1.12506      -0.09040
   156    C   10  pz     Ryd( 3p)     0.00358       0.75904
   157    C   10  dxy    Ryd( 3d)     0.00086       2.33982
   158    C   10  dxz    Ryd( 3d)     0.00037       1.95117
   159    C   10  dyz    Ryd( 3d)     0.00059       1.95685
   160    C   10  dx2y2  Ryd( 3d)     0.00073       2.45560
   161    C   10  dz2    Ryd( 3d)     0.00043       2.24579

   162    C   11  S      Cor( 1S)     1.99875     -10.10623
   163    C   11  S      Val( 2S)     0.93175      -0.15798
   164    C   11  S      Ryd( 3S)     0.00505       0.66872
   165    C   11  px     Val( 2p)     1.16483      -0.11575
   166    C   11  px     Ryd( 3p)     0.00691       0.93442
   167    C   11  py     Val( 2p)     1.16318      -0.12860
   168    C   11  py     Ryd( 3p)     0.00636       0.86910
   169    C   11  pz     Val( 2p)     1.12755      -0.09317
   170    C   11  pz     Ryd( 3p)     0.00568       0.89011
   171    C   11  dxy    Ryd( 3d)     0.00063       2.13127
   172    C   11  dxz    Ryd( 3d)     0.00051       2.24391
   173    C   11  dyz    Ryd( 3d)     0.00045       2.19566
   174    C   11  dx2y2  Ryd( 3d)     0.00064       2.07080
   175    C   11  dz2    Ryd( 3d)     0.00060       2.21256

   176    C   12  S      Cor( 1S)     1.99874     -10.11312
   177    C   12  S      Val( 2S)     0.93304      -0.16095
   178    C   12  S      Ryd( 3S)     0.00664       0.72195
   179    C   12  px     Val( 2p)     1.11808      -0.11856
   180    C   12  px     Ryd( 3p)     0.00266       0.75040
   181    C   12  py     Val( 2p)     1.10047      -0.08187
   182    C   12  py     Ryd( 3p)     0.00684       0.88903
   183    C   12  pz     Val( 2p)     1.20304      -0.13842
   184    C   12  pz     Ryd( 3p)     0.01227       1.03495
   185    C   12  dxy    Ryd( 3d)     0.00044       2.02074
   186    C   12  dxz    Ryd( 3d)     0.00053       1.94075
   187    C   12  dyz    Ryd( 3d)     0.00076       2.42940
   188    C   12  dx2y2  Ryd( 3d)     0.00044       2.25637
   189    C   12  dz2    Ryd( 3d)     0.00061       2.19977

   190    C   13  S      Cor( 1S)     1.99878     -10.07611
   191    C   13  S      Val( 2S)     0.92828      -0.12935
   192    C   13  S      Ryd( 3S)     0.00630       0.76570
   193    C   13  px     Val( 2p)     1.16296      -0.10402
   194    C   13  px     Ryd( 3p)     0.00955       1.06515
   195    C   13  py     Val( 2p)     1.12737      -0.04778
   196    C   13  py     Ryd( 3p)     0.00587       0.99075
   197    C   13  pz     Val( 2p)     1.18293      -0.09555
   198    C   13  pz     Ryd( 3p)     0.00374       0.77050
   199    C   13  dxy    Ryd( 3d)     0.00083       2.44757
   200    C   13  dxz    Ryd( 3d)     0.00039       1.95747
   201    C   13  dyz    Ryd( 3d)     0.00047       1.99950
   202    C   13  dx2y2  Ryd( 3d)     0.00071       2.36114
   203    C   13  dz2    Ryd( 3d)     0.00048       2.22503

   204    C   14  S      Cor( 1S)     1.99916     -10.19464
   205    C   14  S      Val( 2S)     1.08399      -0.25863
   206    C   14  S      Ryd( 3S)     0.00154       0.83635
   207    C   14  px     Val( 2p)     1.05473      -0.08444
   208    C   14  px     Ryd( 3p)     0.00213       0.61576
   209    C   14  py     Val( 2p)     0.90768      -0.07364
   210    C   14  py     Ryd( 3p)     0.00317       0.62416
   211    C   14  pz     Val( 2p)     1.18811      -0.10460
   212    C   14  pz     Ryd( 3p)     0.00319       0.69788
   213    C   14  dxy    Ryd( 3d)     0.00132       2.26229
   214    C   14  dxz    Ryd( 3d)     0.00050       2.25723
   215    C   14  dyz    Ryd( 3d)     0.00090       2.33504
   216    C   14  dx2y2  Ryd( 3d)     0.00100       2.11533
   217    C   14  dz2    Ryd( 3d)     0.00052       2.16384

   218    H   15  S      Val( 1S)     0.80022       0.03485
   219    H   15  S      Ryd( 2S)     0.00174       0.36117
   220    H   15  px     Ryd( 2p)     0.00030       1.88476
   221    H   15  py     Ryd( 2p)     0.00027       1.95633
   222    H   15  pz     Ryd( 2p)     0.00038       2.05612

   223    H   16  S      Val( 1S)     0.77550       0.05128
   224    H   16  S      Ryd( 2S)     0.00184       0.47242
   225    H   16  px     Ryd( 2p)     0.00028       1.77987
   226    H   16  py     Ryd( 2p)     0.00027       1.94958
   227    H   16  pz     Ryd( 2p)     0.00045       2.16367

   228    H   17  S      Val( 1S)     0.78176       0.05257
   229    H   17  S      Ryd( 2S)     0.00356       0.57267
   230    H   17  px     Ryd( 2p)     0.00045       2.27045
   231    H   17  py     Ryd( 2p)     0.00026       1.79647
   232    H   17  pz     Ryd( 2p)     0.00028       1.89520

   233    C   18  S      Cor( 1S)     1.99919     -10.19614
   234    C   18  S      Val( 2S)     1.07899      -0.25444
   235    C   18  S      Ryd( 3S)     0.00169       0.80475
   236    C   18  px     Val( 2p)     1.02618      -0.08038
   237    C   18  px     Ryd( 3p)     0.00225       0.59055
   238    C   18  py     Val( 2p)     1.17294      -0.09722
   239    C   18  py     Ryd( 3p)     0.00258       0.60065
   240    C   18  pz     Val( 2p)     0.95800      -0.08008
   241    C   18  pz     Ryd( 3p)     0.00305       0.63712
   242    C   18  dxy    Ryd( 3d)     0.00059       2.09415
   243    C   18  dxz    Ryd( 3d)     0.00130       2.17685
   244    C   18  dyz    Ryd( 3d)     0.00092       2.27148
   245    C   18  dx2y2  Ryd( 3d)     0.00085       2.34091
   246    C   18  dz2    Ryd( 3d)     0.00110       2.15547

   247    H   19  S      Val( 1S)     0.78370       0.04638
   248    H   19  S      Ryd( 2S)     0.00102       0.32639
   249    H   19  px     Ryd( 2p)     0.00022       1.74245
   250    H   19  py     Ryd( 2p)     0.00036       1.93406
   251    H   19  pz     Ryd( 2p)     0.00035       2.11467

   252    H   20  S      Val( 1S)     0.80676       0.02972
   253    H   20  S      Ryd( 2S)     0.00273       0.42926
   254    H   20  px     Ryd( 2p)     0.00025       1.75290
   255    H   20  py     Ryd( 2p)     0.00051       2.31528
   256    H   20  pz     Ryd( 2p)     0.00021       1.78164

   257    H   21  S      Val( 1S)     0.80307       0.03530
   258    H   21  S      Ryd( 2S)     0.00211       0.34920
   259    H   21  px     Ryd( 2p)     0.00045       2.31032
   260    H   21  py     Ryd( 2p)     0.00030       1.75713
   261    H   21  pz     Ryd( 2p)     0.00023       1.76157

   262    C   22  S      Cor( 1S)     1.99885     -10.10451
   263    C   22  S      Val( 2S)     0.93351      -0.12835
   264    C   22  S      Ryd( 3S)     0.00172       0.56001
   265    C   22  px     Val( 2p)     1.16469      -0.07664
   266    C   22  px     Ryd( 3p)     0.00390       0.86996
   267    C   22  py     Val( 2p)     1.10482      -0.07645
   268    C   22  py     Ryd( 3p)     0.00286       0.65569
   269    C   22  pz     Val( 2p)     1.13544      -0.07127
   270    C   22  pz     Ryd( 3p)     0.00336       0.80577
   271    C   22  dxy    Ryd( 3d)     0.00042       2.25048
   272    C   22  dxz    Ryd( 3d)     0.00046       2.26765
   273    C   22  dyz    Ryd( 3d)     0.00038       2.26932
   274    C   22  dx2y2  Ryd( 3d)     0.00044       2.09930
   275    C   22  dz2    Ryd( 3d)     0.00043       2.15899

   276    H   23  S      Val( 1S)     0.75737       0.06747
   277    H   23  S      Ryd( 2S)     0.00158       0.36033
   278    H   23  px     Ryd( 2p)     0.00046       2.16472
   279    H   23  py     Ryd( 2p)     0.00019       1.85936
   280    H   23  pz     Ryd( 2p)     0.00029       2.03476

   281    C   24  S      Cor( 1S)     1.99884     -10.07795
   282    C   24  S      Val( 2S)     0.90162      -0.08207
   283    C   24  S      Ryd( 3S)     0.00242       0.65337
   284    C   24  px     Val( 2p)     1.19234      -0.04097
   285    C   24  px     Ryd( 3p)     0.00718       1.07902
   286    C   24  py     Val( 2p)     1.10446      -0.01803
   287    C   24  py     Ryd( 3p)     0.00386       0.86529
   288    C   24  pz     Val( 2p)     0.99064      -0.07608
   289    C   24  pz     Ryd( 3p)     0.00163       0.67455
   290    C   24  dxy    Ryd( 3d)     0.00050       2.48775
   291    C   24  dxz    Ryd( 3d)     0.00031       1.97080
   292    C   24  dyz    Ryd( 3d)     0.00072       1.99894
   293    C   24  dx2y2  Ryd( 3d)     0.00051       2.54327
   294    C   24  dz2    Ryd( 3d)     0.00036       2.24338

   295    H   25  S      Val( 1S)     0.77463       0.08473
   296    H   25  S      Ryd( 2S)     0.00312       0.59175
   297    H   25  px     Ryd( 2p)     0.00060       2.46017
   298    H   25  py     Ryd( 2p)     0.00018       2.11207
   299    H   25  pz     Ryd( 2p)     0.00024       1.75900

   300    C   26  S      Cor( 1S)     1.99878     -10.07266
   301    C   26  S      Val( 2S)     0.82213      -0.04482
   302    C   26  S      Ryd( 3S)     0.00324       0.66799
   303    C   26  px     Val( 2p)     1.09770      -0.02446
   304    C   26  px     Ryd( 3p)     0.00552       1.00329
   305    C   26  py     Val( 2p)     1.07464      -0.02107
   306    C   26  py     Ryd( 3p)     0.00563       1.16141
   307    C   26  pz     Val( 2p)     1.09313      -0.07093
   308    C   26  pz     Ryd( 3p)     0.00559       0.72436
   309    C   26  dxy    Ryd( 3d)     0.00074       2.50400
   310    C   26  dxz    Ryd( 3d)     0.00056       2.01352
   311    C   26  dyz    Ryd( 3d)     0.00054       1.99256
   312    C   26  dx2y2  Ryd( 3d)     0.00068       2.44006
   313    C   26  dz2    Ryd( 3d)     0.00037       2.22872

   314    C   27  S      Cor( 1S)     1.99919     -10.19021
   315    C   27  S      Val( 2S)     1.08026      -0.24865
   316    C   27  S      Ryd( 3S)     0.00164       0.81626
   317    C   27  px     Val( 2p)     1.15135      -0.09314
   318    C   27  px     Ryd( 3p)     0.00238       0.67835
   319    C   27  py     Val( 2p)     1.06996      -0.07929
   320    C   27  py     Ryd( 3p)     0.00298       0.60407
   321    C   27  pz     Val( 2p)     0.93460      -0.06631
   322    C   27  pz     Ryd( 3p)     0.00222       0.58899
   323    C   27  dxy    Ryd( 3d)     0.00070       2.20774
   324    C   27  dxz    Ryd( 3d)     0.00106       2.30460
   325    C   27  dyz    Ryd( 3d)     0.00120       2.21222
   326    C   27  dx2y2  Ryd( 3d)     0.00058       2.23196
   327    C   27  dz2    Ryd( 3d)     0.00120       2.14039

   328    H   28  S      Val( 1S)     0.77804       0.05662
   329    H   28  S      Ryd( 2S)     0.00100       0.34364
   330    H   28  px     Ryd( 2p)     0.00045       2.18372
   331    H   28  py     Ryd( 2p)     0.00028       1.86093
   332    H   28  pz     Ryd( 2p)     0.00019       1.80401

   333    H   29  S      Val( 1S)     0.80595       0.03908
   334    H   29  S      Ryd( 2S)     0.00213       0.39418
   335    H   29  px     Ryd( 2p)     0.00038       1.99711
   336    H   29  py     Ryd( 2p)     0.00026       1.75334
   337    H   29  pz     Ryd( 2p)     0.00033       2.10826

   338    H   30  S      Val( 1S)     0.80539       0.03832
   339    H   30  S      Ryd( 2S)     0.00231       0.46623
   340    H   30  px     Ryd( 2p)     0.00029       1.81139
   341    H   30  py     Ryd( 2p)     0.00045       2.30130
   342    H   30  pz     Ryd( 2p)     0.00022       1.77155

   343    C   31  S      Cor( 1S)     1.99919     -10.19664
   344    C   31  S      Val( 2S)     1.08017      -0.25581
   345    C   31  S      Ryd( 3S)     0.00170       0.78785
   346    C   31  px     Val( 2p)     1.21192      -0.10222
   347    C   31  px     Ryd( 3p)     0.00061       0.59545
   348    C   31  py     Val( 2p)     0.85225      -0.06912
   349    C   31  py     Ryd( 3p)     0.00346       0.62018
   350    C   31  pz     Val( 2p)     1.09363      -0.08912
   351    C   31  pz     Ryd( 3p)     0.00353       0.61737
[...]
  1220. BD*(   2) C  94 - C  96          0.35946     0.04923  1212(v),1217(v),901(g)
                                                    884(g),883(g),892(v)
  1221. BD*(   1) C  94 - H  97          0.01494     0.43954   
  1222. BD*(   1) C  95 - C  96          0.01757     0.60083   
  1223. BD*(   1) C  95 - H  98          0.01516     0.44256   
  1224. BD*(   1) C  96 - H  99          0.01540     0.44456   
  1225. BD*(   1) C 100 - C 101          0.03121     0.58202   
  1226. BD*(   1) C 100 - C 102          0.03563     0.58209   
  1227. BD*(   2) C 100 - C 102          0.41824     0.03654  1229(v),1236(v),942(g)
                                                    1127(v),923(g),1209(v)
                                                    922(g),958(v),941(g),1212(r)
  1228. BD*(   1) C 101 - C 103          0.03317     0.58143   
  1229. BD*(   2) C 101 - C 103          0.41383     0.04106  1227(v),1236(v),949(g)
                                                    934(g),932(g),968(v)
  1230. BD*(   1) C 101 - O 109          0.03370     0.40251   
  1231. BD*(   1) C 102 - C 104          0.03402     0.58159   
  1232. BD*(   1) C 102 - O 110          0.03493     0.40164   
  1233. BD*(   1) C 103 - C 105          0.01769     0.60772   
  1234. BD*(   1) C 103 - H 106          0.01514     0.44501   
  1235. BD*(   1) C 104 - C 105          0.01778     0.60782   
  1236. BD*(   2) C 104 - C 105          0.37448     0.04581  1229(v),1227(v),958(g)
                                                    968(g),949(v),967(g)
  1237. BD*(   1) C 104 - H 107          0.01548     0.44414   
  1238. BD*(   1) C 105 - H 108          0.01517     0.44281   
  1239. BD*(   1) O 109 - C 113          0.00904     0.32888   
  1240. BD*(   1) O 110 - C 117          0.00931     0.32661   
  1241. BD*(   1) O 111 - C 121          0.00934     0.32936   
  1242. BD*(   1) O 112 - C 125          0.00928     0.33748   
  1243. BD*(   1) C 113 - H 114          0.02057     0.40562   
  1244. BD*(   1) C 113 - H 115          0.00965     0.42505   
  1245. BD*(   1) C 113 - H 116          0.02049     0.40414   
  1246. BD*(   1) C 117 - H 118          0.02149     0.40486   
  1247. BD*(   1) C 117 - H 119          0.01991     0.40089   
  1248. BD*(   1) C 117 - H 120          0.01072     0.42111   
  1249. BD*(   1) C 121 - H 122          0.01049     0.42145   
  1250. BD*(   1) C 121 - H 123          0.02183     0.40696   
  1251. BD*(   1) C 121 - H 124          0.01964     0.40168   
  1252. BD*(   1) C 125 - H 126          0.02158     0.41111   
  1253. BD*(   1) C 125 - H 127          0.01106     0.43987   
  1254. BD*(   1) C 125 - H 128          0.02231     0.42868   
       -------------------------------
              Total Lewis  392.35357  ( 97.7391%)
        Valence non-Lewis    8.24038  (  2.0528%)
        Rydberg non-Lewis    0.83564  (  0.2082%)
       -------------------------------
            Total unit  2  401.42959  (100.0000%)
           Charge unit  2   -0.42959

 Molecular unit  3  (C5H5N)
    63. BD (   1) C  50 - C  51          1.97917    -0.72506  1172(g),1176(v),1170(g)
                                                    1173(g),1171(g),629(v)
                                                    655(v),240(r),628(v),239(r)
                                                    727(r)
    64. BD (   2) C  50 - C  51          1.62590    -0.27745  1175(v),1180(v),632(v)
                                                    657(v),622(g),1190(r)
                                                    1135(r),727(r),1189(r)
                                                    242(r)
    65. BD (   1) C  50 - N  55          1.98167    -0.85250  240(r),1179(g),1168(g)
                                                    1181(v),647(v),1173(v)
                                                    620(v),239(r),242(r),241(r)
    66. BD (   1) C  50 - H  57          1.97975    -0.52530  1179(v),1172(v),1168(g)
                                                    619(v),239(r),240(r)
    67. BD (   1) C  51 - C  52          1.97679    -0.71507  1174(g),1168(g),1178(v)
                                                    1171(v),610(v),1173(g)
                                                    1176(g),637(v),638(v)
    68. BD (   1) C  51 - H  58          1.97713    -0.52199  1170(v),1174(v),1172(g)
                                                    1168(g),628(v),611(v)
    69. BD (   1) C  52 - C  53          1.97667    -0.71471  1172(g),1177(g),1173(v)
                                                    1181(v),646(v),1178(g)
                                                    1176(g),619(v),620(v)
    70. BD (   2) C  52 - C  53          1.61813    -0.27367  1180(v),1169(v),622(v)
                                                    650(v),641(g),1190(r)
    71. BD (   1) C  52 - H  56          1.97917    -0.52517  1177(v),1168(v),1172(g)
                                                    1174(g),637(v),619(v)
    72. BD (   1) C  53 - C  54          1.97904    -0.72632  1174(g),1176(v),1179(g)
                                                    1181(g),1178(g),629(v)
                                                    656(v),240(r),628(v),239(r)
                                                    242(r),241(r)
    73. BD (   1) C  53 - H  59          1.97723    -0.52305  1179(v),1172(v),1174(g)
                                                    1177(g),628(v),647(v)
    74. BD (   1) C  54 - N  55          1.98137    -0.84966  240(r),1170(g),1177(g)
                                                    1171(v),611(v),1178(v)
                                                    638(v),239(r),242(r),241(r)
                                                    281(r),686(r)
    75. BD (   2) C  54 - N  55          1.75143    -0.34225  1169(v),1175(v),612(v)
                                                    613(v),242(r),641(v),1186(r)
                                                    241(r),1116(r),1136(r)
                                                    1184(r),1195(r),1185(r)
                                                    1190(r),709(r),1117(r)
                                                    1187(r)
    76. BD (   1) C  54 - H  60          1.97907    -0.52649  1170(v),1174(v),1177(g)
                                                    637(v),239(r),765(r),1195(r)
                                                    240(r),242(r)
   191. CR (   1) C  50                  1.99903   -10.17350  1179(v),620(v),1172(v)
                                                    668(v),1173(v),240(r),239(r)
   192. CR (   1) C  51                  1.99890   -10.13700  629(v),611(v),1174(v),672(v)
                                                    1170(v),1171(v),1176(v)
                                                    630(v)
   193. CR (   1) C  52                  1.99891   -10.14716  620(v),638(v),639(v),1177(v)
                                                    1168(v),621(v),664(v)
                                                    1173(v),1178(v)
   194. CR (   1) C  53                  1.99890   -10.13802  647(v),629(v),1172(v),676(v)
                                                    1179(v),1181(v),1176(v)
                                                    630(v)
   195. CR (   1) C  54                  1.99902   -10.17434  1170(v),638(v),1174(v)
                                                    655(v),680(v),1178(v),240(r)
                                                    239(r)
   196. CR (   1) N  55                  1.99920   -14.25559  240(r),610(v),646(v),1177(v)
                                                    1168(v),239(r),242(r),241(r)
   255. LP (   1) N  55                  1.73352    -0.38300  240(r),1106(r),239(r)
                                                    1177(v),1168(v),1181(v)
                                                    1171(v),242(r),610(v),646(v)
                                                    241(r),615(v),1107(r)
                                                    1184(r),1186(r),265(r)
                                                    1183(r),1116(r),1109(r)
                                                    276(r),686(r),1182(r)
   610. RY*(   1) C  50                  0.00672     0.84182   
   611. RY*(   2) C  50                  0.00557     0.87186   
   612. RY*(   3) C  50                  0.00237     0.68395   
   613. RY*(   4) C  50                  0.00124     1.24527   
   614. RY*(   5) C  50                  0.00090     1.34919   
   615. RY*(   6) C  50                  0.00052     2.31500   
   616. RY*(   7) C  50                  0.00012     2.18801   
   617. RY*(   8) C  50                  0.00004     1.87449   
   618. RY*(   9) C  50                  0.00001     2.19663   
   619. RY*(   1) C  51                  0.00459     1.09022   
   620. RY*(   2) C  51                  0.00247     0.64142   
   621. RY*(   3) C  51                  0.00099     0.60397   
   622. RY*(   4) C  51                  0.00057     0.93763   
   623. RY*(   5) C  51                  0.00040     1.58894   
   624. RY*(   6) C  51                  0.00010     2.38637   
   625. RY*(   7) C  51                  0.00007     2.27851   
   626. RY*(   8) C  51                  0.00001     2.13357   
   627. RY*(   9) C  51                  0.00001     1.87496   
   628. RY*(   1) C  52                  0.00551     1.09787   
   629. RY*(   2) C  52                  0.00266     0.64098   
   630. RY*(   3) C  52                  0.00076     0.66629   
   631. RY*(   4) C  52                  0.00064     1.89339   
   632. RY*(   5) C  52                  0.00041     0.63583   
   633. RY*(   6) C  52                  0.00012     2.37006   
   634. RY*(   7) C  52                  0.00005     2.18515   
   635. RY*(   8) C  52                  0.00000     2.15977   
   636. RY*(   9) C  52                  0.00000     1.80050   
   637. RY*(   1) C  53                  0.00461     1.09174   
   638. RY*(   2) C  53                  0.00249     0.63803   
   639. RY*(   3) C  53                  0.00101     0.59488   
   640. RY*(   4) C  53                  0.00064     1.09444   
   641. RY*(   5) C  53                  0.00037     1.42542   
   642. RY*(   6) C  53                  0.00010     2.38275   
   643. RY*(   7) C  53                  0.00007     2.28402   
   644. RY*(   8) C  53                  0.00001     2.13915   
   645. RY*(   9) C  53                  0.00001     1.86248   
   646. RY*(   1) C  54                  0.00647     0.87887   
   647. RY*(   2) C  54                  0.00543     0.84159   
   648. RY*(   3) C  54                  0.00226     0.90869   
   649. RY*(   4) C  54                  0.00138     1.08278   
   650. RY*(   5) C  54                  0.00092     1.29949   
   651. RY*(   6) C  54                  0.00051     2.29240   
   652. RY*(   7) C  54                  0.00010     2.19429   
   653. RY*(   8) C  54                  0.00004     1.85141   
   654. RY*(   9) C  54                  0.00001     2.17397   
   655. RY*(   1) N  55                  0.00246     1.29346   
   656. RY*(   2) N  55                  0.00210     1.44250   
   657. RY*(   3) N  55                  0.00177     1.14986   
   658. RY*(   4) N  55                  0.00059     2.33162   
   659. RY*(   5) N  55                  0.00047     1.39624   
   660. RY*(   6) N  55                  0.00033     2.87191   
   661. RY*(   7) N  55                  0.00021     2.39518   
   662. RY*(   8) N  55                  0.00016     2.11522   
   663. RY*(   9) N  55                  0.00006     2.56756   
   664. RY*(   1) H  56                  0.00168     0.30591   
   665. RY*(   2) H  56                  0.00018     1.61768   
   666. RY*(   3) H  56                  0.00013     1.91467   
   667. RY*(   4) H  56                  0.00008     2.33405   
   668. RY*(   1) H  57                  0.00171     0.39575   
   669. RY*(   2) H  57                  0.00018     1.65696   
   670. RY*(   3) H  57                  0.00010     2.26549   
   671. RY*(   4) H  57                  0.00004     2.06207   
   672. RY*(   1) H  58                  0.00164     0.31363   
   673. RY*(   2) H  58                  0.00020     1.63000   
   674. RY*(   3) H  58                  0.00013     1.92846   
   675. RY*(   4) H  58                  0.00008     2.33802   
   676. RY*(   1) H  59                  0.00164     0.31371   
   677. RY*(   2) H  59                  0.00019     1.62795   
   678. RY*(   3) H  59                  0.00013     1.92479   
   679. RY*(   4) H  59                  0.00008     2.33568   
   680. RY*(   1) H  60                  0.00353     0.41298   
   681. RY*(   2) H  60                  0.00019     1.64107   
   682. RY*(   3) H  60                  0.00012     2.25026   
   683. RY*(   4) H  60                  0.00004     2.09583   
  1168. BD*(   1) C  50 - C  51          0.02336     0.57974   
  1169. BD*(   2) C  50 - C  51          0.28016     0.02442  1175(v),1180(v),612(g)
                                                    623(g),614(g),622(g),1106(r)
                                                    1135(r)
  1170. BD*(   1) C  50 - N  55          0.02390     0.50927   
  1171. BD*(   1) C  50 - H  57          0.01898     0.41904   
  1172. BD*(   1) C  51 - C  52          0.01808     0.57447   
  1173. BD*(   1) C  51 - H  58          0.01429     0.42791   
  1174. BD*(   1) C  52 - C  53          0.01814     0.57236   
  1175. BD*(   2) C  52 - C  53          0.30357     0.02557  1169(v),1180(v),632(g)
                                                    640(g),622(v)
  1176. BD*(   1) C  52 - H  56          0.01539     0.42278   
  1177. BD*(   1) C  53 - C  54          0.02397     0.58033   
  1178. BD*(   1) C  53 - H  59          0.01432     0.42663   
  1179. BD*(   1) C  54 - N  55          0.02397     0.50497   
  1180. BD*(   2) C  54 - N  55          0.45018    -0.02017  1175(v),1169(v),648(g)
                                                    657(g),641(v),242(r),241(r)
                                                    1195(r)
  1181. BD*(   1) C  54 - H  60          0.02019     0.41571   
       -------------------------------
              Total Lewis   40.49000  ( 96.8151%)
        Valence non-Lewis    1.24852  (  2.9853%)
        Rydberg non-Lewis    0.08346  (  0.1996%)
       -------------------------------
            Total unit  3   41.82197  (100.0000%)
           Charge unit  3    0.17803
 1\1\GINC-R007\SP\RM06\def2SVP\C51H63N1Ni1O9P2Si1\XZHANGJ\05-Nov-2024\0
 \\# m06 def2svp scrf=(smd,solvent=chlorobenzene) pop=nboread\\Gaussian
  job\\0,1\Ni,0,-1.75672,-1.706764,0.310485\P,0,-2.118527,0.568289,-0.1
 25381\O,0,-2.1751,1.993987,2.424277\O,0,-4.68313,1.361317,-1.437006\O,
 0,-2.371969,2.873756,-2.180373\O,0,-1.507106,-1.738161,-1.76292\O,0,0.
 184857,-1.139326,0.379329\C,0,-4.477925,2.125873,-0.345836\C,0,0.50034
 3,0.10779,0.411541\C,0,1.869082,0.505088,0.568868\C,0,-3.312773,1.8478
 ,0.391581\C,0,-1.996635,0.572584,-1.97417\C,0,-0.441998,1.167114,0.261
 606\C,0,-0.712228,-2.826822,-2.211552\H,0,-1.265638,-3.447709,-2.93742
 4\H,0,-0.469102,-3.432542,-1.329011\H,0,0.225795,-2.460872,-2.654729\C
 ,0,-5.565625,1.800339,-2.432192\H,0,-5.417614,1.148216,-3.305752\H,0,-
 5.358076,2.845134,-2.729418\H,0,-6.62299,1.726719,-2.118344\C,0,-5.366
 263,3.127381,0.06024\H,0,-6.252948,3.36094,-0.533712\C,0,2.211054,1.84
 64,0.641819\H,0,3.267808,2.104488,0.776967\C,0,1.268569,2.888972,0.528
 877\C,0,-1.674888,2.769845,3.479276\H,0,-0.766873,2.265923,3.841951\H,
 0,-2.390612,2.851493,4.317788\H,0,-1.401878,3.787084,3.141042\C,0,-2.4
 42065,4.063199,-2.918447\H,0,-1.470416,4.320728,-3.378831\H,0,-2.72083
 ,4.858636,-2.212367\H,0,-3.207953,4.01764,-3.714194\C,0,-2.091348,1.71
 3077,-2.799079\C,0,-1.891119,1.621074,-4.181318\H,0,-1.9717,2.504122,-
 4.818592\C,0,-1.565225,0.388427,-4.742528\H,0,-1.405685,0.315668,-5.82
 2541\C,0,-0.056174,2.510609,0.317234\H,0,-0.833178,3.271677,0.187053\C
 ,0,-5.127056,3.806216,1.253252\H,0,-5.819383,4.590833,1.573186\C,0,-4.
 044396,3.47698,2.062499\H,0,-3.898835,3.978502,3.022035\C,0,-3.169606,
 2.464882,1.648847\C,0,-1.639759,-0.640956,-2.57571\C,0,-1.428206,-0.74
 6909,-3.955593\H,0,-1.161123,-1.702364,-4.410942\C,0,-2.515442,-4.4949
 65,0.597777\C,0,-3.220277,-5.659952,0.318624\C,0,-4.353452,-5.581219,-
 0.485128\C,0,-4.737529,-4.338086,-0.982052\C,0,-3.972453,-3.224151,-0.
 66138\N,0,-2.880844,-3.299662,0.11503\H,0,-4.931918,-6.478389,-0.72225
 2\H,0,-1.62136,-4.514074,1.230385\H,0,-2.877425,-6.612242,0.729431\H,0
 ,-5.62089,-4.225461,-1.614628\H,0,-4.232585,-2.227605,-1.039051\C,0,-1
 .911751,-1.657887,2.209958\H,0,-1.316905,-2.51838,2.586143\H,0,-1.3680
 37,-0.747408,2.529975\Si,0,-3.596837,-1.678599,3.021395\C,0,-4.262242,
 -3.434516,3.253847\H,0,-3.498427,-4.123701,3.656382\H,0,-5.104659,-3.4
 2298,3.969495\H,0,-4.64507,-3.866835,2.312809\C,0,-3.433154,-0.91074,4
 .741978\H,0,-2.699536,-1.455019,5.36274\H,0,-3.084959,0.135245,4.66098
 3\H,0,-4.395798,-0.904606,5.284534\C,0,-4.960877,-0.720407,2.136614\H,
 0,-4.792577,0.370025,2.167588\H,0,-5.07339,-1.013247,1.077727\H,0,-5.9
 24885,-0.917975,2.640811\C,0,1.736426,4.342767,0.5858\C,0,0.579098,5.3
 22392,0.41772\H,0,0.071215,5.198041,-0.554413\H,0,-0.180068,5.206702,1
 .211098\H,0,0.951293,6.360453,0.465685\C,0,2.743192,4.602068,-0.540376
 \H,0,3.107476,5.645218,-0.513455\H,0,3.624421,3.940969,-0.468628\H,0,2
 .278617,4.430884,-1.527998\C,0,2.406538,4.621484,1.934018\H,0,3.281144
 ,3.970757,2.101317\H,0,2.755576,5.668414,1.993046\H,0,1.7016,4.45107,2
 .76693\P,0,3.040958,-0.889346,0.775985\C,0,3.371732,-1.553183,-0.93486
 8\C,0,2.680874,-1.278361,-2.122932\C,0,4.459636,-2.450703,-1.018326\C,
 0,3.079254,-1.841303,-3.34439\C,0,4.886832,-2.986172,-2.235581\C,0,4.1
 84629,-2.678151,-3.400444\H,0,2.499911,-1.601031,-4.242884\H,0,5.74764
 9,-3.658758,-2.272625\H,0,4.501046,-3.109157,-4.355231\C,0,4.661617,-0
 .009775,1.042121\C,0,5.281854,-0.164947,2.299625\C,0,5.373016,0.687585
 ,0.045444\C,0,6.573918,0.324532,2.542495\C,0,6.671992,1.166434,0.27359
 \C,0,7.254493,0.977171,1.52098\H,0,7.048969,0.198307,3.517247\H,0,7.21
 6546,1.699562,-0.508719\H,0,8.264182,1.357059,1.706027\O,0,4.571307,-0
 .814256,3.241763\O,0,4.74542,0.883757,-1.133029\O,0,5.070174,-2.741851
 ,0.153998\O,0,1.585354,-0.470736,-2.120963\C,0,5.141352,-1.060849,4.49
 6161\H,0,5.384343,-0.127121,5.035858\H,0,4.396281,-1.615857,5.08284\H,
 0,6.057375,-1.676068,4.423307\C,0,5.493845,1.216057,-2.269499\H,0,5.91
 4336,2.237342,-2.21647\H,0,6.32024,0.4999,-2.43849\H,0,4.810032,1.1738
 26,-3.13036\C,0,6.423652,-3.098445,0.155411\H,0,6.766546,-3.066657,1.2
 00573\H,0,6.596174,-4.120403,-0.230049\H,0,7.03081,-2.387644,-0.437637
 \C,0,1.727575,0.799142,-2.706329\H,0,1.973598,0.73961,-3.785123\H,0,0.
 760913,1.317543,-2.599425\H,0,2.503642,1.392012,-2.188083\\Version=ES6
 4L-G16RevB.01\State=1-A\HF=-5189.2497072\RMSD=1.648e-09\Dipole=-1.1919
 484,-0.784972,-3.0240425\Quadrupole=8.8895851,3.0707431,-11.9603282,3.
 3641034,18.2425743,1.2651703\PG=C01 [X(C51H63N1Ni1O9P2Si1)]\\@


 LET US LEARN TO DREAM, GENTLEMEN, THEN PERHAPS WE SHALL
 DISCOVER THE TRUTH;  BUT LET US BEWARE OF PUBLISHING
 OUR DREAMS ABROAD BEFORE THEY HAVE BEEN SCRUTINIZED
 BY OUR VIGILANT INTELLECT ... LET US ALWAYS ALLOW
 THE FRUIT TO HANG UNTIL IT IS RIPE.  UNRIPE FRUIT
 BRINGS EVEN THE GROWER BUT LITTLE PROFIT; IT DAMAGES
 THE HEALTH OF THOSE WHO CONSUME IT; IT ENDANGERS
 PARTICULARLY THE YOUTH WHO CANNOT YET DISTINGUISH
 BETWEEN RIPE AND UNRIPE FRUIT.

                                  -- KEKULE, 1890
 Job cpu time:       0 days 13 hours  7 minutes 59.9 seconds.
 Elapsed time:       0 days  0 hours 12 minutes 47.0 seconds.
 File lengths (MBytes):  RWF=   1900 Int=      0 D2E=      0 Chk=     95 Scr=      1
 Normal termination of Gaussian 16 at Tue Nov  5 07:59:14 2024.
