 Entering Gaussian System, Link 0=/home/users/astar/bmsi/zhangx5/programs/g16/g16
 Input=water_mp2.com
 Output=water_mp2.log
 Initial command:
 /home/users/astar/bmsi/zhangx5/programs/g16/l1.exe "/scratch/users/astar/bmsi/zhangx5/water_mp2/Gau-44552.inp" -scrdir="/scratch/users/astar/bmsi/zhangx5/water_mp2/"
 Entering Link 1 = /home/users/astar/bmsi/zhangx5/programs/g16/l1.exe PID=     44553.
  
 Copyright (c) 1988-2017, Gaussian, Inc.  All Rights Reserved.
  
 This is part of the Gaussian(R) 16 program.  It is based on
 the Gaussian(R) 09 system (copyright 2009, Gaussian, Inc.),
 the Gaussian(R) 03 system (copyright 2003, Gaussian, Inc.),
 the Gaussian(R) 98 system (copyright 1998, Gaussian, Inc.),
 the Gaussian(R) 94 system (copyright 1995, Gaussian, Inc.),
 the Gaussian 92(TM) system (copyright 1992, Gaussian, Inc.),
 the Gaussian 90(TM) system (copyright 1990, Gaussian, Inc.),
 the Gaussian 88(TM) system (copyright 1988, Gaussian, Inc.),
 the Gaussian 86(TM) system (copyright 1986, Carnegie Mellon
 University), and the Gaussian 82(TM) system (copyright 1983,
 Carnegie Mellon University). Gaussian is a federally registered
 trademark of Gaussian, Inc.
  
 This software contains proprietary and confidential information,
 including trade secrets, belonging to Gaussian, Inc.
  
 This software is provided under written license and may be
 used, copied, transmitted, or stored only in accord with that
 written license.
  
 The following legend is applicable only to US Government
 contracts under FAR:
  
                    RESTRICTED RIGHTS LEGEND
  
 Use, reproduction and disclosure by the US Government is
 subject to restrictions as set forth in subparagraphs (a)
 and (c) of the Commercial Computer Software - Restricted
 Rights clause in FAR 52.227-19.
  
 Gaussian, Inc.
 340 Quinnipiac St., Bldg. 40, Wallingford CT 06492
  
  
 ---------------------------------------------------------------
 Warning -- This program may not be used in any manner that
 competes with the business of Gaussian, Inc. or will provide
 assistance to any competitor of Gaussian, Inc.  The licensee
 of this program is prohibited from giving any competitor of
 Gaussian, Inc. access to this program.  By using this program,
 the user acknowledges that Gaussian, Inc. is engaged in the
 business of creating and licensing software in the field of
 computational chemistry and represents and warrants to the
 licensee that it is not a competitor of Gaussian, Inc. and that
 it will not use this program in any manner prohibited above.
 ---------------------------------------------------------------
  

 Cite this work as:
 Gaussian 16, Revision B.01,
 M. J. Frisch, G. W. Trucks, H. B. Schlegel, G. E. Scuseria, 
 M. A. Robb, J. R. Cheeseman, G. Scalmani, V. Barone, 
 G. A. Petersson, H. Nakatsuji, X. Li, M. Caricato, A. V. Marenich, 
 J. Bloino, B. G. Janesko, R. Gomperts, B. Mennucci, H. P. Hratchian, 
 J. V. Ortiz, A. F. Izmaylov, J. L. Sonnenberg, D. Williams-Young, 
 F. Ding, F. Lipparini, F. Egidi, J. Goings, B. Peng, A. Petrone, 
 T. Henderson, D. Ranasinghe, V. G. Zakrzewski, J. Gao, N. Rega, 
 G. Zheng, W. Liang, M. Hada, M. Ehara, K. Toyota, R. Fukuda, 
 J. Hasegawa, M. Ishida, T. Nakajima, Y. Honda, O. Kitao, H. Nakai, 
 T. Vreven, K. Throssell, J. A. Montgomery, Jr., J. E. Peralta, 
 F. Ogliaro, M. J. Bearpark, J. J. Heyd, E. N. Brothers, K. N. Kudin, 
 V. N. Staroverov, T. A. Keith, R. Kobayashi, J. Normand, 
 K. Raghavachari, A. P. Rendell, J. C. Burant, S. S. Iyengar, 
 J. Tomasi, M. Cossi, J. M. Millam, M. Klene, C. Adamo, R. Cammi, 
 J. W. Ochterski, R. L. Martin, K. Morokuma, O. Farkas, 
 J. B. Foresman, and D. J. Fox, Gaussian, Inc., Wallingford CT, 2016.
 
 ******************************************
 Gaussian 16:  ES64L-G16RevB.01 20-Dec-2017
                 3-Dec-2024 
 ******************************************
 %chk=water_mp2.chk
 %mem=20GB
 %nprocshared=24
 Will use up to   24 processors via shared memory.
 --------------------------
 # MP2/aug-cc-pVTZ Opt Freq
 --------------------------
 1/18=20,19=15,38=1/1,3;
 2/9=110,12=2,17=6,18=5,40=1/2;
 3/5=16,6=1,7=10,11=9,25=1,30=1,71=1/1,2,3;
 4//1;
 5/5=2,38=5/2;
 8/6=4,10=1/1;
 9/15=2,16=-3/6;
 10/5=1/2;
 6/7=2,8=2,9=2,10=2/1;
 7/12=2/1,2,3,16;
 1/18=20,19=15/3(2);
 2/9=110/2;
 99//99;
 2/9=110/2;
 3/5=16,6=1,7=10,11=9,25=1,30=1,71=1/1,2,3;
 4/5=5,16=3,69=1/1;
 5/5=2,38=5/2;
 8/6=4,10=1/1;
 9/15=2,16=-3/6;
 10/5=1/2;
 7/12=2/1,2,3,16;
 1/18=20,19=15/3(-8);
 2/9=110/2;
 6/7=2,8=2,9=2,10=2/1;
 99/9=10/99;
 --------------------------------
 Water molecule - MP2 calculation
 --------------------------------
 Symbolic Z-matrix:
 Charge =  0 Multiplicity = 1
 O                     0.        0.        0.11926 
 H                     0.        0.7586   -0.47705 
 H                     0.       -0.7586   -0.47705 
 

 GradGradGradGradGradGradGradGradGradGradGradGradGradGradGradGradGradGrad
 Berny optimization.
 Initialization pass.
                           ----------------------------
                           !    Initial Parameters    !
                           ! (Angstroms and Degrees)  !
 --------------------------                            --------------------------
 ! Name  Definition              Value          Derivative Info.                !
 --------------------------------------------------------------------------------
 ! R1    R(1,2)                  0.9649         estimate D2E/DX2                !
 ! R2    R(1,3)                  0.9649         estimate D2E/DX2                !
 ! A1    A(2,1,3)              103.6607         estimate D2E/DX2                !
 --------------------------------------------------------------------------------
 Trust Radius=3.00D-01 FncErr=1.00D-07 GrdErr=1.00D-07 EigMax=2.50D+02 EigMin=1.00D-04
 Number of steps in this run=     20 maximum allowed number of steps=    100.
 GradGradGradGradGradGradGradGradGradGradGradGradGradGradGradGradGradGrad

                          Input orientation:                          
 ---------------------------------------------------------------------
 Center     Atomic      Atomic             Coordinates (Angstroms)
 Number     Number       Type             X           Y           Z
 ---------------------------------------------------------------------
      1          8           0        0.000000    0.000000    0.119262
      2          1           0        0.000000    0.758602   -0.477048
      3          1           0        0.000000   -0.758602   -0.477048
 ---------------------------------------------------------------------
                    Distance matrix (angstroms):
                    1          2          3
     1  O    0.000000
     2  H    0.964916   0.000000
     3  H    0.964916   1.517204   0.000000
 Stoichiometry    H2O
 Framework group  C2V[C2(O),SGV(H2)]
 Deg. of freedom     2
 Full point group                 C2V     NOp   4
 Largest Abelian subgroup         C2V     NOp   4
 Largest concise Abelian subgroup C2      NOp   2
                         Standard orientation:                         
 ---------------------------------------------------------------------
 Center     Atomic      Atomic             Coordinates (Angstroms)
 Number     Number       Type             X           Y           Z
 ---------------------------------------------------------------------
      1          8           0        0.000000   -0.000000    0.119262
      2          1           0        0.000000    0.758602   -0.477048
      3          1           0       -0.000000   -0.758602   -0.477048
 ---------------------------------------------------------------------
 Rotational constants (GHZ):         793.9685126         435.6864908         281.3157789
 Standard basis: Aug-CC-pVTZ (5D, 7F)
 There are    42 symmetry adapted cartesian basis functions of A1  symmetry.
 There are    12 symmetry adapted cartesian basis functions of A2  symmetry.
 There are    20 symmetry adapted cartesian basis functions of B1  symmetry.
 There are    31 symmetry adapted cartesian basis functions of B2  symmetry.
 There are    35 symmetry adapted basis functions of A1  symmetry.
 There are    12 symmetry adapted basis functions of A2  symmetry.
 There are    18 symmetry adapted basis functions of B1  symmetry.
 There are    27 symmetry adapted basis functions of B2  symmetry.
    92 basis functions,   126 primitive gaussians,   105 cartesian basis functions
     5 alpha electrons        5 beta electrons
       nuclear repulsion energy         9.1234722600 Hartrees.
 NAtoms=    3 NActive=    3 NUniq=    2 SFac= 2.25D+00 NAtFMM=   60 NAOKFM=F Big=F
 Integral buffers will be    131072 words long.
 Raffenetti 1 integral format.
 Two-electron integral symmetry is turned on.
 One-electron integrals computed using PRISM.
 NBasis=    92 RedAO= T EigKep=  3.93D-04  NBF=    35    12    18    27
 NBsUse=    92 1.00D-06 EigRej= -1.00D+00 NBFU=    35    12    18    27
 ExpMin= 2.53D-02 ExpMax= 1.53D+04 ExpMxC= 5.22D+02 IAcc=3 IRadAn=         5 AccDes= 0.00D+00
 Harris functional with IExCor=  205 and IRadAn=       5 diagonalized for initial guess.
 HarFok:  IExCor=  205 AccDes= 0.00D+00 IRadAn=         5 IDoV= 1 UseB2=F ITyADJ=14
 ICtDFT=  3500011 ScaDFX=  1.000000  1.000000  1.000000  1.000000
 FoFCou: FMM=F IPFlag=           0 FMFlag=      100000 FMFlg1=           0
         NFxFlg=           0 DoJE=T BraDBF=F KetDBF=T FulRan=T
         wScrn=  0.000000 ICntrl=       500 IOpCl=  0 I1Cent=   200000004 NGrid=           0
         NMat0=    1 NMatS0=      1 NMatT0=    0 NMatD0=    1 NMtDS0=    0 NMtDT0=    0
 Petite list used in FoFCou.
 Initial guess orbital symmetries:
       Occupied  (A1) (A1) (B2) (A1) (B1)
       Virtual   (A1) (B2) (A1) (B1) (A1) (B2) (B2) (A1) (A2) (A1)
                 (B1) (B2) (A1) (B2) (B2) (A1) (A1) (B1) (A2) (A1)
                 (B1) (A1) (B1) (B2) (A2) (A1) (B2) (A1) (B2) (B1)
                 (B2) (A1) (A2) (B2) (A2) (A1) (B1) (A1) (B2) (B2)
                 (A1) (B1) (A2) (A1) (A1) (B1) (B2) (A1) (B2) (B1)
                 (A1) (B2) (A2) (B2) (A1) (B1) (A2) (A1) (B2) (B1)
                 (A2) (B1) (A1) (B2) (A1) (B2) (A2) (B2) (B2) (A1)
                 (B1) (A1) (A1) (B2) (B1) (A1) (B1) (B1) (A1) (A2)
                 (B2) (A2) (A1) (A1) (B2) (B2) (A1)
 The electronic state of the initial guess is 1-A1.
 Keep R1 ints in memory in symmetry-blocked form, NReq=20867205.
 Requested convergence on RMS density matrix=1.00D-08 within 128 cycles.
 Requested convergence on MAX density matrix=1.00D-06.
 Requested convergence on             energy=1.00D-06.
 No special actions if energy rises.
 SCF Done:  E(RHF) =  -76.0599359638     A.U. after   10 cycles
            NFock= 10  Conv=0.42D-08     -V/T= 2.0017
 ExpMin= 2.53D-02 ExpMax= 1.53D+04 ExpMxC= 5.22D+02 IAcc=3 IRadAn=         5 AccDes= 0.00D+00
 HarFok:  IExCor=  205 AccDes= 0.00D+00 IRadAn=         5 IDoV=-2 UseB2=F ITyADJ=14
 ICtDFT= 12500011 ScaDFX=  1.000000  1.000000  1.000000  1.000000
 Range of M.O.s used for correlation:     2    92
 NBasis=    92 NAE=     5 NBE=     5 NFC=     1 NFV=     0
 NROrb=     91 NOA=     4 NOB=     4 NVA=    87 NVB=    87

 **** Warning!!: The largest alpha MO coefficient is  0.15744266D+02

 Fully direct method using O(ONN) memory.
 JobTyp=1 Pass  1:  I=   2 to   5 NPSUse= 24 ParTrn=T ParDer=T DoDerP=T.
 Spin components of T(2) and E(2):
     alpha-alpha T2 =       0.8191218012D-02 E2=     -0.3264762666D-01
     alpha-beta  T2 =       0.4759359841D-01 E2=     -0.2037358450D+00
     beta-beta   T2 =       0.8191218012D-02 E2=     -0.3264762666D-01
 ANorm=    0.1031492140D+01
 E2 =    -0.2690310983D+00 EUMP2 =    -0.76328967062050D+02
          IDoAtm=111
          Differentiating once with respect to electric field.
                with respect to dipole field.
          Differentiating once with respect to nuclear coordinates.
 Keep R1 ints in memory in symmetry-blocked form, NReq=20868023.
          There are     1 degrees of freedom in the 1st order CPHF.  IDoFFX=0 NUNeed=     1.
 LinEq1:  Iter=  0 NonCon=     1 RMS=4.68D-03 Max=4.96D-02 NDo=     1
 AX will form     1 AO Fock derivatives at one time.
 LinEq1:  Iter=  1 NonCon=     1 RMS=6.38D-04 Max=4.89D-03 NDo=     1
 LinEq1:  Iter=  2 NonCon=     1 RMS=2.33D-04 Max=2.01D-03 NDo=     1
 LinEq1:  Iter=  3 NonCon=     1 RMS=6.28D-05 Max=4.71D-04 NDo=     1
 LinEq1:  Iter=  4 NonCon=     1 RMS=9.66D-06 Max=6.54D-05 NDo=     1
 LinEq1:  Iter=  5 NonCon=     1 RMS=1.61D-06 Max=1.11D-05 NDo=     1
 LinEq1:  Iter=  6 NonCon=     1 RMS=2.45D-07 Max=1.78D-06 NDo=     1
 LinEq1:  Iter=  7 NonCon=     1 RMS=2.82D-08 Max=2.41D-07 NDo=     1
 LinEq1:  Iter=  8 NonCon=     1 RMS=3.36D-09 Max=3.52D-08 NDo=     1
 LinEq1:  Iter=  9 NonCon=     1 RMS=3.29D-10 Max=2.18D-09 NDo=     1
 LinEq1:  Iter= 10 NonCon=     0 RMS=2.50D-11 Max=2.21D-10 NDo=     1
 Linear equations converged to 1.000D-10 1.000D-09 after    10 iterations.
 End of Minotr F.D. properties file   721 does not exist.
 End of Minotr F.D. properties file   722 does not exist.
 End of Minotr F.D. properties file   788 does not exist.

 **********************************************************************

            Population analysis using the SCF Density.

 **********************************************************************

 Orbital symmetries:
       Occupied  (A1) (A1) (B2) (A1) (B1)
       Virtual   (A1) (B2) (A1) (B1) (A1) (B2) (B2) (A1) (A2) (B1)
                 (A1) (B2) (A1) (B2) (B2) (A1) (A1) (A2) (B1) (A1)
                 (B1) (A1) (B2) (B1) (A2) (B2) (A1) (A1) (B2) (B1)
                 (B2) (A2) (A1) (B2) (A2) (A1) (B1) (A1) (B2) (B2)
                 (A1) (B1) (A2) (A1) (A1) (B1) (B2) (A1) (B2) (B1)
                 (A1) (B2) (A2) (B2) (A1) (A2) (B1) (A1) (B2) (B1)
                 (A1) (A2) (B1) (B2) (A1) (B2) (A2) (B2) (B2) (A1)
                 (B1) (A1) (A1) (B2) (B1) (A1) (B1) (B1) (B2) (A2)
                 (A1) (A2) (A1) (A1) (B2) (B2) (A1)
 The electronic state is 1-A1.
 Alpha  occ. eigenvalues --  -20.56892  -1.35027  -0.71201  -0.58514  -0.50998
 Alpha virt. eigenvalues --    0.02929   0.04771   0.13581   0.15903   0.17514
 Alpha virt. eigenvalues --    0.18320   0.22664   0.24482   0.26554   0.29937
 Alpha virt. eigenvalues --    0.30972   0.36572   0.43657   0.46532   0.59869
 Alpha virt. eigenvalues --    0.65857   0.70745   0.72306   0.73175   0.82979
 Alpha virt. eigenvalues --    0.84637   0.89307   0.91171   0.91805   0.92214
 Alpha virt. eigenvalues --    0.93079   0.96009   1.01929   1.04173   1.08178
 Alpha virt. eigenvalues --    1.10724   1.17570   1.18125   1.26241   1.50861
 Alpha virt. eigenvalues --    1.53236   1.57926   1.80775   1.82106   1.97792
 Alpha virt. eigenvalues --    2.11443   2.26248   2.31460   2.32797   2.41761
 Alpha virt. eigenvalues --    2.42028   2.44350   2.48054   2.67872   2.69845
 Alpha virt. eigenvalues --    2.76822   2.81033   2.88195   3.64762   3.73238
 Alpha virt. eigenvalues --    4.01640   4.07802   4.15572   4.24359   4.27964
 Alpha virt. eigenvalues --    4.37106   4.37508   4.40180   4.51644   4.72156
 Alpha virt. eigenvalues --    4.83443   5.13640   5.14590   5.23792   5.30738
 Alpha virt. eigenvalues --    5.51114   5.65004   6.17536   6.51174   6.70761
 Alpha virt. eigenvalues --    6.89495   7.12641   7.24813   7.28190   7.30409
 Alpha virt. eigenvalues --    7.33132   7.35218   7.51798   7.88410   7.91301
 Alpha virt. eigenvalues --    8.78338  15.59245
          Condensed to atoms (all electrons):
               1          2          3
     1  O    7.912581   0.268895   0.268895
     2  H    0.268895   0.484820   0.021100
     3  H    0.268895   0.021100   0.484820
 Mulliken charges:
               1
     1  O   -0.450370
     2  H    0.225185
     3  H    0.225185
 Sum of Mulliken charges =   0.00000
 Mulliken charges with hydrogens summed into heavy atoms:
               1
     1  O    0.000000
 Electronic spatial extent (au):  <R**2>=             19.5709
 Charge=              0.0000 electrons
 Dipole moment (field-independent basis, Debye):
    X=             -0.0000    Y=              0.0000    Z=             -2.0029  Tot=              2.0029
 Quadrupole moment (field-independent basis, Debye-Ang):
   XX=             -7.5743   YY=             -4.2656   ZZ=             -6.2226
   XY=              0.0000   XZ=              0.0000   YZ=              0.0000
 Traceless Quadrupole moment (field-independent basis, Debye-Ang):
   XX=             -1.5535   YY=              1.7552   ZZ=             -0.2018
   XY=              0.0000   XZ=              0.0000   YZ=              0.0000
 Octapole moment (field-independent basis, Debye-Ang**2):
  XXX=              0.0000  YYY=             -0.0000  ZZZ=             -1.1537  XYY=             -0.0000
  XXY=             -0.0000  XXZ=             -0.2513  XZZ=              0.0000  YZZ=             -0.0000
  YYZ=             -1.4250  XYZ=             -0.0000
 Hexadecapole moment (field-independent basis, Debye-Ang**3):
 XXXX=             -6.7483 YYYY=             -6.0344 ZZZZ=             -7.2969 XXXY=             -0.0000
 XXXZ=             -0.0000 YYYX=             -0.0000 YYYZ=              0.0000 ZZZX=             -0.0000
 ZZZY=             -0.0000 XXYY=             -2.4598 XXZZ=             -2.3941 YYZZ=             -1.8524
 XXYZ=              0.0000 YYXZ=              0.0000 ZZXY=              0.0000
 N-N= 9.123472259971D+00 E-N=-1.988442303042D+02  KE= 7.593006843605D+01
 Symmetry A1   KE= 6.789651077149D+01
 Symmetry A2   KE= 2.514812922030D-30
 Symmetry B1   KE= 4.468238292712D+00
 Symmetry B2   KE= 3.565319371847D+00
 Calling FoFJK, ICntrl=  10002127 FMM=F ISym2X=1 I1Cent= 0 IOpClX= 0 NMat=1 NMatS=1 NMatT=0.
 ***** Axes restored to original set *****
 -------------------------------------------------------------------
 Center     Atomic                   Forces (Hartrees/Bohr)
 Number     Number              X              Y              Z
 -------------------------------------------------------------------
      1        8          -0.000000000    0.000000000   -0.004757770
      2        1           0.000000000   -0.002303482    0.002378885
      3        1           0.000000000    0.002303482    0.002378885
 -------------------------------------------------------------------
 Cartesian Forces:  Max     0.004757770 RMS     0.002225275

 GradGradGradGradGradGradGradGradGradGradGradGradGradGradGradGradGradGrad
 Berny optimization.
 FormGI is forming the generalized inverse of G from B-inverse, IUseBI=4.
 Internal  Forces:  Max     0.003281094 RMS     0.002719965
 Search for a local minimum.
 Step number   1 out of a maximum of   20
 All quantities printed in internal units (Hartrees-Bohrs-Radians)
 Mixed Optimization -- RFO/linear search
 Second derivative matrix not updated -- first step.
 The second derivative matrix:
                          R1        R2        A1
           R1           0.54429
           R2           0.00000   0.54429
           A1           0.00000   0.00000   0.16000
 ITU=  0
     Eigenvalues ---    0.16000   0.54429   0.54429
 RFO step:  Lambda=-4.37047226D-05 EMin= 1.60000000D-01
 Linear search not attempted -- first point.
 Iteration  1 RMS(Cart)=  0.00379614 RMS(Int)=  0.00001084
 Iteration  2 RMS(Cart)=  0.00001225 RMS(Int)=  0.00000000
 Iteration  3 RMS(Cart)=  0.00000000 RMS(Int)=  0.00000000
 ClnCor:  largest displacement from symmetrization is 7.91D-15 for atom     3.
 Variable       Old X    -DE/DX   Delta X   Delta X   Delta X     New X
                                 (Linear)    (Quad)   (Total)
    R1        1.82343  -0.00328   0.00000  -0.00603  -0.00603   1.81740
    R2        1.82343  -0.00328   0.00000  -0.00603  -0.00603   1.81740
    A1        1.80922   0.00081   0.00000   0.00509   0.00509   1.81431
         Item               Value     Threshold  Converged?
 Maximum Force            0.003281     0.000450     NO 
 RMS     Force            0.002720     0.000300     NO 
 Maximum Displacement     0.004910     0.001800     NO 
 RMS     Displacement     0.003798     0.001200     NO 
 Predicted change in Energy=-2.185236D-05
 GradGradGradGradGradGradGradGradGradGradGradGradGradGradGradGradGradGrad

                          Input orientation:                          
 ---------------------------------------------------------------------
 Center     Atomic      Atomic             Coordinates (Angstroms)
 Number     Number       Type             X           Y           Z
 ---------------------------------------------------------------------
      1          8           0        0.000000    0.000000    0.116664
      2          1           0        0.000000    0.757604   -0.475749
      3          1           0       -0.000000   -0.757604   -0.475749
 ---------------------------------------------------------------------
                    Distance matrix (angstroms):
                    1          2          3
     1  O    0.000000
     2  H    0.961726   0.000000
     3  H    0.961726   1.515209   0.000000
 Stoichiometry    H2O
 Framework group  C2V[C2(O),SGV(H2)]
 Deg. of freedom     2
 Full point group                 C2V     NOp   4
 Largest Abelian subgroup         C2V     NOp   4
 Largest concise Abelian subgroup C2      NOp   2
                         Standard orientation:                         
 ---------------------------------------------------------------------
 Center     Atomic      Atomic             Coordinates (Angstroms)
 Number     Number       Type             X           Y           Z
 ---------------------------------------------------------------------
      1          8           0       -0.000000   -0.000000    0.118483
      2          1           0        0.000000    0.757604   -0.473930
      3          1           0       -0.000000   -0.757604   -0.473930
 ---------------------------------------------------------------------
 Rotational constants (GHZ):         804.4491780         436.8347810         283.1031352
 Standard basis: Aug-CC-pVTZ (5D, 7F)
 There are    42 symmetry adapted cartesian basis functions of A1  symmetry.
 There are    12 symmetry adapted cartesian basis functions of A2  symmetry.
 There are    20 symmetry adapted cartesian basis functions of B1  symmetry.
 There are    31 symmetry adapted cartesian basis functions of B2  symmetry.
 There are    35 symmetry adapted basis functions of A1  symmetry.
 There are    12 symmetry adapted basis functions of A2  symmetry.
 There are    18 symmetry adapted basis functions of B1  symmetry.
 There are    27 symmetry adapted basis functions of B2  symmetry.
    92 basis functions,   126 primitive gaussians,   105 cartesian basis functions
     5 alpha electrons        5 beta electrons
       nuclear repulsion energy         9.1530341938 Hartrees.
 NAtoms=    3 NActive=    3 NUniq=    2 SFac= 2.25D+00 NAtFMM=   60 NAOKFM=F Big=F
 Integral buffers will be    131072 words long.
 Raffenetti 1 integral format.
 Two-electron integral symmetry is turned on.
 One-electron integrals computed using PRISM.
 NBasis=    92 RedAO= T EigKep=  3.89D-04  NBF=    35    12    18    27
 NBsUse=    92 1.00D-06 EigRej= -1.00D+00 NBFU=    35    12    18    27
 Initial guess from the checkpoint file:  "water_mp2.chk"
 B after Tr=     0.000000   -0.000000   -0.000000
         Rot=    1.000000    0.000000   -0.000000   -0.000000 Ang=   0.00 deg.
 Initial guess orbital symmetries:
       Occupied  (A1) (A1) (B2) (A1) (B1)
       Virtual   (A1) (B2) (A1) (B1) (A1) (B2) (B2) (A1) (A2) (B1)
                 (A1) (B2) (A1) (B2) (B2) (A1) (A1) (A2) (B1) (A1)
                 (B1) (A1) (B2) (B1) (A2) (B2) (A1) (A1) (B2) (B1)
                 (B2) (A2) (A1) (B2) (A2) (A1) (B1) (A1) (B2) (B2)
                 (A1) (B1) (A2) (A1) (A1) (B1) (B2) (A1) (B2) (B1)
                 (A1) (B2) (A2) (B2) (A1) (A2) (B1) (A1) (B2) (B1)
                 (A1) (A2) (B1) (B2) (A1) (B2) (A2) (B2) (B2) (A1)
                 (B1) (A1) (A1) (B2) (B1) (A1) (B1) (B1) (B2) (A2)
                 (A1) (A2) (A1) (A1) (B2) (B2) (A1)
 Keep R1 ints in memory in symmetry-blocked form, NReq=20867205.
 Requested convergence on RMS density matrix=1.00D-08 within 128 cycles.
 Requested convergence on MAX density matrix=1.00D-06.
 Requested convergence on             energy=1.00D-06.
 No special actions if energy rises.
 SCF Done:  E(RHF) =  -76.0602402899     A.U. after    8 cycles
            NFock=  8  Conv=0.26D-08     -V/T= 2.0016
 ExpMin= 2.53D-02 ExpMax= 1.53D+04 ExpMxC= 5.22D+02 IAcc=3 IRadAn=         5 AccDes= 0.00D+00
 HarFok:  IExCor=  205 AccDes= 0.00D+00 IRadAn=         5 IDoV=-2 UseB2=F ITyADJ=14
 ICtDFT= 12500011 ScaDFX=  1.000000  1.000000  1.000000  1.000000
 Range of M.O.s used for correlation:     2    92
 NBasis=    92 NAE=     5 NBE=     5 NFC=     1 NFV=     0
 NROrb=     91 NOA=     4 NOB=     4 NVA=    87 NVB=    87

 **** Warning!!: The largest alpha MO coefficient is  0.15857719D+02

 Fully direct method using O(ONN) memory.
 JobTyp=1 Pass  1:  I=   2 to   5 NPSUse= 24 ParTrn=T ParDer=T DoDerP=T.
 Spin components of T(2) and E(2):
     alpha-alpha T2 =       0.8162645403D-02 E2=     -0.3261506902D-01
     alpha-beta  T2 =       0.4740856431D-01 E2=     -0.2035211811D+00
     beta-beta   T2 =       0.8162645403D-02 E2=     -0.3261506902D-01
 ANorm=    0.1031374740D+01
 E2 =    -0.2687513191D+00 EUMP2 =    -0.76328991608946D+02
          IDoAtm=111
          Differentiating once with respect to electric field.
                with respect to dipole field.
          Differentiating once with respect to nuclear coordinates.
 Keep R1 ints in memory in symmetry-blocked form, NReq=20868023.
          There are     1 degrees of freedom in the 1st order CPHF.  IDoFFX=0 NUNeed=     1.
 LinEq1:  Iter=  0 NonCon=     1 RMS=4.65D-03 Max=4.93D-02 NDo=     1
 AX will form     1 AO Fock derivatives at one time.
 LinEq1:  Iter=  1 NonCon=     1 RMS=6.32D-04 Max=4.83D-03 NDo=     1
 LinEq1:  Iter=  2 NonCon=     1 RMS=2.30D-04 Max=1.98D-03 NDo=     1
 LinEq1:  Iter=  3 NonCon=     1 RMS=6.21D-05 Max=4.65D-04 NDo=     1
 LinEq1:  Iter=  4 NonCon=     1 RMS=9.53D-06 Max=6.39D-05 NDo=     1
 LinEq1:  Iter=  5 NonCon=     1 RMS=1.61D-06 Max=1.10D-05 NDo=     1
 LinEq1:  Iter=  6 NonCon=     1 RMS=2.42D-07 Max=1.75D-06 NDo=     1
 LinEq1:  Iter=  7 NonCon=     1 RMS=2.78D-08 Max=2.38D-07 NDo=     1
 LinEq1:  Iter=  8 NonCon=     1 RMS=3.32D-09 Max=3.47D-08 NDo=     1
 LinEq1:  Iter=  9 NonCon=     1 RMS=3.25D-10 Max=2.14D-09 NDo=     1
 LinEq1:  Iter= 10 NonCon=     0 RMS=2.45D-11 Max=2.15D-10 NDo=     1
 Linear equations converged to 1.000D-10 1.000D-09 after    10 iterations.
 End of Minotr F.D. properties file   721 does not exist.
 End of Minotr F.D. properties file   722 does not exist.
 End of Minotr F.D. properties file   788 does not exist.
 Calling FoFJK, ICntrl=  10002127 FMM=F ISym2X=1 I1Cent= 0 IOpClX= 0 NMat=1 NMatS=1 NMatT=0.
 ***** Axes restored to original set *****
 -------------------------------------------------------------------
 Center     Atomic                   Forces (Hartrees/Bohr)
 Number     Number              X              Y              Z
 -------------------------------------------------------------------
      1        8          -0.000000000    0.000000000   -0.000672563
      2        1           0.000000000   -0.000080617    0.000336282
      3        1           0.000000000    0.000080617    0.000336282
 -------------------------------------------------------------------
 Cartesian Forces:  Max     0.000672563 RMS     0.000277190

 GradGradGradGradGradGradGradGradGradGradGradGradGradGradGradGradGradGrad
 Berny optimization.
 Using GEDIIS/GDIIS optimizer.
 FormGI is forming the generalized inverse of G from B-inverse, IUseBI=4.
 Internal  Forces:  Max     0.000391192 RMS     0.000315983
 Search for a local minimum.
 Step number   2 out of a maximum of   20
 All quantities printed in internal units (Hartrees-Bohrs-Radians)
 Mixed Optimization -- En-DIIS/RFO-DIIS
 Update second derivatives using D2CorX and points    1    2
 DE= -2.45D-05 DEPred=-2.19D-05 R= 1.12D+00
 TightC=F SS=  1.41D+00  RLast= 9.93D-03 DXNew= 5.0454D-01 2.9785D-02
 Trust test= 1.12D+00 RLast= 9.93D-03 DXMaxT set to 3.00D-01
 The second derivative matrix:
                          R1        R2        A1
           R1           0.53368
           R2          -0.01061   0.53368
           A1           0.02799   0.02799   0.14949
 ITU=  1  0
 Use linear search instead of GDIIS.
     Eigenvalues ---    0.14534   0.52722   0.54429
 RFO step:  Lambda=-7.55270057D-07 EMin= 1.45337188D-01
 Quartic linear search produced a step of  0.13498.
 Iteration  1 RMS(Cart)=  0.00144514 RMS(Int)=  0.00000161
 Iteration  2 RMS(Cart)=  0.00000162 RMS(Int)=  0.00000000
 Iteration  3 RMS(Cart)=  0.00000000 RMS(Int)=  0.00000000
 ClnCor:  largest displacement from symmetrization is 2.16D-15 for atom     3.
 Variable       Old X    -DE/DX   Delta X   Delta X   Delta X     New X
                                 (Linear)    (Quad)   (Total)
    R1        1.81740  -0.00027  -0.00081   0.00015  -0.00066   1.81674
    R2        1.81740  -0.00027  -0.00081   0.00015  -0.00066   1.81674
    A1        1.81431   0.00039   0.00069   0.00216   0.00284   1.81715
         Item               Value     Threshold  Converged?
 Maximum Force            0.000391     0.000450     YES
 RMS     Force            0.000316     0.000300     NO 
 Maximum Displacement     0.001629     0.001800     YES
 RMS     Displacement     0.001444     0.001200     NO 
 Predicted change in Energy=-7.425148D-07
 GradGradGradGradGradGradGradGradGradGradGradGradGradGradGradGradGradGrad

                          Input orientation:                          
 ---------------------------------------------------------------------
 Center     Atomic      Atomic             Coordinates (Angstroms)
 Number     Number       Type             X           Y           Z
 ---------------------------------------------------------------------
      1          8           0        0.000000   -0.000000    0.115802
      2          1           0        0.000000    0.758169   -0.475318
      3          1           0       -0.000000   -0.758169   -0.475318
 ---------------------------------------------------------------------
                    Distance matrix (angstroms):
                    1          2          3
     1  O    0.000000
     2  H    0.961376   0.000000
     3  H    0.961376   1.516338   0.000000
 Stoichiometry    H2O
 Framework group  C2V[C2(O),SGV(H2)]
 Deg. of freedom     2
 Full point group                 C2V     NOp   4
 Largest Abelian subgroup         C2V     NOp   4
 Largest concise Abelian subgroup C2      NOp   2
                         Standard orientation:                         
 ---------------------------------------------------------------------
 Center     Atomic      Atomic             Coordinates (Angstroms)
 Number     Number       Type             X           Y           Z
 ---------------------------------------------------------------------
      1          8           0        0.000000    0.000000    0.118224
      2          1           0       -0.000000    0.758169   -0.472896
      3          1           0       -0.000000   -0.758169   -0.472896
 ---------------------------------------------------------------------
 Rotational constants (GHZ):         807.9717542         436.1839997         283.2638520
 Standard basis: Aug-CC-pVTZ (5D, 7F)
 There are    42 symmetry adapted cartesian basis functions of A1  symmetry.
 There are    12 symmetry adapted cartesian basis functions of A2  symmetry.
 There are    20 symmetry adapted cartesian basis functions of B1  symmetry.
 There are    31 symmetry adapted cartesian basis functions of B2  symmetry.
 There are    35 symmetry adapted basis functions of A1  symmetry.
 There are    12 symmetry adapted basis functions of A2  symmetry.
 There are    18 symmetry adapted basis functions of B1  symmetry.
 There are    27 symmetry adapted basis functions of B2  symmetry.
    92 basis functions,   126 primitive gaussians,   105 cartesian basis functions
     5 alpha electrons        5 beta electrons
       nuclear repulsion energy         9.1559821335 Hartrees.
 NAtoms=    3 NActive=    3 NUniq=    2 SFac= 2.25D+00 NAtFMM=   60 NAOKFM=F Big=F
 Integral buffers will be    131072 words long.
 Raffenetti 1 integral format.
 Two-electron integral symmetry is turned on.
 One-electron integrals computed using PRISM.
 NBasis=    92 RedAO= T EigKep=  3.89D-04  NBF=    35    12    18    27
 NBsUse=    92 1.00D-06 EigRej= -1.00D+00 NBFU=    35    12    18    27
 Initial guess from the checkpoint file:  "water_mp2.chk"
 B after Tr=    -0.000000    0.000000   -0.000000
         Rot=    1.000000    0.000000    0.000000   -0.000000 Ang=   0.00 deg.
 Initial guess orbital symmetries:
       Occupied  (A1) (A1) (B2) (A1) (B1)
       Virtual   (A1) (B2) (A1) (B1) (A1) (B2) (B2) (A1) (A2) (B1)
                 (A1) (B2) (A1) (B2) (B2) (A1) (A1) (A2) (B1) (A1)
                 (B1) (A1) (B2) (B1) (A2) (B2) (A1) (A1) (B2) (B1)
                 (B2) (A2) (A1) (B2) (A2) (A1) (B1) (A1) (B2) (B2)
                 (A1) (B1) (A2) (A1) (A1) (B1) (B2) (A1) (B2) (B1)
                 (A1) (B2) (A2) (B2) (A1) (A2) (B1) (A1) (B2) (B1)
                 (A1) (A2) (B1) (B2) (A1) (B2) (A2) (B2) (B2) (A1)
                 (B1) (A1) (A1) (B2) (B1) (A1) (B1) (B1) (B2) (A2)
                 (A1) (A2) (A1) (A1) (B2) (B2) (A1)
 Keep R1 ints in memory in symmetry-blocked form, NReq=20867205.
 Requested convergence on RMS density matrix=1.00D-08 within 128 cycles.
 Requested convergence on MAX density matrix=1.00D-06.
 Requested convergence on             energy=1.00D-06.
 No special actions if energy rises.
 SCF Done:  E(RHF) =  -76.0602819306     A.U. after    7 cycles
            NFock=  7  Conv=0.27D-08     -V/T= 2.0015
 ExpMin= 2.53D-02 ExpMax= 1.53D+04 ExpMxC= 5.22D+02 IAcc=3 IRadAn=         5 AccDes= 0.00D+00
 HarFok:  IExCor=  205 AccDes= 0.00D+00 IRadAn=         5 IDoV=-2 UseB2=F ITyADJ=14
 ICtDFT= 12500011 ScaDFX=  1.000000  1.000000  1.000000  1.000000
 Range of M.O.s used for correlation:     2    92
 NBasis=    92 NAE=     5 NBE=     5 NFC=     1 NFV=     0
 NROrb=     91 NOA=     4 NOB=     4 NVA=    87 NVB=    87

 **** Warning!!: The largest alpha MO coefficient is  0.15875224D+02

 Fully direct method using O(ONN) memory.
 JobTyp=1 Pass  1:  I=   2 to   5 NPSUse= 24 ParTrn=T ParDer=T DoDerP=T.
 Spin components of T(2) and E(2):
     alpha-alpha T2 =       0.8158759480D-02 E2=     -0.3261010394D-01
     alpha-beta  T2 =       0.4738449024D-01 E2=     -0.2034901861D+00
     beta-beta   T2 =       0.8158759480D-02 E2=     -0.3261010394D-01
 ANorm=    0.1031359302D+01
 E2 =    -0.2687103939D+00 EUMP2 =    -0.76328992324502D+02
          IDoAtm=111
          Differentiating once with respect to electric field.
                with respect to dipole field.
          Differentiating once with respect to nuclear coordinates.
 Keep R1 ints in memory in symmetry-blocked form, NReq=20868023.
          There are     1 degrees of freedom in the 1st order CPHF.  IDoFFX=0 NUNeed=     1.
 LinEq1:  Iter=  0 NonCon=     1 RMS=4.65D-03 Max=4.92D-02 NDo=     1
 AX will form     1 AO Fock derivatives at one time.
 LinEq1:  Iter=  1 NonCon=     1 RMS=6.31D-04 Max=4.82D-03 NDo=     1
 LinEq1:  Iter=  2 NonCon=     1 RMS=2.30D-04 Max=1.98D-03 NDo=     1
 LinEq1:  Iter=  3 NonCon=     1 RMS=6.19D-05 Max=4.64D-04 NDo=     1
 LinEq1:  Iter=  4 NonCon=     1 RMS=9.50D-06 Max=6.36D-05 NDo=     1
 LinEq1:  Iter=  5 NonCon=     1 RMS=1.61D-06 Max=1.10D-05 NDo=     1
 LinEq1:  Iter=  6 NonCon=     1 RMS=2.42D-07 Max=1.75D-06 NDo=     1
 LinEq1:  Iter=  7 NonCon=     1 RMS=2.77D-08 Max=2.37D-07 NDo=     1
 LinEq1:  Iter=  8 NonCon=     1 RMS=3.32D-09 Max=3.46D-08 NDo=     1
 LinEq1:  Iter=  9 NonCon=     1 RMS=3.24D-10 Max=2.14D-09 NDo=     1
 LinEq1:  Iter= 10 NonCon=     0 RMS=2.44D-11 Max=2.14D-10 NDo=     1
 Linear equations converged to 1.000D-10 1.000D-09 after    10 iterations.
 End of Minotr F.D. properties file   721 does not exist.
 End of Minotr F.D. properties file   722 does not exist.
 End of Minotr F.D. properties file   788 does not exist.
 Calling FoFJK, ICntrl=  10002127 FMM=F ISym2X=1 I1Cent= 0 IOpClX= 0 NMat=1 NMatS=1 NMatT=0.
 ***** Axes restored to original set *****
 -------------------------------------------------------------------
 Center     Atomic                   Forces (Hartrees/Bohr)
 Number     Number              X              Y              Z
 -------------------------------------------------------------------
      1        8          -0.000000000   -0.000000000    0.000004423
      2        1           0.000000000   -0.000013079   -0.000002211
      3        1           0.000000000    0.000013079   -0.000002211
 -------------------------------------------------------------------
 Cartesian Forces:  Max     0.000013079 RMS     0.000006425

 GradGradGradGradGradGradGradGradGradGradGradGradGradGradGradGradGradGrad
 Berny optimization.
 Using GEDIIS/GDIIS optimizer.
 FormGI is forming the generalized inverse of G from B-inverse, IUseBI=4.
 Internal  Forces:  Max     0.000017778 RMS     0.000012602
 Search for a local minimum.
 Step number   3 out of a maximum of   20
 All quantities printed in internal units (Hartrees-Bohrs-Radians)
 Mixed Optimization -- En-DIIS/RFO-DIIS
 Swapping is turned off.
 Update second derivatives using D2CorX and points    1    2    3
 DE= -7.16D-07 DEPred=-7.43D-07 R= 9.64D-01
 Trust test= 9.64D-01 RLast= 2.99D-03 DXMaxT set to 3.00D-01
 The second derivative matrix:
                          R1        R2        A1
           R1           0.52882
           R2          -0.01547   0.52882
           A1           0.02750   0.02750   0.15668
 ITU=  0  1  0
     Eigenvalues ---    0.15249   0.51754   0.54429
 En-DIIS/RFO-DIIS/Sim-DIIS IScMMF=       -3 using points:     3    2
 RFO step:  Lambda= 0.00000000D+00.
 DidBck=F Rises=F RFO-DIIS coefs:    0.96699    0.03301
 Iteration  1 RMS(Cart)=  0.00006646 RMS(Int)=  0.00000000
 Iteration  2 RMS(Cart)=  0.00000000 RMS(Int)=  0.00000000
 ClnCor:  largest displacement from symmetrization is 6.17D-15 for atom     3.
 Variable       Old X    -DE/DX   Delta X   Delta X   Delta X     New X
                                 (Linear)    (Quad)   (Total)
    R1        1.81674  -0.00001   0.00002  -0.00003  -0.00001   1.81673
    R2        1.81674  -0.00001   0.00002  -0.00003  -0.00001   1.81673
    A1        1.81715  -0.00002  -0.00009  -0.00002  -0.00011   1.81704
         Item               Value     Threshold  Converged?
 Maximum Force            0.000018     0.000450     YES
 RMS     Force            0.000013     0.000300     YES
 Maximum Displacement     0.000070     0.001800     YES
 RMS     Displacement     0.000066     0.001200     YES
 Predicted change in Energy=-1.076268D-09
 Optimization completed.
    -- Stationary point found.
                           ----------------------------
                           !   Optimized Parameters   !
                           ! (Angstroms and Degrees)  !
 --------------------------                            --------------------------
 ! Name  Definition              Value          Derivative Info.                !
 --------------------------------------------------------------------------------
 ! R1    R(1,2)                  0.9614         -DE/DX =    0.0                 !
 ! R2    R(1,3)                  0.9614         -DE/DX =    0.0                 !
 ! A1    A(2,1,3)              104.1152         -DE/DX =    0.0                 !
 --------------------------------------------------------------------------------
 GradGradGradGradGradGradGradGradGradGradGradGradGradGradGradGradGradGrad

                          Input orientation:                          
 ---------------------------------------------------------------------
 Center     Atomic      Atomic             Coordinates (Angstroms)
 Number     Number       Type             X           Y           Z
 ---------------------------------------------------------------------
      1          8           0        0.000000   -0.000000    0.115802
      2          1           0        0.000000    0.758169   -0.475318
      3          1           0       -0.000000   -0.758169   -0.475318
 ---------------------------------------------------------------------
                    Distance matrix (angstroms):
                    1          2          3
     1  O    0.000000
     2  H    0.961376   0.000000
     3  H    0.961376   1.516338   0.000000
 Stoichiometry    H2O
 Framework group  C2V[C2(O),SGV(H2)]
 Deg. of freedom     2
 Full point group                 C2V     NOp   4
 Largest Abelian subgroup         C2V     NOp   4
 Largest concise Abelian subgroup C2      NOp   2
                         Standard orientation:                         
 ---------------------------------------------------------------------
 Center     Atomic      Atomic             Coordinates (Angstroms)
 Number     Number       Type             X           Y           Z
 ---------------------------------------------------------------------
      1          8           0        0.000000    0.000000    0.118224
      2          1           0       -0.000000    0.758169   -0.472896
      3          1           0       -0.000000   -0.758169   -0.472896
 ---------------------------------------------------------------------
 Rotational constants (GHZ):         807.9717542         436.1839997         283.2638520

 **********************************************************************

            Population analysis using the SCF Density.

 **********************************************************************

 Orbital symmetries:
       Occupied  (A1) (A1) (B2) (A1) (B1)
       Virtual   (A1) (B2) (A1) (B1) (A1) (B2) (B2) (A1) (A2) (B1)
                 (A1) (B2) (A1) (B2) (B2) (A1) (A1) (A2) (B1) (A1)
                 (B1) (A1) (B2) (B1) (A2) (B2) (A1) (A1) (B2) (B1)
                 (B2) (A2) (A1) (B2) (A2) (A1) (B1) (A1) (B2) (B2)
                 (A1) (B1) (A2) (A1) (A1) (B1) (B2) (A1) (B2) (B1)
                 (A1) (B2) (A2) (B2) (A1) (A2) (B1) (A1) (B2) (B1)
                 (A1) (A2) (B1) (B2) (A1) (B2) (A2) (B2) (B2) (A1)
                 (B1) (A1) (A1) (B2) (B1) (A1) (B1) (B1) (B2) (A2)
                 (A1) (A2) (A1) (A1) (B2) (B2) (A1)
 The electronic state is 1-A1.
 Alpha  occ. eigenvalues --  -20.56810  -1.35176  -0.71481  -0.58493  -0.51014
 Alpha virt. eigenvalues --    0.02937   0.04769   0.13589   0.15878   0.17516
 Alpha virt. eigenvalues --    0.18308   0.22712   0.24492   0.26539   0.30001
 Alpha virt. eigenvalues --    0.31013   0.36578   0.43732   0.46602   0.59918
 Alpha virt. eigenvalues --    0.65846   0.70795   0.72264   0.73166   0.83050
 Alpha virt. eigenvalues --    0.84632   0.89220   0.91246   0.91826   0.92235
 Alpha virt. eigenvalues --    0.93077   0.96137   1.02081   1.04306   1.08248
 Alpha virt. eigenvalues --    1.10840   1.17613   1.18177   1.26102   1.51003
 Alpha virt. eigenvalues --    1.53508   1.58254   1.80530   1.82019   1.98379
 Alpha virt. eigenvalues --    2.11712   2.26258   2.31561   2.32674   2.41818
 Alpha virt. eigenvalues --    2.42047   2.44303   2.47951   2.67731   2.69803
 Alpha virt. eigenvalues --    2.77059   2.81536   2.88378   3.65197   3.74074
 Alpha virt. eigenvalues --    4.01739   4.08243   4.16340   4.24667   4.28689
 Alpha virt. eigenvalues --    4.37414   4.37697   4.40440   4.51691   4.72415
 Alpha virt. eigenvalues --    4.84186   5.14719   5.14743   5.24902   5.32163
 Alpha virt. eigenvalues --    5.52008   5.66142   6.17663   6.51309   6.70879
 Alpha virt. eigenvalues --    6.89688   7.13104   7.25084   7.29831   7.31105
 Alpha virt. eigenvalues --    7.32815   7.35417   7.52987   7.89576   7.92102
 Alpha virt. eigenvalues --    8.79831  15.70360
          Condensed to atoms (all electrons):
               1          2          3
     1  O    7.904271   0.270282   0.270282
     2  H    0.270282   0.487668   0.019633
     3  H    0.270282   0.019633   0.487668
 Mulliken charges:
               1
     1  O   -0.444834
     2  H    0.222417
     3  H    0.222417
 Sum of Mulliken charges =  -0.00000
 Mulliken charges with hydrogens summed into heavy atoms:
               1
     1  O   -0.000000
 Electronic spatial extent (au):  <R**2>=             19.5253
 Charge=             -0.0000 electrons
 Dipole moment (field-independent basis, Debye):
    X=             -0.0000    Y=              0.0000    Z=             -1.9925  Tot=              1.9925
 Quadrupole moment (field-independent basis, Debye-Ang):
   XX=             -7.5669   YY=             -4.2534   ZZ=             -6.2346
   XY=              0.0000   XZ=              0.0000   YZ=              0.0000
 Traceless Quadrupole moment (field-independent basis, Debye-Ang):
   XX=             -1.5486   YY=              1.7649   ZZ=             -0.2163
   XY=              0.0000   XZ=              0.0000   YZ=              0.0000
 Octapole moment (field-independent basis, Debye-Ang**2):
  XXX=              0.0000  YYY=             -0.0000  ZZZ=             -1.1473  XYY=             -0.0000
  XXY=             -0.0000  XXZ=             -0.2525  XZZ=              0.0000  YZZ=             -0.0000
  YYZ=             -1.4156  XYZ=             -0.0000
 Hexadecapole moment (field-independent basis, Debye-Ang**3):
 XXXX=             -6.7391 YYYY=             -5.9954 ZZZZ=             -7.2685 XXXY=             -0.0000
 XXXZ=             -0.0000 YYYX=             -0.0000 YYYZ=              0.0000 ZZZX=             -0.0000
 ZZZY=              0.0000 XXYY=             -2.4520 XXZZ=             -2.3860 YYZZ=             -1.8527
 XXYZ=              0.0000 YYXZ=              0.0000 ZZXY=              0.0000
 N-N= 9.155982133459D+00 E-N=-1.989161292957D+02  KE= 7.594307321512D+01
 Symmetry A1   KE= 6.790345143138D+01
 Symmetry A2   KE= 9.923222199736D-30
 Symmetry B1   KE= 4.467207986952D+00
 Symmetry B2   KE= 3.572413796787D+00
 1\1\GINC-X1002C5S4B0N1\FOpt\RMP2-FC\Aug-CC-pVTZ\H2O1\ZHANGX5\03-Dec-20
 24\0\\# MP2/aug-cc-pVTZ Opt Freq\\Water molecule - MP2 calculation\\0,
 1\O,0.,0.,0.1158019903\H,0.,0.7581692481,-0.4753179951\H,0.,-0.7581692
 481,-0.4753179951\\Version=ES64L-G16RevB.01\State=1-A1\HF=-76.0602819\
 MP2=-76.3289923\RMSD=2.731e-09\RMSF=6.425e-06\Dipole=0.,0.,-0.7315228\
 PG=C02V [C2(O1),SGV(H2)]\\@


 A MAN IS NEVER SO BRILLIANT AS WHEN HE TAKES THE WORDS RIGHT OUT
 OF YOUR MOUTH. -- ARNOT SHEPPARD, JR.
 Job cpu time:       0 days  0 hours  2 minutes 46.0 seconds.
 Elapsed time:       0 days  0 hours  0 minutes  7.7 seconds.
 File lengths (MBytes):  RWF=     10 Int=      0 D2E=      0 Chk=      2 Scr=      1
 Normal termination of Gaussian 16 at Tue Dec  3 12:05:44 2024.
 Link1:  Proceeding to internal job step number  2.
 ----------------------------------------------------------------------
 #N Geom=AllCheck Guess=TCheck SCRF=Check GenChk RMP2(FC)/Aug-CC-pVTZ F
 req
 ----------------------------------------------------------------------
 1/10=4,29=7,30=1,38=1,40=1/1,3;
 2/12=2,40=1/2;
 3/5=16,6=1,7=10,11=1,14=-4,25=1,30=1,70=2,71=2,116=1,140=1/1,2,3;
 4/5=101/1;
 5/5=2,38=6,98=1/2;
 8/6=3,8=1,10=1,19=11,30=-1/1;
 9/15=3,16=-3/6;
 11/6=1,8=1,15=11,17=12,24=-1,27=1,28=-2,29=300,32=6,42=3/1,2,10;
 10/6=2,21=1/2;
 8/6=4,8=1,10=1,19=11,30=-1/11,4;
 10/5=1,20=4/2;
 11/12=2,14=11,16=1,17=2,28=-2,42=3,76=2/2,10,12;
 6/7=2,8=2,9=2,10=2/1;
 7/8=1,10=1,12=2,25=1,44=2/1,2,3,16;
 1/10=4,30=1/3;
 99//99;
 Structure from the checkpoint file:  "water_mp2.chk"
 --------------------------------
 Water molecule - MP2 calculation
 --------------------------------
 Charge =  0 Multiplicity = 1
 Redundant internal coordinates found in file.  (old form).
 O,0,0.,0.,0.1158019903
 H,0,0.,0.7581692481,-0.4753179951
 H,0,0.,-0.7581692481,-0.4753179951
 Recover connectivity data from disk.

 GradGradGradGradGradGradGradGradGradGradGradGradGradGradGradGradGradGrad
 Berny optimization.
 Initialization pass.
                           ----------------------------
                           !    Initial Parameters    !
                           ! (Angstroms and Degrees)  !
 --------------------------                            --------------------------
 ! Name  Definition              Value          Derivative Info.                !
 --------------------------------------------------------------------------------
 ! R1    R(1,2)                  0.9614         calculate D2E/DX2 analytically  !
 ! R2    R(1,3)                  0.9614         calculate D2E/DX2 analytically  !
 ! A1    A(2,1,3)              104.1152         calculate D2E/DX2 analytically  !
 --------------------------------------------------------------------------------
 Trust Radius=3.00D-01 FncErr=1.00D-07 GrdErr=1.00D-07 EigMax=2.50D+02 EigMin=1.00D-04
 Number of steps in this run=      2 maximum allowed number of steps=      2.
 GradGradGradGradGradGradGradGradGradGradGradGradGradGradGradGradGradGrad

                          Input orientation:                          
 ---------------------------------------------------------------------
 Center     Atomic      Atomic             Coordinates (Angstroms)
 Number     Number       Type             X           Y           Z
 ---------------------------------------------------------------------
      1          8           0        0.000000   -0.000000    0.115802
      2          1           0        0.000000    0.758169   -0.475318
      3          1           0       -0.000000   -0.758169   -0.475318
 ---------------------------------------------------------------------
                    Distance matrix (angstroms):
                    1          2          3
     1  O    0.000000
     2  H    0.961376   0.000000
     3  H    0.961376   1.516338   0.000000
 Stoichiometry    H2O
 Framework group  C2V[C2(O),SGV(H2)]
 Deg. of freedom     2
 Full point group                 C2V     NOp   4
 Largest Abelian subgroup         C2V     NOp   4
 Largest concise Abelian subgroup C2      NOp   2
                         Standard orientation:                         
 ---------------------------------------------------------------------
 Center     Atomic      Atomic             Coordinates (Angstroms)
 Number     Number       Type             X           Y           Z
 ---------------------------------------------------------------------
      1          8           0       -0.000000    0.000000    0.118224
      2          1           0        0.000000    0.758169   -0.472896
      3          1           0       -0.000000   -0.758169   -0.472896
 ---------------------------------------------------------------------
 Rotational constants (GHZ):         807.9717542         436.1839997         283.2638520
 Standard basis: Aug-CC-pVTZ (5D, 7F)
 There are    42 symmetry adapted cartesian basis functions of A1  symmetry.
 There are    12 symmetry adapted cartesian basis functions of A2  symmetry.
 There are    20 symmetry adapted cartesian basis functions of B1  symmetry.
 There are    31 symmetry adapted cartesian basis functions of B2  symmetry.
 There are    35 symmetry adapted basis functions of A1  symmetry.
 There are    12 symmetry adapted basis functions of A2  symmetry.
 There are    18 symmetry adapted basis functions of B1  symmetry.
 There are    27 symmetry adapted basis functions of B2  symmetry.
    92 basis functions,   126 primitive gaussians,   105 cartesian basis functions
     5 alpha electrons        5 beta electrons
       nuclear repulsion energy         9.1559821335 Hartrees.
 NAtoms=    3 NActive=    3 NUniq=    2 SFac= 2.25D+00 NAtFMM=   60 NAOKFM=F Big=F
 Integral buffers will be    131072 words long.
 Raffenetti 1 integral format.
 Two-electron integral symmetry is turned on.
 One-electron integrals computed using PRISM.
 NBasis=    92 RedAO= T EigKep=  3.89D-04  NBF=    35    12    18    27
 NBsUse=    92 1.00D-06 EigRej= -1.00D+00 NBFU=    35    12    18    27
 Initial guess from the checkpoint file:  "water_mp2.chk"
 B after Tr=    -0.000000   -0.000000   -0.000000
         Rot=    1.000000   -0.000000   -0.000000    0.000000 Ang=   0.00 deg.
 Initial guess orbital symmetries:
       Occupied  (A1) (A1) (B2) (A1) (B1)
       Virtual   (A1) (B2) (A1) (B1) (A1) (B2) (B2) (A1) (A2) (B1)
                 (A1) (B2) (A1) (B2) (B2) (A1) (A1) (A2) (B1) (A1)
                 (B1) (A1) (B2) (B1) (A2) (B2) (A1) (A1) (B2) (B1)
                 (B2) (A2) (A1) (B2) (A2) (A1) (B1) (A1) (B2) (B2)
                 (A1) (B1) (A2) (A1) (A1) (B1) (B2) (A1) (B2) (B1)
                 (A1) (B2) (A2) (B2) (A1) (A2) (B1) (A1) (B2) (B1)
                 (A1) (A2) (B1) (B2) (A1) (B2) (A2) (B2) (B2) (A1)
                 (B1) (A1) (A1) (B2) (B1) (A1) (B1) (B1) (B2) (A2)
                 (A1) (A2) (A1) (A1) (B2) (B2) (A1)
 Keep R1 ints in memory in symmetry-blocked form, NReq=20867205.
 Requested convergence on RMS density matrix=1.00D-08 within 128 cycles.
 Requested convergence on MAX density matrix=1.00D-06.
 Requested convergence on             energy=1.00D-06.
 No special actions if energy rises.
 SCF Done:  E(RHF) =  -76.0602819306     A.U. after    1 cycles
            NFock=  1  Conv=0.39D-09     -V/T= 2.0015
 ExpMin= 2.53D-02 ExpMax= 1.53D+04 ExpMxC= 5.22D+02 IAcc=3 IRadAn=         5 AccDes= 0.00D+00
 HarFok:  IExCor=  205 AccDes= 0.00D+00 IRadAn=         5 IDoV=-2 UseB2=F ITyADJ=14
 ICtDFT= 12500011 ScaDFX=  1.000000  1.000000  1.000000  1.000000
 Range of M.O.s used for correlation:     2    92
 NBasis=    92 NAE=     5 NBE=     5 NFC=     1 NFV=     0
 NROrb=     91 NOA=     4 NOB=     4 NVA=    87 NVB=    87

 **** Warning!!: The largest alpha MO coefficient is  0.15875224D+02

 Disk-based method using ON**2 memory for  4 occupieds at a time.
 Permanent disk used for amplitudes=      226635 words.
 Estimated scratch disk usage=     5978600 words.
 Actual    scratch disk usage=     5978600 words.
 JobTyp=1 Pass  1:  I=   2 to   5 NPSUse= 24 ParTrn=T ParDer=T DoDerP=T.
 (rs|ai) integrals will be sorted in core.
 Spin components of T(2) and E(2):
     alpha-alpha T2 =       0.8158759434D-02 E2=     -0.3261010388D-01
     alpha-beta  T2 =       0.4738449004D-01 E2=     -0.2034901859D+00
     beta-beta   T2 =       0.8158759434D-02 E2=     -0.3261010388D-01
 ANorm=    0.1031359302D+01
 E2 =    -0.2687103937D+00 EUMP2 =    -0.76328992324258D+02
 G2DrvN: will do     4 centers at a time, making    1 passes.
 Calling FoFCou, ICntrl=  3107 FMM=F I1Cent=   0 AccDes= 0.00D+00.
 End of G2Drv F.D. properties file   721 does not exist.
 End of G2Drv F.D. properties file   722 does not exist.
 End of G2Drv F.D. properties file   788 does not exist.
          IDoAtm=111
          Differentiating once with respect to electric field.
                with respect to dipole field.
          Differentiating once with respect to nuclear coordinates.
 Keep R1 ints in memory in symmetry-blocked form, NReq=20867945.
          There are    12 degrees of freedom in the 1st order CPHF.  IDoFFX=6 NUNeed=    12.
      9 vectors produced by pass  0 Test12= 3.62D-15 8.33D-09 XBig12= 1.91D+00 5.63D-01.
 AX will form     9 AO Fock derivatives at one time.
      9 vectors produced by pass  1 Test12= 3.62D-15 8.33D-09 XBig12= 1.13D-01 1.08D-01.
      9 vectors produced by pass  2 Test12= 3.62D-15 8.33D-09 XBig12= 3.23D-03 2.03D-02.
      9 vectors produced by pass  3 Test12= 3.62D-15 8.33D-09 XBig12= 4.45D-05 1.88D-03.
      9 vectors produced by pass  4 Test12= 3.62D-15 8.33D-09 XBig12= 7.31D-07 4.12D-04.
      9 vectors produced by pass  5 Test12= 3.62D-15 8.33D-09 XBig12= 3.55D-09 1.78D-05.
      7 vectors produced by pass  6 Test12= 3.62D-15 8.33D-09 XBig12= 1.06D-11 1.22D-06.
      3 vectors produced by pass  7 Test12= 3.62D-15 8.33D-09 XBig12= 7.05D-14 8.01D-08.
 InvSVY:  IOpt=1 It=  1 EMax= 4.44D-16
 Solved reduced A of dimension    64 with     9 vectors.
 End of Minotr F.D. properties file   721 does not exist.
 End of Minotr F.D. properties file   722 does not exist.
 End of Minotr F.D. properties file   788 does not exist.
 MDV=  2684354560.
 Form MO integral derivatives with frozen-active canonical formalism.
 Discarding MO integrals.
 Reordered first order wavefunction length =       378450
 In DefCFB: NBatch=  1 ICI=  5 ICA= 87 LFMax= 44
            Large arrays: LIAPS=    16808400 LIARS=    17584875 words.
 Semi-Direct transformation.
 ModeAB=           4 MOrb=             5 LenV=    2683966210
 LASXX=      1858375 LTotXX=     1858375 LenRXX=     3776950
 LTotAB=     1918575 MaxLAS=     1743400 LenRXY=           0
 NonZer=     5635325 LenScr=     9216000 LnRSAI=     1743400
 LnScr1=     3266560 LExtra=           0 Total=     18002910
 MaxDsk=          -1 SrtSym=           T ITran=            4
 JobTyp=0 Pass  1:  I=   1 to   5.
 (rs|ai) integrals will be sorted in core.
 Spin components of T(2) and E(2):
     alpha-alpha T2 =       0.8158759434D-02 E2=     -0.3261010388D-01
     alpha-beta  T2 =       0.4738449004D-01 E2=     -0.2034901859D+00
     beta-beta   T2 =       0.8158759434D-02 E2=     -0.3261010388D-01
 ANorm=    0.1458562312D+01
 E2 =    -0.2687103937D+00 EUMP2 =    -0.76328992324258D+02
          IDoAtm=111
          Differentiating once with respect to electric field.
                with respect to dipole field.
          Differentiating once with respect to nuclear coordinates.
          There are     1 degrees of freedom in the 1st order CPHF.  IDoFFX=0 NUNeed=     1.
 LinEq1:  Iter=  0 NonCon=     1 RMS=4.65D-03 Max=4.92D-02 NDo=     1
 LinEq1:  Iter=  1 NonCon=     1 RMS=6.31D-04 Max=4.82D-03 NDo=     1
 LinEq1:  Iter=  2 NonCon=     1 RMS=2.30D-04 Max=1.98D-03 NDo=     1
 LinEq1:  Iter=  3 NonCon=     1 RMS=6.19D-05 Max=4.64D-04 NDo=     1
 LinEq1:  Iter=  4 NonCon=     1 RMS=9.50D-06 Max=6.36D-05 NDo=     1
 LinEq1:  Iter=  5 NonCon=     1 RMS=1.61D-06 Max=1.10D-05 NDo=     1
 LinEq1:  Iter=  6 NonCon=     1 RMS=2.42D-07 Max=1.75D-06 NDo=     1
 LinEq1:  Iter=  7 NonCon=     1 RMS=2.77D-08 Max=2.37D-07 NDo=     1
 LinEq1:  Iter=  8 NonCon=     1 RMS=3.32D-09 Max=3.46D-08 NDo=     1
 LinEq1:  Iter=  9 NonCon=     1 RMS=3.24D-10 Max=2.14D-09 NDo=     1
 LinEq1:  Iter= 10 NonCon=     0 RMS=2.44D-11 Max=2.14D-10 NDo=     1
 Linear equations converged to 1.000D-10 1.000D-09 after    10 iterations.
 End of Minotr F.D. properties file   721 does not exist.
 End of Minotr F.D. properties file   722 does not exist.
 End of Minotr F.D. properties file   788 does not exist.
 Symmetrizing basis deriv contribution to polar:
 IMax=3 JMax=2 DiffMx= 0.00D+00
 G2DrvN: will do     4 centers at a time, making    1 passes.
 Calling FoFCou, ICntrl=  3107 FMM=F I1Cent=   0 AccDes= 0.00D+00.
 End of G2Drv F.D. properties file   721 does not exist.
 End of G2Drv F.D. properties file   722 does not exist.
 End of G2Drv F.D. properties file   788 does not exist.
 R2 and R3 integrals will be kept in memory, NReq=    32914790.
 DD1Dir will call FoFMem   1 times, MxPair=        30
 NAB=    15 NAA=     0 NBB=     0.
 Discarding MO integrals.

 **********************************************************************

            Population analysis using the SCF Density.

 **********************************************************************

 Orbital symmetries:
       Occupied  (A1) (A1) (B2) (A1) (B1)
       Virtual   (A1) (B2) (A1) (B1) (A1) (B2) (B2) (A1) (A2) (B1)
                 (A1) (B2) (A1) (B2) (B2) (A1) (A1) (A2) (B1) (A1)
                 (B1) (A1) (B2) (B1) (A2) (B2) (A1) (A1) (B2) (B1)
                 (B2) (A2) (A1) (B2) (A2) (A1) (B1) (A1) (B2) (B2)
                 (A1) (B1) (A2) (A1) (A1) (B1) (B2) (A1) (B2) (B1)
                 (A1) (B2) (A2) (B2) (A1) (A2) (B1) (A1) (B2) (B1)
                 (A1) (A2) (B1) (B2) (A1) (B2) (A2) (B2) (B2) (A1)
                 (B1) (A1) (A1) (B2) (B1) (A1) (B1) (B1) (B2) (A2)
                 (A1) (A2) (A1) (A1) (B2) (B2) (A1)
 The electronic state is 1-A1.
 Alpha  occ. eigenvalues --  -20.56810  -1.35176  -0.71481  -0.58493  -0.51014
 Alpha virt. eigenvalues --    0.02937   0.04769   0.13589   0.15878   0.17516
 Alpha virt. eigenvalues --    0.18308   0.22712   0.24492   0.26539   0.30001
 Alpha virt. eigenvalues --    0.31013   0.36578   0.43732   0.46602   0.59918
 Alpha virt. eigenvalues --    0.65846   0.70795   0.72264   0.73166   0.83050
 Alpha virt. eigenvalues --    0.84632   0.89220   0.91246   0.91826   0.92235
 Alpha virt. eigenvalues --    0.93077   0.96137   1.02081   1.04306   1.08248
 Alpha virt. eigenvalues --    1.10840   1.17613   1.18177   1.26102   1.51003
 Alpha virt. eigenvalues --    1.53508   1.58254   1.80530   1.82019   1.98379
 Alpha virt. eigenvalues --    2.11712   2.26258   2.31561   2.32674   2.41818
 Alpha virt. eigenvalues --    2.42047   2.44303   2.47951   2.67731   2.69803
 Alpha virt. eigenvalues --    2.77059   2.81536   2.88378   3.65197   3.74074
 Alpha virt. eigenvalues --    4.01739   4.08243   4.16340   4.24667   4.28689
 Alpha virt. eigenvalues --    4.37414   4.37697   4.40440   4.51691   4.72415
 Alpha virt. eigenvalues --    4.84186   5.14719   5.14743   5.24902   5.32163
 Alpha virt. eigenvalues --    5.52008   5.66142   6.17663   6.51309   6.70879
 Alpha virt. eigenvalues --    6.89688   7.13104   7.25084   7.29831   7.31105
 Alpha virt. eigenvalues --    7.32815   7.35417   7.52987   7.89576   7.92102
 Alpha virt. eigenvalues --    8.79831  15.70360
          Condensed to atoms (all electrons):
               1          2          3
     1  O    7.904271   0.270282   0.270282
     2  H    0.270282   0.487668   0.019633
     3  H    0.270282   0.019633   0.487668
 Mulliken charges:
               1
     1  O   -0.444834
     2  H    0.222417
     3  H    0.222417
 Sum of Mulliken charges =   0.00000
 Mulliken charges with hydrogens summed into heavy atoms:
               1
     1  O    0.000000
 APT charges:
               1
     1  O   -0.512735
     2  H    0.256368
     3  H    0.256368
 Sum of APT charges =   0.00000
 APT charges with hydrogens summed into heavy atoms:
               1
     1  O    0.000000
 Electronic spatial extent (au):  <R**2>=             19.5253
 Charge=             -0.0000 electrons
 Dipole moment (field-independent basis, Debye):
    X=             -0.0000    Y=              0.0000    Z=             -1.9925  Tot=              1.9925
 Quadrupole moment (field-independent basis, Debye-Ang):
   XX=             -7.5669   YY=             -4.2534   ZZ=             -6.2346
   XY=              0.0000   XZ=              0.0000   YZ=             -0.0000
 Traceless Quadrupole moment (field-independent basis, Debye-Ang):
   XX=             -1.5486   YY=              1.7649   ZZ=             -0.2163
   XY=              0.0000   XZ=              0.0000   YZ=             -0.0000
 Octapole moment (field-independent basis, Debye-Ang**2):
  XXX=              0.0000  YYY=              0.0000  ZZZ=             -1.1473  XYY=             -0.0000
  XXY=             -0.0000  XXZ=             -0.2525  XZZ=              0.0000  YZZ=              0.0000
  YYZ=             -1.4156  XYZ=             -0.0000
 Hexadecapole moment (field-independent basis, Debye-Ang**3):
 XXXX=             -6.7391 YYYY=             -5.9954 ZZZZ=             -7.2685 XXXY=             -0.0000
 XXXZ=             -0.0000 YYYX=             -0.0000 YYYZ=             -0.0000 ZZZX=             -0.0000
 ZZZY=              0.0000 XXYY=             -2.4520 XXZZ=             -2.3860 YYZZ=             -1.8527
 XXYZ=             -0.0000 YYXZ=              0.0000 ZZXY=              0.0000
 N-N= 9.155982133459D+00 E-N=-1.989161293948D+02  KE= 7.594307327009D+01
 Symmetry A1   KE= 6.790345156002D+01
 Symmetry A2   KE= 3.354128732575D-31
 Symmetry B1   KE= 4.467207931948D+00
 Symmetry B2   KE= 3.572413778120D+00
  Exact polarizability:   9.249   0.000  10.018   0.000  -0.000   9.553
 Approx polarizability:   6.199   0.000   7.863   0.000   0.000   7.272
 Calling FoFJK, ICntrl=  10100127 FMM=F ISym2X=1 I1Cent= 0 IOpClX= 0 NMat=1 NMatS=1 NMatT=0.
 Full mass-weighted force constant matrix:
 Low frequencies ---   -7.6348   -0.0009    0.0012    0.0017   11.6284   15.4680
 Low frequencies --- 1628.3334 3821.7812 3947.6507
 Diagonal vibrational polarizability:
        0.0000000       0.1303527       0.7378409
 Harmonic frequencies (cm**-1), IR intensities (KM/Mole), Raman scattering
 activities (A**4/AMU), depolarization ratios for plane and unpolarized
 incident light, reduced masses (AMU), force constants (mDyne/A),
 and normal coordinates:
                      1                      2                      3
                     A1                     A1                     B2
 Frequencies --   1628.3334              3821.7812              3947.6507
 Red. masses --      1.0828                 1.0450                 1.0815
 Frc consts  --      1.6916                 8.9932                 9.9299
 IR Inten    --     71.6875                 5.5605                75.4856
  Atom  AN      X      Y      Z        X      Y      Z        X      Y      Z
     1   8    -0.00  -0.00  -0.07     0.00   0.00   0.05    -0.00  -0.07   0.00
     2   1     0.00   0.43   0.56     0.00   0.59  -0.40     0.00   0.56  -0.43
     3   1     0.00  -0.43   0.56    -0.00  -0.59  -0.40     0.00   0.56   0.43

 -------------------
 - Thermochemistry -
 -------------------
 Temperature   298.150 Kelvin.  Pressure   1.00000 Atm.
 Atom     1 has atomic number  8 and mass  15.99491
 Atom     2 has atomic number  1 and mass   1.00783
 Atom     3 has atomic number  1 and mass   1.00783
 Molecular mass:    18.01056 amu.
 Principal axes and moments of inertia in atomic units:
                           1         2         3
     Eigenvalues --     2.23367   4.13757   6.37124
           X           -0.00000   0.00000   1.00000
           Y            1.00000   0.00000   0.00000
           Z           -0.00000   1.00000   0.00000
 This molecule is an asymmetric top.
 Rotational symmetry number  2.
 Rotational temperatures (Kelvin)     38.77653    20.93353    13.59452
 Rotational constants (GHZ):         807.97175   436.18400   283.26385
 Zero-point vibrational energy      56211.1 (Joules/Mol)
                                   13.43478 (Kcal/Mol)
 Vibrational temperatures:   2342.81  5498.69  5679.79
          (Kelvin)
 
 Zero-point correction=                           0.021410 (Hartree/Particle)
 Thermal correction to Energy=                    0.024245
 Thermal correction to Enthalpy=                  0.025189
 Thermal correction to Gibbs Free Energy=         0.003766
 Sum of electronic and zero-point Energies=            -76.307583
 Sum of electronic and thermal Energies=               -76.304747
 Sum of electronic and thermal Enthalpies=             -76.303803
 Sum of electronic and thermal Free Energies=          -76.325227
 
                     E (Thermal)             CV                S
                      KCal/Mol        Cal/Mol-Kelvin    Cal/Mol-Kelvin
 Total                   15.214              6.009             45.090
 Electronic               0.000              0.000              0.000
 Translational            0.889              2.981             34.608
 Rotational               0.889              2.981             10.475
 Vibrational             13.437              0.047              0.007
                       Q            Log10(Q)             Ln(Q)
 Total Bot       0.185336D-01         -1.732040         -3.988170
 Total V=0       0.130534D+09          8.115722         18.687141
 Vib (Bot)       0.142038D-09         -9.847595        -22.674925
 Vib (V=0)       0.100039D+01          0.000168          0.000387
 Electronic      0.100000D+01          0.000000          0.000000
 Translational   0.300431D+07          6.477745         14.915559
 Rotational      0.434320D+02          1.637809          3.771196
 ***** Axes restored to original set *****
 -------------------------------------------------------------------
 Center     Atomic                   Forces (Hartrees/Bohr)
 Number     Number              X              Y              Z
 -------------------------------------------------------------------
      1        8          -0.000000000    0.000000000    0.000004419
      2        1          -0.000000000   -0.000013079   -0.000002210
      3        1           0.000000000    0.000013079   -0.000002210
 -------------------------------------------------------------------
 Cartesian Forces:  Max     0.000013079 RMS     0.000006424
 FormGI is forming the generalized inverse of G from B-inverse, IUseBI=4.

 GradGradGradGradGradGradGradGradGradGradGradGradGradGradGradGradGradGrad
 Berny optimization.
 Internal  Forces:  Max     0.000017776 RMS     0.000012601
 Search for a local minimum.
 Step number   1 out of a maximum of    2
 All quantities printed in internal units (Hartrees-Bohrs-Radians)
 Second derivative matrix not updated -- analytic derivatives used.
 The second derivative matrix:
                          R1        R2        A1
           R1           0.54230
           R2          -0.00886   0.54230
           A1           0.03199   0.03199   0.15860
 ITU=  0
     Eigenvalues ---    0.15322   0.53882   0.55117
 Angle between quadratic step and forces=  27.77 degrees.
 Linear search not attempted -- first point.
 Iteration  1 RMS(Cart)=  0.00006511 RMS(Int)=  0.00000000
 Iteration  2 RMS(Cart)=  0.00000000 RMS(Int)=  0.00000000
 ClnCor:  largest displacement from symmetrization is 1.36D-15 for atom     3.
 Variable       Old X    -DE/DX   Delta X   Delta X   Delta X     New X
                                 (Linear)    (Quad)   (Total)
    R1        1.81674  -0.00001   0.00000  -0.00001  -0.00001   1.81673
    R2        1.81674  -0.00001   0.00000  -0.00001  -0.00001   1.81673
    A1        1.81715  -0.00002   0.00000  -0.00011  -0.00011   1.81705
         Item               Value     Threshold  Converged?
 Maximum Force            0.000018     0.000450     YES
 RMS     Force            0.000013     0.000300     YES
 Maximum Displacement     0.000068     0.001800     YES
 RMS     Displacement     0.000065     0.001200     YES
 Predicted change in Energy=-1.051523D-09
 Optimization completed.
    -- Stationary point found.
                           ----------------------------
                           !   Optimized Parameters   !
                           ! (Angstroms and Degrees)  !
 --------------------------                            --------------------------
 ! Name  Definition              Value          Derivative Info.                !
 --------------------------------------------------------------------------------
 ! R1    R(1,2)                  0.9614         -DE/DX =    0.0                 !
 ! R2    R(1,3)                  0.9614         -DE/DX =    0.0                 !
 ! A1    A(2,1,3)              104.1152         -DE/DX =    0.0                 !
 --------------------------------------------------------------------------------
 GradGradGradGradGradGradGradGradGradGradGradGradGradGradGradGradGradGrad


 ----------------------------------------------------------------------

 Electric dipole moment (input orientation):
 (Debye = 10**-18 statcoulomb cm , SI units = C m)
                  (au)            (Debye)         (10**-30 SI)
   Tot        0.731523D+00      0.185935D+01      0.620211D+01
   x          0.000000D+00      0.000000D+00      0.000000D+00
   y          0.000000D+00      0.000000D+00      0.000000D+00
   z         -0.731523D+00     -0.185935D+01     -0.620211D+01

 Dipole polarizability, Alpha (input orientation).
 (esu units = cm**3 , SI units = C**2 m**2 J**-1)
 Alpha(0;0):
               (au)            (10**-24 esu)      (10**-40 SI)
   iso        0.960670D+01      0.142357D+01      0.158393D+01
   aniso      0.670973D+00      0.994279D-01      0.110628D+00
   xx         0.924892D+01      0.137055D+01      0.152494D+01
   yx         0.000000D+00      0.000000D+00      0.000000D+00
   yy         0.100181D+02      0.148453D+01      0.165176D+01
   zx         0.000000D+00      0.000000D+00      0.000000D+00
   zy         0.000000D+00      0.000000D+00      0.000000D+00
   zz         0.955308D+01      0.141562D+01      0.157509D+01

 ----------------------------------------------------------------------

 Dipole orientation:
     8         -0.00000000          0.00000000         -0.21883405
     1          0.00000000         -1.43273223          0.89822083
     1         -0.00000000          1.43273223          0.89822083

 Electric dipole moment (dipole orientation):
 (Debye = 10**-18 statcoulomb cm , SI units = C m)
                  (au)            (Debye)         (10**-30 SI)
   Tot        0.731523D+00      0.185935D+01      0.620211D+01
   x          0.000000D+00      0.000000D+00      0.000000D+00
   y          0.000000D+00      0.000000D+00      0.000000D+00
   z          0.731523D+00      0.185935D+01      0.620211D+01

 Dipole polarizability, Alpha (dipole orientation).
 (esu units = cm**3 , SI units = C**2 m**2 J**-1)
 Alpha(0;0):
               (au)            (10**-24 esu)      (10**-40 SI)
   iso        0.960670D+01      0.142357D+01      0.158393D+01
   aniso      0.670973D+00      0.994279D-01      0.110628D+00
   xx         0.924892D+01      0.137055D+01      0.152494D+01
   yx         0.000000D+00      0.000000D+00      0.000000D+00
   yy         0.100181D+02      0.148453D+01      0.165176D+01
   zx         0.000000D+00      0.000000D+00      0.000000D+00
   zy         0.000000D+00      0.000000D+00      0.000000D+00
   zz         0.955308D+01      0.141562D+01      0.157509D+01

 ----------------------------------------------------------------------
 1\1\GINC-X1002C5S4B0N1\Freq\RMP2-FC\Aug-CC-pVTZ\H2O1\ZHANGX5\03-Dec-20
 24\0\\#N Geom=AllCheck Guess=TCheck SCRF=Check GenChk RMP2(FC)/Aug-CC-
 pVTZ Freq\\Water molecule - MP2 calculation\\0,1\O,0.,0.,0.1158019903\
 H,0.,0.7581692481,-0.4753179951\H,0.,-0.7581692481,-0.4753179951\\Vers
 ion=ES64L-G16RevB.01\State=1-A1\HF=-76.0602819\MP2=-76.3289923\RMSD=3.
 949e-10\RMSF=6.424e-06\ZeroPoint=0.0214097\Thermal=0.0242451\Dipole=0.
 ,0.,-0.7315227\DipoleDeriv=-0.6548673,0.,0.,0.,-0.5296089,0.,0.,0.,-0.
 35373,0.3274337,0.,0.,0.,0.2648044,0.0686005,0.,0.04883,0.176865,0.327
 4337,0.,0.,0.,0.2648044,-0.0686005,0.,-0.04883,0.176865\Polar=9.248919
 7,0.,10.0181055,0.,0.,9.5530796\PG=C02V [C2(O1),SGV(H2)]\NImag=0\\-0.0
 0000395,0.,0.68557699,0.,0.,0.45459447,0.00000197,0.,0.,0.00000358,0.,
 -0.34278850,0.20347376,0.,0.37252090,0.,0.26726263,-0.22729723,0.,-0.2
 3536820,0.21784120,0.00000197,0.,0.,-0.00000555,0.,0.,0.00000358,0.,-0
 .34278850,-0.20347376,0.,-0.02973240,-0.03189443,0.,0.37252090,0.,-0.2
 6726263,-0.22729723,0.,0.03189443,0.00945604,0.,0.23536820,0.21784120\
 \0.,0.,-0.00000442,0.,0.00001308,0.00000221,0.,-0.00001308,0.00000221\
 \\@


 THERE'S NOTHING SO GREAT AS THE GREAT OUTDOORS.

                                       -- ZIGGY
 Job cpu time:       0 days  0 hours  4 minutes 57.3 seconds.
 Elapsed time:       0 days  0 hours  0 minutes 12.7 seconds.
 File lengths (MBytes):  RWF=    283 Int=      0 D2E=      0 Chk=      2 Scr=      1
 Normal termination of Gaussian 16 at Tue Dec  3 12:09:24 2024.
