3
water_mp2.xyz    Empirical formula: H2O    Energy(Hartree): -76.328992    
O        0.0000000000    0.0000000000    0.1182240000
H       -0.0000000000    0.7581690000   -0.4728960000
H       -0.0000000000   -0.7581690000   -0.4728960000
