43
carbene3_opt.xyz    Empirical formula: C23H17N3    Energy(Hartree): -1048.765295    
N        0.1588020000    2.0592270000   -0.1217170000
C       -2.1464790000    1.2364990000   -0.2214690000
C       -1.1725390000    2.2799090000   -0.2876200000
C       -3.5062220000    1.5539380000   -0.4911410000
C       -1.6772800000   -0.0833040000    0.0889970000
C       -1.5957400000    3.6077600000   -0.5674930000
C       -3.8847960000    2.8483480000   -0.7716430000
C       -2.9224460000    3.8877650000   -0.7984920000
C       -0.3195640000   -0.2659590000    0.2486300000
C        0.5600060000    0.8436760000    0.1219170000
H       -4.2492060000    0.7545780000   -0.4902810000
H       -0.8220980000    4.3767470000   -0.5976950000
H       -4.9322640000    3.0744800000   -0.9820950000
H       -3.2370050000    4.9107450000   -1.0164230000
H        0.0788250000   -1.2441760000    0.5263300000
N        3.9727030000    0.8678470000    0.9854950000
N        1.9535550000    0.6247510000    0.2982190000
C        3.9922390000   -0.2534790000    0.1622390000
C        5.1417190000    1.3746820000    1.6670180000
C        2.7398510000    1.4329480000    1.0886030000
C        2.6753520000   -0.4199700000   -0.2905660000
H        5.5587860000    0.6172000000    2.3485950000
H        5.9212930000    1.6651780000    0.9457780000
H        4.8353610000    2.2543110000    2.2440510000
C        2.3476040000   -1.4426930000   -1.1823260000
C        5.0195550000   -1.1094210000   -0.2318770000
C        3.3747060000   -2.3018410000   -1.5798040000
H        1.3324790000   -1.5643460000   -1.5644580000
C        4.6878760000   -2.1429390000   -1.1097500000
H        6.0414720000   -0.9722730000    0.1276160000
H        3.1506330000   -3.1128670000   -2.2756980000
H        5.4637000000   -2.8353910000   -1.4425900000
C       -2.5915020000   -1.2420480000    0.2617390000
C       -2.3379620000   -2.4410970000   -0.4210220000
C       -3.6812730000   -1.1854060000    1.1454770000
C       -3.1598330000   -3.5532340000   -0.2366640000
H       -1.4923830000   -2.4905180000   -1.1125760000
C       -4.4991800000   -2.2991120000    1.3339280000
H       -3.8716240000   -0.2642370000    1.7018830000
C       -4.2433360000   -3.4846330000    0.6408230000
H       -2.9538750000   -4.4764850000   -0.7825260000
H       -5.3375080000   -2.2430760000    2.0317380000
H       -4.8865470000   -4.3549850000    0.7873560000
