 Entering Gaussian System, Link 0=/project/xlzhang/shared/bin/g16/g16
 Input=/scratch/s1/xlzhang/lewen/carbene2_opt/carbene2_opt.com
 Output=/scratch/s1/xlzhang/lewen/carbene2_opt/carbene2_opt.log
 Initial command:
 /project/xlzhang/shared/bin/g16/l1.exe "/lustre/scratch/xlzhang/lewen/carbene2_opt/Gau-3800104.inp" -scrdir="/lustre/scratch/xlzhang/lewen/carbene2_opt/"
 Entering Link 1 = /project/xlzhang/shared/bin/g16/l1.exe PID=   3800105.
  
 Copyright (c) 1988-2017, Gaussian, Inc.  All Rights Reserved.
  
 This is part of the Gaussian(R) 16 program.  It is based on
 the Gaussian(R) 09 system (copyright 2009, Gaussian, Inc.),
 the Gaussian(R) 03 system (copyright 2003, Gaussian, Inc.),
 the Gaussian(R) 98 system (copyright 1998, Gaussian, Inc.),
 the Gaussian(R) 94 system (copyright 1995, Gaussian, Inc.),
 the Gaussian 92(TM) system (copyright 1992, Gaussian, Inc.),
 the Gaussian 90(TM) system (copyright 1990, Gaussian, Inc.),
 the Gaussian 88(TM) system (copyright 1988, Gaussian, Inc.),
 the Gaussian 86(TM) system (copyright 1986, Carnegie Mellon
 University), and the Gaussian 82(TM) system (copyright 1983,
 Carnegie Mellon University). Gaussian is a federally registered
 trademark of Gaussian, Inc.
  
 This software contains proprietary and confidential information,
 including trade secrets, belonging to Gaussian, Inc.
  
 This software is provided under written license and may be
 used, copied, transmitted, or stored only in accord with that
 written license.
  
 The following legend is applicable only to US Government
 contracts under FAR:
  
                    RESTRICTED RIGHTS LEGEND
  
 Use, reproduction and disclosure by the US Government is
 subject to restrictions as set forth in subparagraphs (a)
 and (c) of the Commercial Computer Software - Restricted
 Rights clause in FAR 52.227-19.
  
 Gaussian, Inc.
 340 Quinnipiac St., Bldg. 40, Wallingford CT 06492
  
  
 ---------------------------------------------------------------
 Warning -- This program may not be used in any manner that
 competes with the business of Gaussian, Inc. or will provide
 assistance to any competitor of Gaussian, Inc.  The licensee
 of this program is prohibited from giving any competitor of
 Gaussian, Inc. access to this program.  By using this program,
 the user acknowledges that Gaussian, Inc. is engaged in the
 business of creating and licensing software in the field of
 computational chemistry and represents and warrants to the
 licensee that it is not a competitor of Gaussian, Inc. and that
 it will not use this program in any manner prohibited above.
 ---------------------------------------------------------------
  

 Cite this work as:
 Gaussian 16, Revision B.01,
 M. J. Frisch, G. W. Trucks, H. B. Schlegel, G. E. Scuseria, 
 M. A. Robb, J. R. Cheeseman, G. Scalmani, V. Barone, 
 G. A. Petersson, H. Nakatsuji, X. Li, M. Caricato, A. V. Marenich, 
 J. Bloino, B. G. Janesko, R. Gomperts, B. Mennucci, H. P. Hratchian, 
 J. V. Ortiz, A. F. Izmaylov, J. L. Sonnenberg, D. Williams-Young, 
 F. Ding, F. Lipparini, F. Egidi, J. Goings, B. Peng, A. Petrone, 
 T. Henderson, D. Ranasinghe, V. G. Zakrzewski, J. Gao, N. Rega, 
 G. Zheng, W. Liang, M. Hada, M. Ehara, K. Toyota, R. Fukuda, 
 J. Hasegawa, M. Ishida, T. Nakajima, Y. Honda, O. Kitao, H. Nakai, 
 T. Vreven, K. Throssell, J. A. Montgomery, Jr., J. E. Peralta, 
 F. Ogliaro, M. J. Bearpark, J. J. Heyd, E. N. Brothers, K. N. Kudin, 
 V. N. Staroverov, T. A. Keith, R. Kobayashi, J. Normand, 
 K. Raghavachari, A. P. Rendell, J. C. Burant, S. S. Iyengar, 
 J. Tomasi, M. Cossi, J. M. Millam, M. Klene, C. Adamo, R. Cammi, 
 J. W. Ochterski, R. L. Martin, K. Morokuma, O. Farkas, 
 J. B. Foresman, and D. J. Fox, Gaussian, Inc., Wallingford CT, 2016.
 
 ******************************************
 Gaussian 16:  ES64L-G16RevB.01 20-Dec-2017
                16-Dec-2025 
 ******************************************
 %chk=carbene2_opt.chk
 %nprocshared=64
 Will use up to   64 processors via shared memory.
 %mem=180GB
 -----------------------
 # opt freq mn15 def2svp
 -----------------------
 1/18=20,19=15,26=3,38=1/1,3;
 2/9=110,12=2,17=6,18=5,40=1/2;
 3/5=43,7=101,11=2,25=1,30=1,71=1,74=-73/1,2,3;
 4//1;
 5/5=2,38=5/2;
 6/7=2,8=2,9=2,10=2,28=1/1;
 7//1,2,3,16;
 1/18=20,19=15,26=3/3(2);
 2/9=110/2;
 99//99;
 2/9=110/2;
 3/5=43,7=101,11=2,25=1,30=1,71=1,74=-73/1,2,3;
 4/5=5,16=3,69=1/1;
 5/5=2,38=5/2;
 7//1,2,3,16;
 1/18=20,19=15,26=3/3(-5);
 2/9=110/2;
 6/7=2,8=2,9=2,10=2,19=2,28=1/1;
 99/9=1/99;
 ----------------------------------
 Gaussian job with default settings
 ----------------------------------
 Symbolic Z-matrix:
 Charge =  0 Multiplicity = 1
 N                     1.43282   1.54836   0.00994 
 C                     0.24912  -0.55074   0.00994 
 C                     0.27582   0.85966   0.00994 
 C                    -0.97698  -1.23734   0.00994 
 C                     1.47282  -1.23374   0.00994 
 C                    -0.93998   1.53766   0.00994 
 C                    -2.17808  -0.53384   0.00994 
 C                    -2.15918   0.85526   0.00994 
 C                     2.66662  -0.52684   0.00984 
 C                     2.59212   0.85116   0.01004 
 H                    -1.00298  -2.32484   0.00994 
 H                     1.50222  -2.32094   0.00984 
 H                    -0.95238   2.62606   0.00984 
 H                    -3.12348  -1.06774   0.00994 
 H                    -3.09158   1.41226   0.00984 
 H                     3.62172  -1.03884   0.00984 
 N                     4.99782   3.532     0.20086 
 N                     3.82932   1.64861   0.06055 
 C                     5.91811   2.52261   0.16221 
 C                     5.28131   4.94333   0.29182 
 C                     3.75805   2.95897   0.13738 
 C                     5.1731    1.37006   0.07616 
 H                     5.30025   5.21867   1.34905 
 H                     6.25042   5.14425  -0.17204 
 H                     4.49994   5.49852  -0.23336 
 H                     6.98342   2.70262   0.1992 
 H                     5.53606   0.354     0.02461 
 

 GradGradGradGradGradGradGradGradGradGradGradGradGradGradGradGradGradGrad
 Berny optimization.
 Initialization pass.
                           ----------------------------
                           !    Initial Parameters    !
                           ! (Angstroms and Degrees)  !
 --------------------------                            --------------------------
 ! Name  Definition              Value          Derivative Info.                !
 --------------------------------------------------------------------------------
 ! R1    R(1,3)                  1.3465         estimate D2E/DX2                !
 ! R2    R(1,10)                 1.3528         estimate D2E/DX2                !
 ! R3    R(2,3)                  1.4107         estimate D2E/DX2                !
 ! R4    R(2,4)                  1.4053         estimate D2E/DX2                !
 ! R5    R(2,5)                  1.4014         estimate D2E/DX2                !
 ! R6    R(3,6)                  1.3921         estimate D2E/DX2                !
 ! R7    R(4,7)                  1.392          estimate D2E/DX2                !
 ! R8    R(4,11)                 1.0878         estimate D2E/DX2                !
 ! R9    R(5,9)                  1.3874         estimate D2E/DX2                !
 ! R10   R(5,12)                 1.0876         estimate D2E/DX2                !
 ! R11   R(6,8)                  1.3972         estimate D2E/DX2                !
 ! R12   R(6,13)                 1.0885         estimate D2E/DX2                !
 ! R13   R(7,8)                  1.3892         estimate D2E/DX2                !
 ! R14   R(7,14)                 1.0857         estimate D2E/DX2                !
 ! R15   R(8,15)                 1.0861         estimate D2E/DX2                !
 ! R16   R(9,10)                 1.38           estimate D2E/DX2                !
 ! R17   R(9,16)                 1.0837         estimate D2E/DX2                !
 ! R18   R(10,18)                1.4728         estimate D2E/DX2                !
 ! R19   R(17,19)                1.3665         estimate D2E/DX2                !
 ! R20   R(17,20)                1.4424         estimate D2E/DX2                !
 ! R21   R(17,21)                1.3673         estimate D2E/DX2                !
 ! R22   R(18,21)                1.3145         estimate D2E/DX2                !
 ! R23   R(18,22)                1.3724         estimate D2E/DX2                !
 ! R24   R(19,22)                1.3751         estimate D2E/DX2                !
 ! R25   R(19,26)                1.081          estimate D2E/DX2                !
 ! R26   R(20,23)                1.0927         estimate D2E/DX2                !
 ! R27   R(20,24)                1.093          estimate D2E/DX2                !
 ! R28   R(20,25)                1.093          estimate D2E/DX2                !
 ! R29   R(22,27)                1.0802         estimate D2E/DX2                !
 ! A1    A(3,1,10)             118.2143         estimate D2E/DX2                !
 ! A2    A(3,2,4)              120.3328         estimate D2E/DX2                !
 ! A3    A(3,2,5)              118.0833         estimate D2E/DX2                !
 ! A4    A(4,2,5)              121.584          estimate D2E/DX2                !
 ! A5    A(1,3,2)              121.8476         estimate D2E/DX2                !
 ! A6    A(1,3,6)              120.0904         estimate D2E/DX2                !
 ! A7    A(2,3,6)              118.062          estimate D2E/DX2                !
 ! A8    A(2,4,7)              120.3937         estimate D2E/DX2                !
 ! A9    A(2,4,11)             120.6178         estimate D2E/DX2                !
 ! A10   A(7,4,11)             118.9885         estimate D2E/DX2                !
 ! A11   A(2,5,9)              120.2006         estimate D2E/DX2                !
 ! A12   A(2,5,12)             120.7168         estimate D2E/DX2                !
 ! A13   A(9,5,12)             119.0826         estimate D2E/DX2                !
 ! A14   A(3,6,8)              121.6172         estimate D2E/DX2                !
 ! A15   A(3,6,13)             119.7993         estimate D2E/DX2                !
 ! A16   A(8,6,13)             118.5835         estimate D2E/DX2                !
 ! A17   A(4,7,8)              119.5786         estimate D2E/DX2                !
 ! A18   A(4,7,14)             120.187          estimate D2E/DX2                !
 ! A19   A(8,7,14)             120.2344         estimate D2E/DX2                !
 ! A20   A(6,8,7)              120.0157         estimate D2E/DX2                !
 ! A21   A(6,8,15)             119.9104         estimate D2E/DX2                !
 ! A22   A(7,8,15)             120.0739         estimate D2E/DX2                !
 ! A23   A(5,9,10)             117.537          estimate D2E/DX2                !
 ! A24   A(5,9,16)             121.174          estimate D2E/DX2                !
 ! A25   A(10,9,16)            121.289          estimate D2E/DX2                !
 ! A26   A(1,10,9)             124.1172         estimate D2E/DX2                !
 ! A27   A(1,10,18)            116.157          estimate D2E/DX2                !
 ! A28   A(9,10,18)            119.6905         estimate D2E/DX2                !
 ! A29   A(19,17,20)           126.3123         estimate D2E/DX2                !
 ! A30   A(19,17,21)           107.4439         estimate D2E/DX2                !
 ! A31   A(20,17,21)           126.2439         estimate D2E/DX2                !
 ! A32   A(10,18,21)           119.7481         estimate D2E/DX2                !
 ! A33   A(10,18,22)           135.4791         estimate D2E/DX2                !
 ! A34   A(21,18,22)           104.7575         estimate D2E/DX2                !
 ! A35   A(17,19,22)           104.8342         estimate D2E/DX2                !
 ! A36   A(17,19,26)           122.6633         estimate D2E/DX2                !
 ! A37   A(22,19,26)           132.5024         estimate D2E/DX2                !
 ! A38   A(17,20,23)           108.119          estimate D2E/DX2                !
 ! A39   A(17,20,24)           109.1086         estimate D2E/DX2                !
 ! A40   A(17,20,25)           109.039          estimate D2E/DX2                !
 ! A41   A(23,20,24)           110.4227         estimate D2E/DX2                !
 ! A42   A(23,20,25)           110.4452         estimate D2E/DX2                !
 ! A43   A(24,20,25)           109.6669         estimate D2E/DX2                !
 ! A44   A(17,21,18)           111.7975         estimate D2E/DX2                !
 ! A45   A(18,22,19)           111.1669         estimate D2E/DX2                !
 ! A46   A(18,22,27)           121.29           estimate D2E/DX2                !
 ! A47   A(19,22,27)           127.543          estimate D2E/DX2                !
 ! D1    D(10,1,3,2)            -0.0048         estimate D2E/DX2                !
 ! D2    D(10,1,3,6)           179.9952         estimate D2E/DX2                !
 ! D3    D(3,1,10,9)             0.0152         estimate D2E/DX2                !
 ! D4    D(3,1,10,18)         -177.8102         estimate D2E/DX2                !
 ! D5    D(4,2,3,1)            180.0            estimate D2E/DX2                !
 ! D6    D(4,2,3,6)              0.0            estimate D2E/DX2                !
 ! D7    D(5,2,3,1)              0.0            estimate D2E/DX2                !
 ! D8    D(5,2,3,6)            180.0            estimate D2E/DX2                !
 ! D9    D(3,2,4,7)              0.0            estimate D2E/DX2                !
 ! D10   D(3,2,4,11)           180.0            estimate D2E/DX2                !
 ! D11   D(5,2,4,7)            180.0            estimate D2E/DX2                !
 ! D12   D(5,2,4,11)             0.0            estimate D2E/DX2                !
 ! D13   D(3,2,5,9)             -0.0048         estimate D2E/DX2                !
 ! D14   D(3,2,5,12)          -179.9939         estimate D2E/DX2                !
 ! D15   D(4,2,5,9)            179.9952         estimate D2E/DX2                !
 ! D16   D(4,2,5,12)             0.0061         estimate D2E/DX2                !
 ! D17   D(1,3,6,8)            180.0            estimate D2E/DX2                !
 ! D18   D(1,3,6,13)             0.0061         estimate D2E/DX2                !
 ! D19   D(2,3,6,8)              0.0            estimate D2E/DX2                !
 ! D20   D(2,3,6,13)          -179.9939         estimate D2E/DX2                !
 ! D21   D(2,4,7,8)              0.0            estimate D2E/DX2                !
 ! D22   D(2,4,7,14)           180.0            estimate D2E/DX2                !
 ! D23   D(11,4,7,8)           180.0            estimate D2E/DX2                !
 ! D24   D(11,4,7,14)            0.0            estimate D2E/DX2                !
 ! D25   D(2,5,9,10)             0.0139         estimate D2E/DX2                !
 ! D26   D(2,5,9,16)           179.9999         estimate D2E/DX2                !
 ! D27   D(12,5,9,10)         -179.9968         estimate D2E/DX2                !
 ! D28   D(12,5,9,16)           -0.0108         estimate D2E/DX2                !
 ! D29   D(3,6,8,7)              0.0            estimate D2E/DX2                !
 ! D30   D(3,6,8,15)          -179.9939         estimate D2E/DX2                !
 ! D31   D(13,6,8,7)           179.994          estimate D2E/DX2                !
 ! D32   D(13,6,8,15)            0.0001         estimate D2E/DX2                !
 ! D33   D(4,7,8,6)              0.0            estimate D2E/DX2                !
 ! D34   D(4,7,8,15)           179.9939         estimate D2E/DX2                !
 ! D35   D(14,7,8,6)           180.0            estimate D2E/DX2                !
 ! D36   D(14,7,8,15)           -0.0061         estimate D2E/DX2                !
 ! D37   D(5,9,10,1)            -0.0197         estimate D2E/DX2                !
 ! D38   D(5,9,10,18)          177.7333         estimate D2E/DX2                !
 ! D39   D(16,9,10,1)          179.9943         estimate D2E/DX2                !
 ! D40   D(16,9,10,18)          -2.2527         estimate D2E/DX2                !
 ! D41   D(1,10,18,21)           1.7758         estimate D2E/DX2                !
 ! D42   D(1,10,18,22)        -179.8919         estimate D2E/DX2                !
 ! D43   D(9,10,18,21)        -176.1518         estimate D2E/DX2                !
 ! D44   D(9,10,18,22)           2.1806         estimate D2E/DX2                !
 ! D45   D(20,17,19,22)        179.9867         estimate D2E/DX2                !
 ! D46   D(20,17,19,26)          0.0745         estimate D2E/DX2                !
 ! D47   D(21,17,19,22)         -0.0177         estimate D2E/DX2                !
 ! D48   D(21,17,19,26)       -179.9299         estimate D2E/DX2                !
 ! D49   D(19,17,20,23)        -91.3222         estimate D2E/DX2                !
 ! D50   D(19,17,20,24)         28.8051         estimate D2E/DX2                !
 ! D51   D(19,17,20,25)        148.5636         estimate D2E/DX2                !
 ! D52   D(21,17,20,23)         88.683          estimate D2E/DX2                !
 ! D53   D(21,17,20,24)       -151.1897         estimate D2E/DX2                !
 ! D54   D(21,17,20,25)        -31.4312         estimate D2E/DX2                !
 ! D55   D(19,17,21,18)         -0.0083         estimate D2E/DX2                !
 ! D56   D(20,17,21,18)        179.9873         estimate D2E/DX2                !
 ! D57   D(10,18,21,17)        178.8213         estimate D2E/DX2                !
 ! D58   D(22,18,21,17)          0.0305         estimate D2E/DX2                !
 ! D59   D(10,18,22,19)       -178.545          estimate D2E/DX2                !
 ! D60   D(10,18,22,27)          1.4584         estimate D2E/DX2                !
 ! D61   D(21,18,22,19)         -0.0423         estimate D2E/DX2                !
 ! D62   D(21,18,22,27)        179.9612         estimate D2E/DX2                !
 ! D63   D(17,19,22,18)          0.0375         estimate D2E/DX2                !
 ! D64   D(17,19,22,27)       -179.9663         estimate D2E/DX2                !
 ! D65   D(26,19,22,18)        179.9372         estimate D2E/DX2                !
 ! D66   D(26,19,22,27)         -0.0665         estimate D2E/DX2                !
 --------------------------------------------------------------------------------
 Trust Radius=3.00D-01 FncErr=1.00D-07 GrdErr=1.00D-06 EigMax=2.50D+02 EigMin=1.00D-04
 Number of steps in this run=    152 maximum allowed number of steps=    162.
 GradGradGradGradGradGradGradGradGradGradGradGradGradGradGradGradGradGrad

                          Input orientation:                          
 ---------------------------------------------------------------------
 Center     Atomic      Atomic             Coordinates (Angstroms)
 Number     Number       Type             X           Y           Z
 ---------------------------------------------------------------------
      1          7           0        1.432820    1.548362    0.009942
      2          6           0        0.249120   -0.550738    0.009942
      3          6           0        0.275820    0.859662    0.009942
      4          6           0       -0.976980   -1.237338    0.009942
      5          6           0        1.472820   -1.233738    0.009942
      6          6           0       -0.939980    1.537662    0.009942
      7          6           0       -2.178080   -0.533838    0.009942
      8          6           0       -2.159180    0.855262    0.009942
      9          6           0        2.666620   -0.526838    0.009842
     10          6           0        2.592120    0.851162    0.010042
     11          1           0       -1.002980   -2.324838    0.009942
     12          1           0        1.502220   -2.320938    0.009842
     13          1           0       -0.952380    2.626062    0.009842
     14          1           0       -3.123480   -1.067738    0.009942
     15          1           0       -3.091580    1.412262    0.009842
     16          1           0        3.621720   -1.038838    0.009842
     17          7           0        4.997825    3.532002    0.200862
     18          7           0        3.829322    1.648608    0.060550
     19          6           0        5.918110    2.522614    0.162215
     20          6           0        5.281314    4.943326    0.291825
     21          6           0        3.758054    2.958970    0.137381
     22          6           0        5.173097    1.370064    0.076164
     23          1           0        5.300248    5.218669    1.349048
     24          1           0        6.250417    5.144249   -0.172045
     25          1           0        4.499943    5.498517   -0.233359
     26          1           0        6.983419    2.702621    0.199204
     27          1           0        5.536059    0.353996    0.024614
 ---------------------------------------------------------------------
                    Distance matrix (angstroms):
                    1          2          3          4          5
     1  N    0.000000
     2  C    2.409848   0.000000
     3  C    1.346461   1.410653   0.000000
     4  C    3.683376   1.405255   2.442727   0.000000
     5  C    2.782388   1.401403   2.411459   2.449803   0.000000
     6  C    2.372824   2.403201   1.392068   2.775247   3.674542
     7  C    4.168232   2.427259   2.821962   1.391960   3.717382
     8  C    3.658258   2.788682   2.435004   2.403450   4.189910
     9  C    2.414274   2.417618   2.763749   3.712227   1.387395
    10  C    1.352799   2.730380   2.316316   4.135252   2.366356
    11  H    4.575456   2.171448   3.431672   1.087811   2.705566
    12  H    3.869922   2.168840   3.408852   2.705665   1.087597
    13  H    2.617368   3.396419   2.151428   3.863478   4.558470
    14  H    5.253937   3.411996   3.907699   2.153190   4.599297
    15  H    4.526447   3.874745   3.412440   3.389972   5.275895
    16  H    3.388936   3.407737   3.846992   4.602982   2.157720
    17  N    4.084182   6.265414   5.429105   7.647310   5.930800
    18  N    2.399132   4.202086   3.640381   5.606406   3.723383
    19  C    4.592405   6.450282   5.884220   7.855107   5.821854
    20  C    5.139665   7.455681   6.466123   8.800359   7.262246
    21  C    2.722640   4.964565   4.068082   6.328174   4.776749
    22  C    3.745110   5.285775   4.924248   6.680298   4.525066
    23  H    5.497396   7.784161   6.785206   9.103671   7.620759
    24  H    6.014380   8.275359   7.354361   9.643290   7.971027
    25  H    5.007011   7.397444   6.278645   8.684908   7.385521
    26  H    5.672503   7.481374   6.958751   8.884090   6.774766
    27  H    4.273558   5.363812   5.284508   6.704643   4.362457
                    6          7          8          9         10
     6  C    0.000000
     7  C    2.413297   0.000000
     8  C    1.397182   1.389229   0.000000
     9  C    4.155686   4.844705   5.019815   0.000000
    10  C    3.598196   4.967196   4.751302   1.380012   0.000000
    11  H    3.863014   2.142088   3.383760   4.086413   4.797053
    12  H    4.566523   4.091251   4.847071   2.138837   3.354117
    13  H    1.088471   3.389293   2.142918   4.799785   3.964057
    14  H    3.399380   1.085740   2.151233   5.815310   6.029118
    15  H    2.155251   2.149834   1.086103   6.075934   5.711329
    16  H    5.239032   5.821744   6.083290   1.083679   2.152249
    17  N    6.266688   8.249916   7.643567   4.684569   3.607039
    18  N    4.770861   6.391753   6.041036   2.467187   1.472800
    19  C    6.930132   8.655252   8.248992   4.460333   3.725469
    20  C    7.098064   9.258583   8.494274   6.069501   4.904791
    21  C    4.909978   6.888660   6.281360   3.654908   2.412151
    22  C    6.115733   7.594013   7.350626   3.144052   2.633453
    23  H    7.367731   9.529425   8.745033   6.460675   5.310557
    24  H    8.046266  10.164318   9.441920   6.711029   5.643305
    25  H    6.733523   9.002472   8.121757   6.302787   5.029606
    26  H    8.010818   9.718208   9.329292   5.394444   4.769402
    27  H    6.583340   7.765076   7.711562   3.001628   2.985660
                   11         12         13         14         15
    11  H    0.000000
    12  H    2.505203   0.000000
    13  H    4.951159   5.522488   0.000000
    14  H    2.465121   4.792454   4.284604   0.000000
    15  H    4.281141   5.919441   2.459571   2.480205   0.000000
    16  H    4.800171   2.477107   5.861219   6.745262   7.146768
    17  N    8.387412   6.820018   6.021807   9.335398   8.364703
    18  N    6.256355   4.601659   4.880847   7.464754   6.925122
    19  C    8.451182   6.556166   6.872958   9.729552   9.079131
    20  C    9.612390   8.193327   6.656439  10.336969   9.091386
    21  C    7.113530   5.743037   4.723906   7.974091   7.023252
    22  C    7.197265   5.206077   6.253271   8.647570   8.265051
    23  H    9.921108   8.547758   6.900032  10.595816   9.311551
    24  H   10.413076   8.849151   7.632473  11.246860  10.061497
    25  H    9.567980   8.377909   6.167493  10.064367   8.624839
    26  H    9.438948   7.437443   7.938428  10.788922  10.159060
    27  H    7.066498   4.840181   6.874761   8.775486   8.692313
                   16         17         18         19         20
    16  H    0.000000
    17  N    4.777314   0.000000
    18  N    2.695929   2.220869   0.000000
    19  C    4.240350   1.366485   2.266553   0.000000
    20  C    6.214504   1.442386   3.607900   2.506422   0.000000
    21  C    4.002164   1.367270   1.314546   2.203830   2.506361
    22  C    2.866004   2.172612   1.372429   1.375071   3.581399
    23  H    6.615687   2.062677   4.070526   3.009823   1.092654
    24  H    6.721138   2.075425   4.258557   2.663668   1.093025
    25  H    6.600563   2.074516   3.918917   3.320191   1.092976
    26  H    5.033428   2.151850   3.328438   1.081043   2.815404
    27  H    2.367467   3.228076   2.142490   2.206310   4.604155
                   21         22         23         24         25
    21  C    0.000000
    22  C    2.128548   0.000000
    23  H    2.992113   4.055633   0.000000
    24  H    3.329124   3.932772   1.795016   0.000000
    25  H    2.671544   4.194408   1.795220   1.787015   0.000000
    26  H    3.236127   2.251247   3.238163   2.576173   3.764545
    27  H    3.155931   1.080182   5.047254   4.847216   5.254158
                   26         27
    26  H    0.000000
    27  H    2.764303   0.000000
 Stoichiometry    C13H11N3
 Framework group  C1[X(C13H11N3)]
 Deg. of freedom    75
 Full point group                 C1      NOp   1
 Largest Abelian subgroup         C1      NOp   1
 Largest concise Abelian subgroup C1      NOp   1
                         Standard orientation:                         
 ---------------------------------------------------------------------
 Center     Atomic      Atomic             Coordinates (Angstroms)
 Number     Number       Type             X           Y           Z
 ---------------------------------------------------------------------
      1          7           0        0.375405   -0.576266   -0.064548
      2          6           0        2.418478    0.699054    0.017775
      3          6           0        1.720471   -0.525884   -0.029692
      4          6           0        3.823200    0.714506    0.053266
      5          6           0        1.670918    1.884371    0.028137
      6          6           0        2.463488   -1.703031   -0.039967
      7          6           0        4.541116   -0.477980    0.041987
      8          6           0        3.860143   -1.687961   -0.004687
      9          6           0        0.284845    1.835641   -0.007804
     10          6           0       -0.308833    0.590674   -0.052953
     11          1           0        4.366155    1.656413    0.089921
     12          1           0        2.165099    2.852544    0.064116
     13          1           0        1.953814   -2.664112   -0.076360
     14          1           0        5.626391   -0.462127    0.069503
     15          1           0        4.412252   -2.623221   -0.013907
     16          1           0       -0.308711    2.742282   -0.000421
     17          7           0       -3.707647   -0.614710    0.023487
     18          7           0       -1.777577    0.482026   -0.041789
     19          6           0       -4.031784    0.712699    0.009245
     20          6           0       -4.633791   -1.719730    0.064275
     21          6           0       -2.343656   -0.703913   -0.008125
     22          6           0       -2.824380    1.369518   -0.030582
     23          1           0       -4.808513   -1.978190    1.111445
     24          1           0       -5.569029   -1.420663   -0.415926
     25          1           0       -4.200281   -2.568225   -0.471188
     26          1           0       -5.053984    1.063921    0.029313
     27          1           0       -2.655752    2.436245   -0.051806
 ---------------------------------------------------------------------
 Rotational constants (GHZ):           1.6198125           0.2723769           0.2335903
 Standard basis: def2SVP (5D, 7F)
 There are   295 symmetry adapted cartesian basis functions of A   symmetry.
 There are   279 symmetry adapted basis functions of A   symmetry.
   279 basis functions,   477 primitive gaussians,   295 cartesian basis functions
    55 alpha electrons       55 beta electrons
       nuclear repulsion energy       974.3081633471 Hartrees.
 NAtoms=   27 NActive=   27 NUniq=   27 SFac= 1.00D+00 NAtFMM=   60 NAOKFM=F Big=F
 Integral buffers will be    131072 words long.
 Raffenetti 2 integral format.
 Two-electron integral symmetry is turned on.
 One-electron integrals computed using PRISM.
   1 Symmetry operations used in ECPInt.
 ECPInt:  NShTT=    8385 NPrTT=   30869 LenC2=    7602 LenP2D=   20096.
 LDataN:  DoStor=T MaxTD1= 4 Len=   56
 NBasis=   279 RedAO= T EigKep=  2.42D-04  NBF=   279
 NBsUse=   279 1.00D-06 EigRej= -1.00D+00 NBFU=   279
 ExpMin= 1.22D-01 ExpMax= 1.71D+03 ExpMxC= 2.58D+02 IAcc=3 IRadAn=         5 AccDes= 0.00D+00
 Harris functional with IExCor= 1009 and IRadAn=       5 diagonalized for initial guess.
 HarFok:  IExCor= 1009 AccDes= 0.00D+00 IRadAn=         5 IDoV= 1 UseB2=F ITyADJ=14
 ICtDFT=  3500011 ScaDFX=  1.000000  1.000000  1.000000  1.000000
 FoFCou: FMM=F IPFlag=           0 FMFlag=      100000 FMFlg1=           0
         NFxFlg=           0 DoJE=T BraDBF=F KetDBF=T FulRan=T
         wScrn=  0.000000 ICntrl=       500 IOpCl=  0 I1Cent=   200000004 NGrid=           0
         NMat0=    1 NMatS0=      1 NMatT0=    0 NMatD0=    1 NMtDS0=    0 NMtDT0=    0
 Petite list used in FoFCou.
 Requested convergence on RMS density matrix=1.00D-08 within 128 cycles.
 Requested convergence on MAX density matrix=1.00D-06.
 Requested convergence on             energy=1.00D-06.
 No special actions if energy rises.
 Integral accuracy reduced to 1.0D-05 until final iterations.
 Initial convergence to 1.0D-05 achieved.  Increase integral accuracy.
 SCF Done:  E(RMN15) =  -664.816389939     A.U. after   15 cycles
            NFock= 15  Conv=0.72D-08     -V/T= 2.0120

 **********************************************************************

            Population analysis using the SCF Density.

 **********************************************************************

 Orbital symmetries:
       Occupied  (A) (A) (A) (A) (A) (A) (A) (A) (A) (A) (A) (A)
                 (A) (A) (A) (A) (A) (A) (A) (A) (A) (A) (A) (A)
                 (A) (A) (A) (A) (A) (A) (A) (A) (A) (A) (A) (A)
                 (A) (A) (A) (A) (A) (A) (A) (A) (A) (A) (A) (A)
                 (A) (A) (A) (A) (A) (A) (A)
       Virtual   (A) (A) (A) (A) (A) (A) (A) (A) (A) (A) (A) (A)
                 (A) (A) (A) (A) (A) (A) (A) (A) (A) (A) (A) (A)
                 (A) (A) (A) (A) (A) (A) (A) (A) (A) (A) (A) (A)
                 (A) (A) (A) (A) (A) (A) (A) (A) (A) (A) (A) (A)
                 (A) (A) (A) (A) (A) (A) (A) (A) (A) (A) (A) (A)
                 (A) (A) (A) (A) (A) (A) (A) (A) (A) (A) (A) (A)
                 (A) (A) (A) (A) (A) (A) (A) (A) (A) (A) (A) (A)
                 (A) (A) (A) (A) (A) (A) (A) (A) (A) (A) (A) (A)
                 (A) (A) (A) (A) (A) (A) (A) (A) (A) (A) (A) (A)
                 (A) (A) (A) (A) (A) (A) (A) (A) (A) (A) (A) (A)
                 (A) (A) (A) (A) (A) (A) (A) (A) (A) (A) (A) (A)
                 (A) (A) (A) (A) (A) (A) (A) (A) (A) (A) (A) (A)
                 (A) (A) (A) (A) (A) (A) (A) (A) (A) (A) (A) (A)
                 (A) (A) (A) (A) (A) (A) (A) (A) (A) (A) (A) (A)
                 (A) (A) (A) (A) (A) (A) (A) (A) (A) (A) (A) (A)
                 (A) (A) (A) (A) (A) (A) (A) (A) (A) (A) (A) (A)
                 (A) (A) (A) (A) (A) (A) (A) (A) (A) (A) (A) (A)
                 (A) (A) (A) (A) (A) (A) (A) (A) (A) (A) (A) (A)
                 (A) (A) (A) (A) (A) (A) (A) (A)
 The electronic state is 1-A.
 Alpha  occ. eigenvalues --  -14.15117 -14.13700 -14.09664 -10.14242 -10.09016
 Alpha  occ. eigenvalues --  -10.08415 -10.08193 -10.07895 -10.07835 -10.07183
 Alpha  occ. eigenvalues --  -10.06570 -10.06456 -10.06134 -10.06038 -10.05279
 Alpha  occ. eigenvalues --  -10.03010  -1.06404  -0.99324  -0.94740  -0.89079
 Alpha  occ. eigenvalues --   -0.85334  -0.81260  -0.78200  -0.77121  -0.74096
 Alpha  occ. eigenvalues --   -0.69887  -0.67993  -0.64904  -0.63209  -0.61281
 Alpha  occ. eigenvalues --   -0.57942  -0.56355  -0.55793  -0.53305  -0.51704
 Alpha  occ. eigenvalues --   -0.50686  -0.48995  -0.48135  -0.47901  -0.47651
 Alpha  occ. eigenvalues --   -0.46455  -0.45708  -0.45005  -0.44866  -0.42280
 Alpha  occ. eigenvalues --   -0.39946  -0.39725  -0.39453  -0.35290  -0.33935
 Alpha  occ. eigenvalues --   -0.30519  -0.28712  -0.26523  -0.24879  -0.20463
 Alpha virt. eigenvalues --   -0.04425   0.00030   0.03999   0.06637   0.08867
 Alpha virt. eigenvalues --    0.09914   0.11169   0.11680   0.13407   0.13556
 Alpha virt. eigenvalues --    0.15152   0.16261   0.17503   0.18214   0.19118
 Alpha virt. eigenvalues --    0.19594   0.20217   0.22017   0.22550   0.23016
 Alpha virt. eigenvalues --    0.25157   0.26637   0.27131   0.29256   0.29877
 Alpha virt. eigenvalues --    0.30602   0.32183   0.33080   0.33931   0.34662
 Alpha virt. eigenvalues --    0.37825   0.38065   0.39833   0.40186   0.40775
 Alpha virt. eigenvalues --    0.42438   0.42986   0.43201   0.44658   0.45453
 Alpha virt. eigenvalues --    0.46424   0.47883   0.48820   0.49140   0.49617
 Alpha virt. eigenvalues --    0.51352   0.51674   0.52245   0.53107   0.54419
 Alpha virt. eigenvalues --    0.55761   0.56617   0.57318   0.57865   0.59572
 Alpha virt. eigenvalues --    0.60393   0.61124   0.61698   0.62700   0.63475
 Alpha virt. eigenvalues --    0.64667   0.65791   0.67623   0.67938   0.68523
 Alpha virt. eigenvalues --    0.69263   0.69384   0.70121   0.70477   0.70596
 Alpha virt. eigenvalues --    0.71484   0.71739   0.72891   0.73814   0.74973
 Alpha virt. eigenvalues --    0.76000   0.76307   0.76393   0.77034   0.77913
 Alpha virt. eigenvalues --    0.78593   0.81496   0.82060   0.85833   0.86244
 Alpha virt. eigenvalues --    0.88007   0.89109   0.91962   0.93079   0.94359
 Alpha virt. eigenvalues --    0.95686   0.97326   0.98730   0.99574   1.04707
 Alpha virt. eigenvalues --    1.08833   1.09986   1.12711   1.15572   1.17661
 Alpha virt. eigenvalues --    1.18496   1.19674   1.21468   1.22775   1.24151
 Alpha virt. eigenvalues --    1.24955   1.25924   1.26474   1.27063   1.28128
 Alpha virt. eigenvalues --    1.29713   1.30351   1.31614   1.32000   1.33390
 Alpha virt. eigenvalues --    1.37058   1.38326   1.40102   1.41587   1.44818
 Alpha virt. eigenvalues --    1.47139   1.48471   1.51792   1.53815   1.54089
 Alpha virt. eigenvalues --    1.60906   1.63195   1.65527   1.66163   1.67814
 Alpha virt. eigenvalues --    1.69022   1.70195   1.71544   1.72253   1.73695
 Alpha virt. eigenvalues --    1.74330   1.75693   1.75720   1.77390   1.78130
 Alpha virt. eigenvalues --    1.78663   1.79067   1.80034   1.80178   1.81746
 Alpha virt. eigenvalues --    1.82340   1.84329   1.85479   1.86817   1.88894
 Alpha virt. eigenvalues --    1.90824   1.91128   1.93838   1.94697   1.95295
 Alpha virt. eigenvalues --    1.97421   1.99558   1.99882   2.02358   2.02753
 Alpha virt. eigenvalues --    2.03218   2.04951   2.05794   2.08480   2.09062
 Alpha virt. eigenvalues --    2.10137   2.13127   2.13963   2.15662   2.16265
 Alpha virt. eigenvalues --    2.18725   2.20377   2.20677   2.22591   2.23561
 Alpha virt. eigenvalues --    2.24876   2.27367   2.28518   2.29559   2.30074
 Alpha virt. eigenvalues --    2.32904   2.34853   2.36237   2.37596   2.38043
 Alpha virt. eigenvalues --    2.39511   2.44008   2.44487   2.46726   2.49691
 Alpha virt. eigenvalues --    2.52513   2.53931   2.58321   2.60161   2.60306
 Alpha virt. eigenvalues --    2.66916   2.68407   2.69648   2.70174   2.70698
 Alpha virt. eigenvalues --    2.71771   2.72038   2.72742   2.75855   2.77912
 Alpha virt. eigenvalues --    2.78420   2.81603   2.83674   2.84184   2.87461
 Alpha virt. eigenvalues --    2.89526   2.89790   2.92457   2.92789   2.99964
 Alpha virt. eigenvalues --    3.01862   3.10337   3.14647   3.20592   3.26342
 Alpha virt. eigenvalues --    3.33996   3.41051   3.52911   3.57201
          Condensed to atoms (all electrons):
               1          2          3          4          5          6
     1  N    6.265954  -0.097215   0.558858   0.007902  -0.037797  -0.112397
     2  C   -0.097215   5.654889   0.012628   0.161087   0.316730   0.029645
     3  C    0.558858   0.012628   5.329342   0.092310  -0.062854   0.167672
     4  C    0.007902   0.161087   0.092310   5.267831  -0.113284  -0.147917
     5  C   -0.037797   0.316730  -0.062854  -0.113284   5.059049   0.013541
     6  C   -0.112397   0.029645   0.167672  -0.147917   0.013541   5.292481
     7  C   -0.001079   0.148215  -0.181425   0.224476   0.019291   0.151052
     8  C    0.009132  -0.176071   0.174789   0.133183   0.000828   0.200246
     9  C   -0.063289   0.076942  -0.071760   0.014011   0.353219   0.000353
    10  C    0.558558  -0.103038  -0.019412   0.003492   0.057338   0.012512
    11  H   -0.000065  -0.083576   0.017748   0.459366  -0.023752  -0.003312
    12  H    0.000156  -0.075346   0.014146  -0.019302   0.441345  -0.000445
    13  H   -0.005194   0.027622  -0.068400  -0.003317  -0.000305   0.444374
    14  H    0.000010   0.018318  -0.001904  -0.074101  -0.000416   0.015505
    15  H   -0.000087  -0.002994   0.018722   0.017413  -0.000015  -0.074432
    16  H    0.005561   0.015144   0.001108  -0.000363  -0.057037   0.000087
    17  N    0.000527   0.000001  -0.000009  -0.000000   0.000007  -0.000002
    18  N   -0.078312   0.000561   0.002556   0.000036   0.003684   0.000124
    19  C    0.000097   0.000001   0.000015  -0.000000  -0.000044   0.000000
    20  C    0.000019   0.000000  -0.000000  -0.000000  -0.000000  -0.000000
    21  C   -0.012665  -0.000207   0.001877   0.000001  -0.000052   0.000269
    22  C    0.001111  -0.000077   0.000062   0.000000   0.000746   0.000013
    23  H   -0.000003  -0.000000   0.000000   0.000000   0.000000   0.000000
    24  H   -0.000000  -0.000000   0.000000   0.000000   0.000000   0.000000
    25  H   -0.000017  -0.000000  -0.000000   0.000000  -0.000000   0.000000
    26  H    0.000006   0.000000  -0.000000  -0.000000   0.000000  -0.000000
    27  H   -0.000089  -0.000007  -0.000030  -0.000000   0.000681  -0.000001
               7          8          9         10         11         12
     1  N   -0.001079   0.009132  -0.063289   0.558558  -0.000065   0.000156
     2  C    0.148215  -0.176071   0.076942  -0.103038  -0.083576  -0.075346
     3  C   -0.181425   0.174789  -0.071760  -0.019412   0.017748   0.014146
     4  C    0.224476   0.133183   0.014011   0.003492   0.459366  -0.019302
     5  C    0.019291   0.000828   0.353219   0.057338  -0.023752   0.441345
     6  C    0.151052   0.200246   0.000353   0.012512  -0.003312  -0.000445
     7  C    5.166149   0.132914  -0.001424   0.000267  -0.076242   0.000917
     8  C    0.132914   5.198543  -0.000016  -0.000488   0.017913   0.000005
     9  C   -0.001424  -0.000016   5.100894   0.298283   0.001431  -0.062567
    10  C    0.000267  -0.000488   0.298283   4.971086  -0.000256   0.014652
    11  H   -0.076242   0.017913   0.001431  -0.000256   0.734657   0.004042
    12  H    0.000917   0.000005  -0.062567   0.014652   0.004042   0.717015
    13  H    0.017148  -0.086778   0.000190  -0.000091   0.000023   0.000007
    14  H    0.449757  -0.081436   0.000008  -0.000002  -0.014743  -0.000005
    15  H   -0.085021   0.454292   0.000002   0.000004  -0.000297  -0.000001
    16  H    0.000007  -0.000003   0.421189  -0.060155  -0.000010  -0.013768
    17  N   -0.000000   0.000000  -0.000581   0.007515   0.000000  -0.000000
    18  N   -0.000000  -0.000002  -0.092883   0.286714  -0.000001  -0.000189
    19  C    0.000000  -0.000000  -0.000001   0.006490   0.000000  -0.000000
    20  C   -0.000000   0.000000   0.000001   0.000087   0.000000   0.000000
    21  C    0.000000  -0.000002   0.012323  -0.061783   0.000000   0.000008
    22  C    0.000000  -0.000000   0.004243  -0.063329   0.000000  -0.000008
    23  H   -0.000000  -0.000000   0.000000  -0.000010  -0.000000  -0.000000
    24  H    0.000000  -0.000000  -0.000000  -0.000003  -0.000000  -0.000000
    25  H    0.000000  -0.000000   0.000002  -0.000059  -0.000000   0.000000
    26  H   -0.000000   0.000000  -0.000024   0.000192   0.000000  -0.000000
    27  H    0.000000   0.000000   0.005790  -0.008661   0.000000   0.000014
              13         14         15         16         17         18
     1  N   -0.005194   0.000010  -0.000087   0.005561   0.000527  -0.078312
     2  C    0.027622   0.018318  -0.002994   0.015144   0.000001   0.000561
     3  C   -0.068400  -0.001904   0.018722   0.001108  -0.000009   0.002556
     4  C   -0.003317  -0.074101   0.017413  -0.000363  -0.000000   0.000036
     5  C   -0.000305  -0.000416  -0.000015  -0.057037   0.000007   0.003684
     6  C    0.444374   0.015505  -0.074432   0.000087  -0.000002   0.000124
     7  C    0.017148   0.449757  -0.085021   0.000007  -0.000000  -0.000000
     8  C   -0.086778  -0.081436   0.454292  -0.000003   0.000000  -0.000002
     9  C    0.000190   0.000008   0.000002   0.421189  -0.000581  -0.092883
    10  C   -0.000091  -0.000002   0.000004  -0.060155   0.007515   0.286714
    11  H    0.000023  -0.014743  -0.000297  -0.000010   0.000000  -0.000001
    12  H    0.000007  -0.000005  -0.000001  -0.013768  -0.000000  -0.000189
    13  H    0.709036  -0.000235  -0.015222  -0.000004  -0.000000  -0.000082
    14  H   -0.000235   0.720363  -0.014202  -0.000000   0.000000   0.000000
    15  H   -0.015222  -0.014202   0.713974   0.000000  -0.000000  -0.000000
    16  H   -0.000004  -0.000000   0.000000   0.719416  -0.000059  -0.009446
    17  N   -0.000000   0.000000  -0.000000  -0.000059   6.535459  -0.000413
    18  N   -0.000082   0.000000  -0.000000  -0.009446  -0.000413   6.469987
    19  C    0.000000  -0.000000  -0.000000   0.000682   0.279810  -0.083854
    20  C    0.000000  -0.000000  -0.000000  -0.000000   0.369906   0.004843
    21  C    0.000162  -0.000000  -0.000000   0.000191   0.212812   0.305133
    22  C    0.000000  -0.000000   0.000000   0.004114  -0.090209   0.353349
    23  H   -0.000000   0.000000   0.000000   0.000000  -0.031077  -0.000098
    24  H   -0.000000  -0.000000   0.000000   0.000000  -0.026263  -0.000419
    25  H    0.000000  -0.000000  -0.000000   0.000000  -0.023111  -0.000416
    26  H    0.000000  -0.000000   0.000000   0.000001  -0.027622   0.005570
    27  H   -0.000000  -0.000000  -0.000000  -0.001027   0.009049  -0.027550
              19         20         21         22         23         24
     1  N    0.000097   0.000019  -0.012665   0.001111  -0.000003  -0.000000
     2  C    0.000001   0.000000  -0.000207  -0.000077  -0.000000  -0.000000
     3  C    0.000015  -0.000000   0.001877   0.000062   0.000000   0.000000
     4  C   -0.000000  -0.000000   0.000001   0.000000   0.000000   0.000000
     5  C   -0.000044  -0.000000  -0.000052   0.000746   0.000000   0.000000
     6  C    0.000000  -0.000000   0.000269   0.000013   0.000000   0.000000
     7  C    0.000000  -0.000000   0.000000   0.000000  -0.000000   0.000000
     8  C   -0.000000   0.000000  -0.000002  -0.000000  -0.000000  -0.000000
     9  C   -0.000001   0.000001   0.012323   0.004243   0.000000  -0.000000
    10  C    0.006490   0.000087  -0.061783  -0.063329  -0.000010  -0.000003
    11  H    0.000000   0.000000   0.000000   0.000000  -0.000000  -0.000000
    12  H   -0.000000   0.000000   0.000008  -0.000008  -0.000000  -0.000000
    13  H    0.000000   0.000000   0.000162   0.000000  -0.000000  -0.000000
    14  H   -0.000000  -0.000000  -0.000000  -0.000000   0.000000  -0.000000
    15  H   -0.000000  -0.000000  -0.000000   0.000000   0.000000   0.000000
    16  H    0.000682  -0.000000   0.000191   0.004114   0.000000   0.000000
    17  N    0.279810   0.369906   0.212812  -0.090209  -0.031077  -0.026263
    18  N   -0.083854   0.004843   0.305133   0.353349  -0.000098  -0.000419
    19  C    4.919926  -0.056625  -0.026177   0.548181   0.001841  -0.002790
    20  C   -0.056625   4.419794  -0.067706   0.008260   0.399865   0.385313
    21  C   -0.026177  -0.067706   5.782689  -0.054083   0.001074   0.007441
    22  C    0.548181   0.008260  -0.054083   4.908340  -0.000038   0.001332
    23  H    0.001841   0.399865   0.001074  -0.000038   0.633075  -0.026146
    24  H   -0.002790   0.385313   0.007441   0.001332  -0.026146   0.658699
    25  H    0.008154   0.382814   0.016443  -0.000370  -0.015374  -0.016228
    26  H    0.399095  -0.000502   0.001494  -0.046598  -0.000217   0.001026
    27  H   -0.055012  -0.000079   0.002089   0.391226  -0.000006  -0.000051
              25         26         27
     1  N   -0.000017   0.000006  -0.000089
     2  C   -0.000000   0.000000  -0.000007
     3  C   -0.000000  -0.000000  -0.000030
     4  C    0.000000  -0.000000  -0.000000
     5  C   -0.000000   0.000000   0.000681
     6  C    0.000000  -0.000000  -0.000001
     7  C    0.000000  -0.000000   0.000000
     8  C   -0.000000   0.000000   0.000000
     9  C    0.000002  -0.000024   0.005790
    10  C   -0.000059   0.000192  -0.008661
    11  H   -0.000000   0.000000   0.000000
    12  H    0.000000  -0.000000   0.000014
    13  H    0.000000   0.000000  -0.000000
    14  H   -0.000000  -0.000000  -0.000000
    15  H   -0.000000   0.000000  -0.000000
    16  H    0.000000   0.000001  -0.001027
    17  N   -0.023111  -0.027622   0.009049
    18  N   -0.000416   0.005570  -0.027550
    19  C    0.008154   0.399095  -0.055012
    20  C    0.382814  -0.000502  -0.000079
    21  C    0.016443   0.001494   0.002089
    22  C   -0.000370  -0.046598   0.391226
    23  H   -0.015374  -0.000217  -0.000006
    24  H   -0.016228   0.001026  -0.000051
    25  H    0.601010  -0.000485  -0.000016
    26  H   -0.000485   0.672285  -0.001511
    27  H   -0.000016  -0.001511   0.699748
 Mulliken charges:
               1
     1  N    0.000317
     2  C    0.076749
     3  C    0.013963
     4  C   -0.022825
     5  C    0.029096
     6  C    0.010634
     7  C    0.034999
     8  C    0.022950
     9  C    0.003664
    10  C    0.100097
    11  H   -0.032925
    12  H   -0.020676
    13  H   -0.018935
    14  H   -0.016917
    15  H   -0.012135
    16  H   -0.025625
    17  N   -0.215742
    18  N   -0.138893
    19  C    0.060211
    20  C    0.154011
    21  C   -0.121332
    22  C    0.033733
    23  H    0.037112
    24  H    0.018089
    25  H    0.047651
    26  H   -0.002712
    27  H   -0.014558
 Sum of Mulliken charges =  -0.00000
 Mulliken charges with hydrogens summed into heavy atoms:
               1
     1  N    0.000317
     2  C    0.076749
     3  C    0.013963
     4  C   -0.055750
     5  C    0.008420
     6  C   -0.008301
     7  C    0.018082
     8  C    0.010815
     9  C   -0.021962
    10  C    0.100097
    17  N   -0.215742
    18  N   -0.138893
    19  C    0.057500
    20  C    0.256863
    21  C   -0.121332
    22  C    0.019175
 Electronic spatial extent (au):  <R**2>=           4469.6700
 Charge=              0.0000 electrons
 Dipole moment (field-independent basis, Debye):
    X=             -0.1784    Y=              2.7488    Z=              0.1107  Tot=              2.7569
 Quadrupole moment (field-independent basis, Debye-Ang):
   XX=            -65.3913   YY=            -84.1511   ZZ=            -96.8819
   XY=             -0.1171   XZ=             -0.0252   YZ=              0.1029
 Traceless Quadrupole moment (field-independent basis, Debye-Ang):
   XX=             16.7502   YY=             -2.0097   ZZ=            -14.7405
   XY=             -0.1171   XZ=             -0.0252   YZ=              0.1029
 Octapole moment (field-independent basis, Debye-Ang**2):
  XXX=            -64.3110  YYY=              6.8663  ZZZ=              0.5945  XYY=              4.2553
  XXY=            -19.3904  XXZ=              2.0387  XZZ=            -10.7000  YZZ=             -2.9628
  YYZ=             -0.3520  XYZ=              0.8588
 Hexadecapole moment (field-independent basis, Debye-Ang**3):
 XXXX=          -4273.9858 YYYY=           -894.4850 ZZZZ=           -108.9895 XXXY=             62.0671
 XXXZ=              5.4762 YYYX=              1.2513 YYYZ=              3.7543 ZZZX=             -4.2861
 ZZZY=             -1.4828 XXYY=           -901.8417 XXZZ=           -923.9742 YYZZ=           -193.9185
 XXYZ=              1.1069 YYXZ=              1.5678 ZZXY=             15.0533
 N-N= 9.743081633471D+02 E-N=-3.489030582695D+03  KE= 6.569457630635D+02
   1 Symmetry operations used in ECPInt.
 ECPInt:  NShTT=    8385 NPrTT=   30869 LenC2=    7602 LenP2D=   20096.
 LDataN:  DoStor=T MaxTD1= 5 Len=  102
 Calling FoFJK, ICntrl=      2127 FMM=F ISym2X=0 I1Cent= 0 IOpClX= 0 NMat=1 NMatS=1 NMatT=0.
 ***** Axes restored to original set *****
 -------------------------------------------------------------------
 Center     Atomic                   Forces (Hartrees/Bohr)
 Number     Number              X              Y              Z
 -------------------------------------------------------------------
      1        7           0.047090374   -0.019055886   -0.000467382
      2        6          -0.001481101   -0.016919530    0.000099212
      3        6           0.016725325    0.000355593   -0.000772228
      4        6          -0.025182821    0.003179608    0.000102302
      5        6           0.022055805    0.001311107   -0.000483423
      6        6          -0.040069731    0.010791715   -0.000067951
      7        6           0.013481500   -0.024116611   -0.000007166
      8        6           0.020109162    0.023268895    0.000017137
      9        6          -0.010292409   -0.028118038   -0.001004645
     10        6          -0.013771414    0.060255239    0.003891282
     11        1           0.003029415   -0.003732800   -0.000002480
     12        1          -0.002245262   -0.003799785    0.000059773
     13        1           0.004734749    0.002141444    0.000005888
     14        1          -0.003558272   -0.002889255   -0.000006001
     15        1          -0.003003244    0.003040457    0.000012343
     16        1           0.004557877   -0.002485985    0.000244566
     17        7          -0.025681996   -0.033715098   -0.008205278
     18        7           0.000501730    0.000526256    0.000315542
     19        6          -0.009807535   -0.026236562   -0.001272532
     20        6          -0.005101139   -0.007131971    0.001902960
     21        6          -0.047002624    0.098240760    0.003700392
     22        6           0.039793052   -0.034430679   -0.000376408
     23        1           0.001373536    0.007550978    0.002939395
     24        1           0.003450443    0.002217366   -0.000600364
     25        1          -0.002131720    0.001204359    0.000784772
     26        1           0.006484390   -0.004992302   -0.000293435
     27        1           0.005941911   -0.006459271   -0.000516273
 -------------------------------------------------------------------
 Cartesian Forces:  Max     0.098240760 RMS     0.019306666

 GradGradGradGradGradGradGradGradGradGradGradGradGradGradGradGradGradGrad
 Berny optimization.
 FormGI is forming the generalized inverse of G from B-inverse, IUseBI=4.
 Internal  Forces:  Max     0.060013307 RMS     0.012997600
 Search for a local minimum.
 Step number   1 out of a maximum of  152
 All quantities printed in internal units (Hartrees-Bohrs-Radians)
 Mixed Optimization -- RFO/linear search
 Second derivative matrix not updated -- first step.
 ITU=  0
     Eigenvalues ---    0.00729   0.01131   0.01552   0.01655   0.01790
     Eigenvalues ---    0.02037   0.02053   0.02101   0.02123   0.02149
     Eigenvalues ---    0.02157   0.02166   0.02182   0.02191   0.02194
     Eigenvalues ---    0.02210   0.02214   0.02255   0.02301   0.02316
     Eigenvalues ---    0.02339   0.02402   0.07839   0.07911   0.16000
     Eigenvalues ---    0.16000   0.16000   0.16000   0.16000   0.16000
     Eigenvalues ---    0.16000   0.16000   0.16000   0.16000   0.16000
     Eigenvalues ---    0.22000   0.22389   0.22728   0.22812   0.24359
     Eigenvalues ---    0.24630   0.24754   0.24989   0.24991   0.24999
     Eigenvalues ---    0.25000   0.34465   0.34471   0.34508   0.34990
     Eigenvalues ---    0.35067   0.35092   0.35267   0.35310   0.35407
     Eigenvalues ---    0.35553   0.35869   0.35972   0.39000   0.39260
     Eigenvalues ---    0.41739   0.43703   0.44441   0.44807   0.45547
     Eigenvalues ---    0.46345   0.46522   0.46969   0.47040   0.48135
     Eigenvalues ---    0.50953   0.51031   0.52933   0.54691   0.60777
 RFO step:  Lambda=-5.96949824D-02 EMin= 7.28775947D-03
 Linear search not attempted -- first point.
 Maximum step size (   0.300) exceeded in Quadratic search.
    -- Step size scaled by   0.742
 Iteration  1 RMS(Cart)=  0.07797835 RMS(Int)=  0.00233811
 Iteration  2 RMS(Cart)=  0.00534186 RMS(Int)=  0.00020689
 Iteration  3 RMS(Cart)=  0.00000485 RMS(Int)=  0.00020687
 Iteration  4 RMS(Cart)=  0.00000000 RMS(Int)=  0.00020687
 Variable       Old X    -DE/DX   Delta X   Delta X   Delta X     New X
                                 (Linear)    (Quad)   (Total)
    R1        2.54444   0.00818   0.00000   0.00948   0.00944   2.55388
    R2        2.55642  -0.04837   0.00000  -0.06110  -0.06112   2.49530
    R3        2.66575   0.01990   0.00000   0.03239   0.03234   2.69809
    R4        2.65555   0.01086   0.00000   0.01631   0.01630   2.67184
    R5        2.64827   0.00881   0.00000   0.01466   0.01468   2.66295
    R6        2.63063   0.02299   0.00000   0.03302   0.03300   2.66363
    R7        2.63042  -0.00969   0.00000  -0.01438  -0.01437   2.61605
    R8        2.05566   0.00366   0.00000   0.00662   0.00662   2.06229
    R9        2.62180  -0.00837   0.00000  -0.01115  -0.01111   2.61068
   R10        2.05526   0.00374   0.00000   0.00676   0.00676   2.06202
   R11        2.64029  -0.01451   0.00000  -0.02109  -0.02107   2.61922
   R12        2.05691   0.00209   0.00000   0.00378   0.00378   2.06069
   R13        2.62526   0.02595   0.00000   0.03488   0.03490   2.66016
   R14        2.05175   0.00452   0.00000   0.00813   0.00813   2.05988
   R15        2.05244   0.00414   0.00000   0.00745   0.00745   2.05988
   R16        2.60785   0.03201   0.00000   0.04171   0.04173   2.64957
   R17        2.04786   0.00519   0.00000   0.00928   0.00928   2.05714
   R18        2.78319  -0.02883   0.00000  -0.05173  -0.05173   2.73146
   R19        2.58228   0.03419   0.00000   0.04097   0.04110   2.62338
   R20        2.72571   0.00361   0.00000   0.00592   0.00592   2.73164
   R21        2.58377  -0.01554   0.00000  -0.01935  -0.01868   2.56508
   R22        2.48413   0.05397   0.00000   0.06073   0.06101   2.54514
   R23        2.59352   0.02085   0.00000   0.02892   0.02845   2.62197
   R24        2.59851  -0.03183   0.00000  -0.04474  -0.04535   2.55316
   R25        2.04288   0.00555   0.00000   0.00984   0.00984   2.05272
   R26        2.06482   0.00477   0.00000   0.00875   0.00875   2.07357
   R27        2.06552   0.00372   0.00000   0.00683   0.00683   2.07235
   R28        2.06542   0.00176   0.00000   0.00323   0.00323   2.06866
   R29        2.04125   0.00809   0.00000   0.01433   0.01433   2.05558
    A1        2.06323   0.00105   0.00000  -0.00205  -0.00213   2.06110
    A2        2.10020  -0.00163   0.00000  -0.00372  -0.00376   2.09644
    A3        2.06094  -0.00688   0.00000  -0.01159  -0.01158   2.04937
    A4        2.12204   0.00851   0.00000   0.01531   0.01533   2.13738
    A5        2.12664   0.00349   0.00000   0.00875   0.00872   2.13536
    A6        2.09597  -0.00351   0.00000  -0.01179  -0.01174   2.08423
    A7        2.06057   0.00002   0.00000   0.00304   0.00303   2.06360
    A8        2.10127  -0.00143   0.00000  -0.00375  -0.00376   2.09751
    A9        2.10518  -0.00249   0.00000  -0.00896  -0.00896   2.09622
   A10        2.07674   0.00392   0.00000   0.01271   0.01272   2.08946
   A11        2.09790  -0.00578   0.00000  -0.00999  -0.00994   2.08796
   A12        2.10691   0.00048   0.00000  -0.00314  -0.00317   2.10373
   A13        2.07838   0.00530   0.00000   0.01314   0.01311   2.09149
   A14        2.12262  -0.00511   0.00000  -0.01197  -0.01197   2.11065
   A15        2.09089  -0.00234   0.00000  -0.01055  -0.01055   2.08034
   A16        2.06967   0.00745   0.00000   0.02252   0.02252   2.09219
   A17        2.08704   0.00369   0.00000   0.00678   0.00681   2.09385
   A18        2.09766  -0.00263   0.00000  -0.00606  -0.00607   2.09159
   A19        2.09849  -0.00105   0.00000  -0.00072  -0.00073   2.09775
   A20        2.09467   0.00447   0.00000   0.00962   0.00965   2.10432
   A21        2.09283  -0.00333   0.00000  -0.00851  -0.00852   2.08431
   A22        2.09568  -0.00114   0.00000  -0.00111  -0.00113   2.09456
   A23        2.05141   0.00370   0.00000   0.00882   0.00888   2.06028
   A24        2.11489  -0.00188   0.00000  -0.00453  -0.00456   2.11032
   A25        2.11689  -0.00181   0.00000  -0.00429  -0.00431   2.11258
   A26        2.16625   0.00442   0.00000   0.00607   0.00605   2.17230
   A27        2.02732   0.00441   0.00000   0.01299   0.01296   2.04029
   A28        2.08899  -0.00878   0.00000  -0.01864  -0.01867   2.07033
   A29        2.20456  -0.01055   0.00000  -0.02333  -0.02364   2.18092
   A30        1.87525   0.03224   0.00000   0.07339   0.07399   1.94924
   A31        2.20337  -0.02169   0.00000  -0.05005  -0.05036   2.15301
   A32        2.09000   0.00525   0.00000   0.00809   0.00820   2.09820
   A33        2.36456  -0.04908   0.00000  -0.12217  -0.12207   2.24249
   A34        1.82836   0.04383   0.00000   0.11416   0.11395   1.94231
   A35        1.82970   0.01033   0.00000   0.01698   0.01642   1.84613
   A36        2.14088   0.00098   0.00000   0.01228   0.01256   2.15343
   A37        2.31260  -0.01131   0.00000  -0.02926  -0.02898   2.28362
   A38        1.88703   0.00963   0.00000   0.03303   0.03295   1.91998
   A39        1.90430   0.00120   0.00000   0.00428   0.00420   1.90850
   A40        1.90309  -0.00168   0.00000  -0.00640  -0.00639   1.89670
   A41        1.92724  -0.00437   0.00000  -0.01331  -0.01348   1.91376
   A42        1.92763  -0.00420   0.00000  -0.01466  -0.01465   1.91299
   A43        1.91405  -0.00037   0.00000  -0.00225  -0.00225   1.91180
   A44        1.95123  -0.06001   0.00000  -0.13311  -0.13187   1.81937
   A45        1.94023  -0.02639   0.00000  -0.07142  -0.07250   1.86773
   A46        2.11691   0.01668   0.00000   0.04749   0.04803   2.16494
   A47        2.22605   0.00971   0.00000   0.02393   0.02447   2.25051
    D1       -0.00008   0.00007   0.00000   0.00022   0.00019   0.00010
    D2        3.14151  -0.00003   0.00000  -0.00056  -0.00058   3.14093
    D3        0.00026   0.00015   0.00000   0.00199   0.00201   0.00227
    D4       -3.10337  -0.00099   0.00000  -0.01044  -0.01060  -3.11397
    D5        3.14159  -0.00011   0.00000  -0.00090  -0.00090   3.14069
    D6        0.00000  -0.00001   0.00000  -0.00014  -0.00015  -0.00015
    D7       -0.00000  -0.00016   0.00000  -0.00146  -0.00145  -0.00145
    D8        3.14159  -0.00007   0.00000  -0.00070  -0.00070   3.14089
    D9       -0.00000   0.00001   0.00000   0.00008   0.00008   0.00008
   D10        3.14159  -0.00001   0.00000  -0.00013  -0.00013   3.14146
   D11        3.14159   0.00006   0.00000   0.00066   0.00066  -3.14093
   D12        0.00000   0.00004   0.00000   0.00045   0.00045   0.00045
   D13       -0.00008   0.00005   0.00000   0.00061   0.00061   0.00052
   D14       -3.14149   0.00010   0.00000   0.00101   0.00099  -3.14050
   D15        3.14151  -0.00001   0.00000   0.00004   0.00004   3.14155
   D16        0.00011   0.00005   0.00000   0.00044   0.00042   0.00053
   D17        3.14159   0.00010   0.00000   0.00087   0.00086  -3.14073
   D18        0.00011   0.00007   0.00000   0.00054   0.00054   0.00064
   D19       -0.00000   0.00001   0.00000   0.00013   0.00013   0.00013
   D20       -3.14149  -0.00003   0.00000  -0.00020  -0.00019   3.14150
   D21        0.00000  -0.00000   0.00000   0.00001   0.00001   0.00001
   D22        3.14159  -0.00001   0.00000  -0.00006  -0.00006   3.14153
   D23        3.14159   0.00002   0.00000   0.00021   0.00022  -3.14138
   D24       -0.00000   0.00001   0.00000   0.00015   0.00015   0.00015
   D25        0.00024   0.00014   0.00000   0.00137   0.00134   0.00158
   D26        3.14159   0.00021   0.00000   0.00183   0.00178  -3.13981
   D27       -3.14154   0.00009   0.00000   0.00098   0.00096  -3.14058
   D28       -0.00019   0.00016   0.00000   0.00143   0.00141   0.00122
   D29        0.00000  -0.00000   0.00000  -0.00004  -0.00005  -0.00005
   D30       -3.14149  -0.00001   0.00000  -0.00015  -0.00015   3.14155
   D31        3.14149   0.00003   0.00000   0.00028   0.00028  -3.14142
   D32        0.00000   0.00002   0.00000   0.00017   0.00017   0.00018
   D33       -0.00000  -0.00000   0.00000  -0.00003  -0.00003  -0.00003
   D34        3.14149   0.00001   0.00000   0.00008   0.00008   3.14157
   D35        3.14159   0.00000   0.00000   0.00004   0.00004  -3.14155
   D36       -0.00011   0.00002   0.00000   0.00015   0.00015   0.00004
   D37       -0.00034  -0.00026   0.00000  -0.00278  -0.00281  -0.00315
   D38        3.10203   0.00120   0.00000   0.01073   0.01066   3.11269
   D39        3.14149  -0.00033   0.00000  -0.00324  -0.00325   3.13824
   D40       -0.03932   0.00113   0.00000   0.01027   0.01021  -0.02911
   D41        0.03099   0.00036   0.00000   0.00422   0.00428   0.03527
   D42       -3.13971   0.00125   0.00000   0.01079   0.01071  -3.12899
   D43       -3.07443  -0.00101   0.00000  -0.00816  -0.00808  -3.08251
   D44        0.03806  -0.00012   0.00000  -0.00159  -0.00165   0.03641
   D45        3.14136  -0.00051   0.00000  -0.00492  -0.00509   3.13627
   D46        0.00130  -0.00046   0.00000  -0.00432  -0.00442  -0.00312
   D47       -0.00031  -0.00012   0.00000  -0.00146  -0.00155  -0.00186
   D48       -3.14037  -0.00006   0.00000  -0.00086  -0.00088  -3.14125
   D49       -1.59387   0.00010   0.00000   0.00317   0.00302  -1.59085
   D50        0.50274   0.00121   0.00000   0.00909   0.00908   0.51183
   D51        2.59292   0.00047   0.00000   0.00510   0.00503   2.59795
   D52        1.54781  -0.00037   0.00000  -0.00092  -0.00092   1.54689
   D53       -2.63876   0.00074   0.00000   0.00500   0.00514  -2.63362
   D54       -0.54858  -0.00000   0.00000   0.00100   0.00109  -0.54749
   D55       -0.00014   0.00007   0.00000   0.00179   0.00177   0.00163
   D56        3.14137   0.00047   0.00000   0.00525   0.00524  -3.13657
   D57        3.12102  -0.00064   0.00000   0.00022   0.00074   3.12176
   D58        0.00053   0.00001   0.00000  -0.00128  -0.00132  -0.00078
   D59       -3.11620  -0.00067   0.00000  -0.00492  -0.00470  -3.12090
   D60        0.02545  -0.00033   0.00000  -0.00268  -0.00257   0.02288
   D61       -0.00074  -0.00009   0.00000   0.00031   0.00041  -0.00033
   D62        3.14092   0.00024   0.00000   0.00255   0.00254  -3.13973
   D63        0.00065   0.00012   0.00000   0.00069   0.00062   0.00128
   D64       -3.14100  -0.00024   0.00000  -0.00172  -0.00164   3.14054
   D65        3.14050   0.00007   0.00000   0.00007  -0.00006   3.14044
   D66       -0.00116  -0.00029   0.00000  -0.00235  -0.00233  -0.00349
         Item               Value     Threshold  Converged?
 Maximum Force            0.060013     0.000450     NO 
 RMS     Force            0.012998     0.000300     NO 
 Maximum Displacement     0.283101     0.001800     NO 
 RMS     Displacement     0.078455     0.001200     NO 
 Predicted change in Energy=-3.056772D-02
 GradGradGradGradGradGradGradGradGradGradGradGradGradGradGradGradGradGrad

                          Input orientation:                          
 ---------------------------------------------------------------------
 Center     Atomic      Atomic             Coordinates (Angstroms)
 Number     Number       Type             X           Y           Z
 ---------------------------------------------------------------------
      1          7           0        1.405859    1.604058    0.024266
      2          6           0        0.273685   -0.551817    0.011827
      3          6           0        0.267354    0.875931    0.015640
      4          6           0       -0.946146   -1.266661    0.003865
      5          6           0        1.527395   -1.195212    0.015612
      6          6           0       -0.977389    1.537276    0.011076
      7          6           0       -2.151605   -0.586009   -0.000364
      8          6           0       -2.164345    0.821627    0.003255
      9          6           0        2.683343   -0.438704    0.023361
     10          6           0        2.557295    0.957700    0.029142
     11          1           0       -0.941059   -2.357961    0.000830
     12          1           0        1.591527   -2.284494    0.011935
     13          1           0       -1.000483    2.627498    0.013978
     14          1           0       -3.088761   -1.142686   -0.006557
     15          1           0       -3.113144    1.358247   -0.000096
     16          1           0        3.662721   -0.913938    0.024739
     17          7           0        4.965053    3.517116    0.198440
     18          7           0        3.758042    1.761099    0.073942
     19          6           0        5.848603    2.447358    0.152074
     20          6           0        5.351335    4.906926    0.291949
     21          6           0        3.673267    3.103138    0.149442
     22          6           0        5.079785    1.339071    0.074447
     23          1           0        5.409429    5.210403    1.344832
     24          1           0        6.328475    5.045417   -0.186210
     25          1           0        4.601542    5.514607   -0.224647
     26          1           0        6.928395    2.562374    0.179704
     27          1           0        5.386248    0.296864    0.018641
 ---------------------------------------------------------------------
                    Distance matrix (angstroms):
                    1          2          3          4          5
     1  N    0.000000
     2  C    2.435111   0.000000
     3  C    1.351457   1.427766   0.000000
     4  C    3.711249   1.413879   2.462401   0.000000
     5  C    2.801921   1.409171   2.424322   2.474600   0.000000
     6  C    2.384220   2.435056   1.409533   2.804121   3.706812
     7  C    4.177625   2.425562   2.826462   1.384355   3.729132
     8  C    3.654996   2.798287   2.432337   2.417635   4.206749
     9  C    2.409324   2.412339   2.750514   3.722779   1.381514
    10  C    1.320457   2.737483   2.291440   4.150002   2.386610
    11  H    4.605016   2.176668   3.452324   1.091316   2.728639
    12  H    3.893001   2.176896   3.426621   2.734197   1.091174
    13  H    2.614960   3.425135   2.162268   3.894552   4.582934
    14  H    5.267558   3.414017   3.916480   2.146225   4.616509
    15  H    4.525749   3.888328   3.414769   3.403828   5.296698
    16  H    3.381381   3.408352   3.838259   4.622391   2.153791
    17  N    4.044501   6.212887   5.392370   7.606882   5.835833
    18  N    2.357943   4.182604   3.601642   5.594785   3.703912
    19  C    4.523877   6.332016   5.799856   7.744966   5.653297
    20  C    5.152414   7.460487   6.494008   8.823516   7.206592
    21  C    2.721038   4.993474   4.071682   6.360449   4.806088
    22  C    3.683812   5.165073   4.835024   6.565567   4.364118
    23  H    5.547810   7.833003   6.855315   9.172997   7.607162
    24  H    6.009942   8.247952   7.359521   9.633201   7.876328
    25  H    5.056356   7.455720   6.352971   8.764397   7.384427
    26  H    5.607222   7.349254   6.873171   8.757901   6.581579
    27  H    4.189545   5.182529   5.151544   6.522579   4.137275
                    6          7          8          9         10
     6  C    0.000000
     7  C    2.426367   0.000000
     8  C    1.386030   1.407698   0.000000
     9  C    4.160001   4.837250   5.008884   0.000000
    10  C    3.581930   4.955568   4.723671   1.402093   0.000000
    11  H    3.895420   2.145982   3.406789   4.101262   4.820051
    12  H    4.604916   4.110480   4.873873   2.144559   3.383020
    13  H    1.090470   3.413491   2.148455   4.792938   3.930171
    14  H    3.411803   1.090041   2.170983   5.814952   6.024188
    15  H    2.143275   2.169030   1.090042   6.068677   5.684643
    16  H    5.247786   5.823621   6.080078   1.088592   2.173711
    17  N    6.266377   8.217176   7.624439   4.570050   3.518035
    18  N    4.741135   6.359117   5.996855   2.448809   1.445424
    19  C    6.887836   8.557329   8.177559   4.285416   3.614817
    20  C    7.175387   9.303327   8.559116   5.980475   4.844803
    21  C    4.909141   6.896476   6.269320   3.679740   2.421315
    22  C    6.060748   7.483618   7.262936   2.984297   2.551559
    23  H    7.487470   9.621704   8.855690   6.410166   5.286888
    24  H    8.106887  10.181319   9.487059   6.588360   5.565753
    25  H    6.855596   9.103451   8.237307   6.259625   5.000875
    26  H    7.973750   9.612032   9.259550   5.201094   4.658773
    27  H    6.483406   7.589404   7.568822   2.801210   2.905132
                   11         12         13         14         15
    11  H    0.000000
    12  H    2.533676   0.000000
    13  H    4.985831   5.553934   0.000000
    14  H    2.467706   4.817589   4.309944   0.000000
    15  H    4.304435   5.950096   2.464657   2.501060   0.000000
    16  H    4.824994   2.483632   5.855541   6.755429   7.146733
    17  N    8.332931   6.713727   6.034324   9.306970   8.364054
    18  N    6.249284   4.589602   4.837128   7.437551   6.883384
    19  C    8.319463   6.366533   6.852846   9.632759   9.028966
    20  C    9.615486   8.119795   6.754159  10.388558   9.182909
    21  C    7.151062   5.777466   4.699843   7.986011   7.008736
    22  C    7.065694   5.030117   6.215575   8.537613   8.193291
    23  H    9.970716   8.516247   7.037723  10.696132   9.448926
    24  H   10.377433   8.729577   7.720106  11.269837  10.137753
    25  H    9.630607   8.363141   6.306744  10.173882   8.765964
    26  H    9.282781   7.211271   7.930878  10.682022  10.115076
    27  H    6.861722   4.589483   6.798692   8.596436   8.565428
                   16         17         18         19         20
    16  H    0.000000
    17  N    4.621740   0.000000
    18  N    2.677187   2.134472   0.000000
    19  C    4.011559   1.388234   2.201704   0.000000
    20  C    6.066735   1.445520   3.533035   2.513228   0.000000
    21  C    4.019025   1.357383   1.346832   2.272034   2.467767
    22  C    2.662066   2.184586   1.387484   1.351076   3.584778
    23  H    6.503936   2.092583   4.029881   3.041375   1.097285
    24  H    6.531819   2.083886   4.178702   2.663574   1.096639
    25  H    6.501521   2.073912   3.858688   3.332431   1.094687
    26  H    4.772148   2.183254   3.271753   1.086253   2.827833
    27  H    2.106329   3.252654   2.190456   2.203679   4.618288
                   21         22         23         24         25
    21  C    0.000000
    22  C    2.257399   0.000000
    23  H    2.980568   4.087756   0.000000
    24  H    3.306847   3.919715   1.793308   0.000000
    25  H    2.610904   4.213463   1.791225   1.789948   0.000000
    26  H    3.299879   2.219214   3.267543   2.580562   3.780664
    27  H    3.290378   1.087764   5.089419   4.845463   5.282026
                   26         27
    26  H    0.000000
    27  H    2.745305   0.000000
 Stoichiometry    C13H11N3
 Framework group  C1[X(C13H11N3)]
 Deg. of freedom    75
 Full point group                 C1      NOp   1
 Largest Abelian subgroup         C1      NOp   1
 Largest concise Abelian subgroup C1      NOp   1
                         Standard orientation:                         
 ---------------------------------------------------------------------
 Center     Atomic      Atomic             Coordinates (Angstroms)
 Number     Number       Type             X           Y           Z
 ---------------------------------------------------------------------
      1          7           0        0.365896   -0.621412   -0.052576
      2          6           0        2.396625    0.720616    0.017186
      3          6           0        1.714155   -0.532779   -0.024686
      4          6           0        3.809701    0.758374    0.046255
      5          6           0        1.608410    1.888682    0.027079
      6          6           0        2.485888   -1.712221   -0.036037
      7          6           0        4.537715   -0.419033    0.034165
      8          6           0        3.870553   -1.657904   -0.007182
      9          6           0        0.231220    1.783630   -0.002798
     10          6           0       -0.331339    0.499891   -0.040313
     11          1           0        4.331134    1.716529    0.078136
     12          1           0        2.077169    2.873566    0.057571
     13          1           0        1.980751   -2.678116   -0.067808
     14          1           0        5.626943   -0.383469    0.056661
     15          1           0        4.443133   -2.585402   -0.016749
     16          1           0       -0.397671    2.672168    0.002475
     17          7           0       -3.677796   -0.583748    0.018999
     18          7           0       -1.771309    0.374554   -0.035183
     19          6           0       -3.935076    0.780255   -0.003282
     20          6           0       -4.688172   -1.616557    0.063443
     21          6           0       -2.345609   -0.843239   -0.001754
     22          6           0       -2.725690    1.381662   -0.036449
     23          1           0       -4.912223   -1.877969    1.105316
     24          1           0       -5.598535   -1.255742   -0.430185
     25          1           0       -4.311002   -2.498744   -0.463651
     26          1           0       -4.936987    1.199765    0.008149
     27          1           0       -2.490534    2.443387   -0.062368
 ---------------------------------------------------------------------
 Rotational constants (GHZ):           1.6495471           0.2748417           0.2360016
 Standard basis: def2SVP (5D, 7F)
 There are   295 symmetry adapted cartesian basis functions of A   symmetry.
 There are   279 symmetry adapted basis functions of A   symmetry.
   279 basis functions,   477 primitive gaussians,   295 cartesian basis functions
    55 alpha electrons       55 beta electrons
       nuclear repulsion energy       976.1467345085 Hartrees.
 NAtoms=   27 NActive=   27 NUniq=   27 SFac= 1.00D+00 NAtFMM=   60 NAOKFM=F Big=F
 Integral buffers will be    131072 words long.
 Raffenetti 2 integral format.
 Two-electron integral symmetry is turned on.
 One-electron integrals computed using PRISM.
   1 Symmetry operations used in ECPInt.
 ECPInt:  NShTT=    8385 NPrTT=   30869 LenC2=    7611 LenP2D=   20143.
 LDataN:  DoStor=T MaxTD1= 4 Len=   56
 NBasis=   279 RedAO= T EigKep=  2.58D-04  NBF=   279
 NBsUse=   279 1.00D-06 EigRej= -1.00D+00 NBFU=   279
 Initial guess from the checkpoint file:  "carbene2_opt.chk"
 B after Tr=     0.000000   -0.000000    0.000000
         Rot=    0.999999    0.000973    0.000113    0.000222 Ang=   0.12 deg.
 ExpMin= 1.22D-01 ExpMax= 1.71D+03 ExpMxC= 2.58D+02 IAcc=3 IRadAn=         5 AccDes= 0.00D+00
 Harris functional with IExCor= 1009 and IRadAn=       5 diagonalized for initial guess.
 HarFok:  IExCor= 1009 AccDes= 0.00D+00 IRadAn=         5 IDoV= 1 UseB2=F ITyADJ=14
 ICtDFT=  3500011 ScaDFX=  1.000000  1.000000  1.000000  1.000000
 FoFCou: FMM=F IPFlag=           0 FMFlag=      100000 FMFlg1=           0
         NFxFlg=           0 DoJE=T BraDBF=F KetDBF=T FulRan=T
         wScrn=  0.000000 ICntrl=       500 IOpCl=  0 I1Cent=   200000004 NGrid=           0
         NMat0=    1 NMatS0=      1 NMatT0=    0 NMatD0=    1 NMtDS0=    0 NMtDT0=    0
 Petite list used in FoFCou.
 Requested convergence on RMS density matrix=1.00D-08 within 128 cycles.
 Requested convergence on MAX density matrix=1.00D-06.
 Requested convergence on             energy=1.00D-06.
 No special actions if energy rises.
 Integral accuracy reduced to 1.0D-05 until final iterations.
 Initial convergence to 1.0D-05 achieved.  Increase integral accuracy.
 SCF Done:  E(RMN15) =  -664.844753023     A.U. after   14 cycles
            NFock= 14  Conv=0.47D-08     -V/T= 2.0122
   1 Symmetry operations used in ECPInt.
 ECPInt:  NShTT=    8385 NPrTT=   30869 LenC2=    7611 LenP2D=   20143.
 LDataN:  DoStor=T MaxTD1= 5 Len=  102
 Calling FoFJK, ICntrl=      2127 FMM=F ISym2X=0 I1Cent= 0 IOpClX= 0 NMat=1 NMatS=1 NMatT=0.
 ***** Axes restored to original set *****
 -------------------------------------------------------------------
 Center     Atomic                   Forces (Hartrees/Bohr)
 Number     Number              X              Y              Z
 -------------------------------------------------------------------
      1        7           0.016715624   -0.010697184   -0.000292963
      2        6          -0.002128170   -0.002860998    0.000036574
      3        6           0.003855476   -0.003823451   -0.000426095
      4        6          -0.012305011    0.003468867    0.000003062
      5        6           0.014063725    0.002965210   -0.000317343
      6        6          -0.018272009    0.002644126   -0.000142060
      7        6           0.006249879   -0.009467795    0.000001483
      8        6           0.008806068    0.008845988    0.000066271
      9        6          -0.006596839   -0.017495142   -0.000837190
     10        6           0.002104929    0.027456182    0.002265037
     11        1           0.002188947   -0.001207506    0.000011427
     12        1          -0.001539224   -0.001333533    0.000021367
     13        1           0.003537948    0.000604401    0.000026158
     14        1          -0.001407484   -0.000459411   -0.000008681
     15        1          -0.001479148    0.000438177    0.000002723
     16        1           0.000118585   -0.000828679    0.000273962
     17        7          -0.003226234   -0.009819270   -0.003878281
     18        7          -0.012696734   -0.010518344   -0.000469741
     19        6          -0.000689605    0.002479002    0.000890009
     20        6          -0.000299248   -0.002934401    0.000843095
     21        6          -0.006461320    0.034207133    0.001274185
     22        6           0.006807660   -0.017688170   -0.000406045
[...]
 6336,0.00001240,-0.00025187,-0.00008889,-0.00007709,-0.00002879,0.0000
 6396,-0.00001938,0.00008782,-0.00003476,0.00001250,0.00002617,0.000073
 60,-0.00000989,0.00007604,0.00012695,-0.00016404,-0.00071434,-0.000924
 02,0.00158118,0.00000116,0.00001542,-0.00000286,0.00000263,0.00001696,
 0.00001736,-0.00000766,-0.00000103,0.00000311,0.00000932,0.00000256,0.
 00000248,0.00001437,-0.00000028,0.00000458,-0.00005535,0.00001747,0.00
 002013,-0.00473688,-0.04363522,-0.08009168,0.00336129,0.00093351,0.007
 71375,-0.00682268,-0.01168080,-0.00545068,-0.01673046,-0.01043531,0.58
 881690,0.00089068,-0.00278807,-0.00217064,0.00064516,-0.00013271,0.000
 26857,0.00005009,0.00007225,0.00061716,-0.00027449,-0.00009943,-0.0000
 9598,-0.00072245,-0.00052789,0.00075005,-0.00001744,0.00019647,-0.0001
 0240,0.00019492,-0.00014217,0.00004497,0.00010680,0.00015620,-0.000004
 70,-0.00169547,0.00062962,0.00040487,-0.00327677,-0.03028147,-0.009304
 87,0.00001135,0.00003542,0.00000052,-0.00012054,-0.00007661,-0.0001224
 0,-0.00003401,-0.00000738,-0.00000008,0.00001493,0.00000396,-0.0000023
 1,0.00003475,0.00000844,0.00000790,0.00012683,0.00005635,-0.00030458,-
 0.31015187,-0.04312876,0.05014089,-0.09423239,-0.00370490,0.00470145,-
 0.06198071,0.04305523,0.03431546,-0.00914399,-0.01515945,-0.00486849,0
 .48700465,0.00864543,-0.00227163,-0.00107624,0.00240987,-0.00011893,0.
 00049100,-0.00035866,-0.00061311,-0.00076035,-0.00099247,-0.00067817,0
 .00000112,-0.00287932,-0.00053998,0.00060275,-0.00008668,0.00050051,-0
 .00028697,0.00107499,-0.00023688,0.00012080,0.00009464,0.00076985,-0.0
 0005179,0.00301409,0.00622706,-0.00114195,-0.02961093,-0.02815173,0.00
 096511,0.00000594,0.00013567,-0.00001529,0.00006094,0.00020294,0.00002
 209,-0.00002834,-0.00003332,0.00000326,0.00005258,0.00000372,0.0000107
 3,0.00010978,-0.00000512,0.00004082,0.00020009,0.00018331,-0.00060266,
 -0.06078735,-0.10773860,-0.00377827,0.03165818,-0.24982403,-0.07210512
 ,-0.00810292,0.01433068,0.00078759,-0.02847872,-0.01409709,0.00510616,
 0.03343619,0.42637320,-0.00058754,-0.00366373,0.00044847,0.00038300,-0
 .00054290,0.00022151,0.00134052,0.00051523,-0.00043186,-0.00033091,-0.
 00012154,0.00006595,-0.00128644,0.00074238,0.00020711,-0.00039791,0.00
 019397,-0.00010223,0.00017236,-0.00032039,0.00007343,0.00023728,0.0002
 4981,0.00000251,0.00354992,0.00277965,0.00102982,-0.01118806,0.0036070
 3,-0.00528393,-0.00001874,-0.00000951,-0.00001232,0.00021306,0.0001247
 2,-0.00017959,0.00008829,-0.00001563,-0.00002112,0.00001339,-0.0000145
 6,-0.00001062,0.00001059,0.00000872,0.00000360,0.00007519,-0.00023425,
 -0.00018377,0.04234094,-0.00883744,-0.06783220,0.01892887,-0.06384900,
 -0.08330089,0.01809315,-0.01316788,0.00893640,-0.00960082,0.00192561,-
 0.00532671,-0.08834948,0.10841203,0.14259736,0.00410983,-0.00128806,0.
 00207803,0.00142345,-0.00003615,-0.00004592,-0.00112080,-0.00024080,-0
 .00148792,-0.00047749,-0.00047770,0.00008090,-0.00175519,0.00063876,0.
 00013953,0.00003079,0.00036755,-0.00015176,0.00069754,-0.00003477,0.00
 007841,0.00000992,0.00047895,-0.00001329,0.00223269,0.00309348,0.00121
 751,-0.03644047,-0.00238070,0.00776717,0.00001490,0.00011474,-0.000035
 04,0.00021352,0.00024916,0.00005247,-0.00004617,-0.00001633,-0.0000162
 2,0.00005584,0.00001033,0.00000179,0.00009784,-0.00001092,0.00003321,-
 0.00085954,-0.00028658,-0.00041354,0.00644047,-0.02135631,-0.00564261,
 -0.24400019,0.03895181,0.05506419,-0.24216341,-0.19820456,-0.01868362,
 -0.00542838,0.00360644,0.00275554,-0.00362304,0.05120987,0.02357448,0.
 58581578,-0.00498598,-0.00162277,0.00051779,-0.00089843,0.00006876,-0.
 00000745,-0.00008432,-0.00013676,-0.00121266,0.00030822,0.00018980,0.0
 0005269,0.00080460,0.00049821,-0.00008551,0.00000238,-0.00035538,-0.00
 002038,-0.00033846,0.00007425,-0.00006044,-0.00010418,-0.00020035,0.00
 010403,-0.00234868,-0.00215861,-0.00041469,-0.01286661,0.01458557,0.00
 906433,-0.00001968,-0.00006921,0.00000566,-0.00002007,-0.00006591,0.00
 003892,0.00003813,0.00001040,-0.00003142,-0.00002905,-0.00000751,-0.00
 000430,-0.00006732,-0.00000480,0.00000546,-0.00068658,-0.00049485,0.00
 078362,0.02638993,-0.07465234,-0.03589980,0.04478617,-0.11932154,-0.02
 981337,-0.20325478,-0.33394940,-0.03740790,0.00484313,0.00207358,-0.00
 106183,0.00503315,-0.04392992,-0.02111617,0.10350252,0.87057404,-0.004
 41428,-0.00131589,0.00047190,0.00018588,0.00000193,0.00009754,-0.00031
 079,-0.00000020,0.00083857,-0.00009579,-0.00006172,-0.00002734,0.00005
 342,-0.00091198,0.00002780,-0.00019170,-0.00016203,0.00001747,0.000068
 43,-0.00006330,0.00001744,-0.00001350,0.00012789,-0.00009640,-0.000791
 34,0.00097973,-0.00052071,0.00161686,0.00547935,-0.00398591,-0.0000194
 1,-0.00002379,0.00000679,-0.00011531,-0.00009906,-0.00006525,0.0000218
 3,0.00001666,0.00001471,-0.00001237,-0.00000790,0.00000424,-0.00002872
 ,-0.00000839,-0.00000276,0.00091159,0.00016165,0.00018219,0.00871904,-
 0.02406278,0.00426259,0.06482575,-0.02800416,-0.08037176,-0.02075101,-
 0.04035835,-0.07482852,0.00331304,-0.00121308,0.00055677,0.00727782,-0
 .03385955,0.00366978,-0.08538676,0.23488673,0.22140391,-0.00022941,-0.
 00003247,-0.00001375,-0.00005601,-0.00000980,-0.00000477,0.00009892,-0
 .00000259,0.00000976,0.00001097,0.00002320,-0.00000168,0.00006411,-0.0
 0000507,0.00000784,-0.00002300,-0.00001933,0.00000266,-0.00002315,0.00
 000178,-0.00000108,-0.00000588,-0.00000879,0.00000211,-0.00016209,-0.0
 0014587,0.00001869,0.00054941,0.00025111,-0.00000245,-0.00000022,-0.00
 000995,0.00000042,-0.00001241,-0.00001540,0.00000009,0.00001192,0.0000
 0212,-0.00000136,-0.00000698,-0.00000330,-0.00000113,-0.00000832,0.000
 00078,-0.00000230,0.00000475,0.00003569,-0.00002254,-0.00915440,-0.003
 48947,-0.00605923,0.00043379,-0.00151068,0.00059653,-0.00004571,0.0012
 4113,0.00088506,-0.19106822,0.01829274,-0.13752126,0.00034776,-0.00043
 979,-0.00182748,-0.00052087,-0.00092985,0.00007143,0.20261386,-0.00020
 147,0.00006035,0.00000963,-0.00005783,-0.00000035,-0.00000694,0.000071
 50,-0.00000579,-0.00000374,0.00001599,0.00002534,0.00000231,0.00007923
 ,-0.00003102,-0.00001332,-0.00001090,-0.00003027,0.00000475,-0.0000277
 9,0.00000298,-0.00000336,-0.00000721,-0.00001194,-0.00000001,-0.000235
 71,-0.00020065,-0.00002933,0.00083298,0.00001612,0.00022854,-0.0000003
 7,-0.00000686,0.00000098,-0.00001625,-0.00001489,0.00000578,0.00000418
 ,0.00000113,0.00000048,-0.00000470,-0.00000107,-0.00000057,-0.00000763
 ,-0.00000013,-0.00000075,-0.00000823,0.00002591,0.00000303,-0.03115711
 ,-0.00511115,-0.02381308,-0.00055547,-0.00293317,0.00015354,-0.0006481
 7,0.00299022,0.00067860,0.02373721,-0.04979412,0.02082855,0.00288205,0
 .00076012,-0.00301605,-0.00150091,-0.00048038,0.00042501,-0.01280978,0
 .05602078,-0.00009332,-0.00000639,0.00000978,-0.00003618,-0.00000258,-
 0.00000267,0.00005036,0.00000018,0.00000487,0.00000984,0.00001502,0.00
 000057,0.00004677,0.00000213,-0.00000568,-0.00000867,-0.00001053,0.000
 00172,-0.00001490,0.00000246,-0.00000195,-0.00000246,-0.00000871,0.000
 00064,-0.00008869,-0.00008496,0.00000102,0.00035141,0.00014094,-0.0000
 0371,-0.00000006,-0.00000546,0.00000105,-0.00000658,-0.00000744,0.0000
 0141,0.00000579,0.00000050,0.,-0.00000384,-0.00000171,-0.00000033,-0.0
 0000423,0.00000072,-0.00000076,-0.00000244,0.00001543,0.00000140,-0.00
 462023,-0.00427639,-0.00074864,0.00032529,-0.00105417,-0.00047937,-0.0
 0062611,0.00101503,0.00082051,-0.13831857,0.01749747,-0.18046797,0.001
 75208,0.00108063,-0.00055625,-0.00072446,-0.00051253,0.00000392,0.1516
 3903,-0.01557092,0.18705479,-0.00017325,0.00001575,-0.00005648,-0.0000
 6291,0.00000837,-0.00000296,0.00005134,-0.00001153,0.00001971,0.000018
 29,0.00002753,-0.00000423,0.00007562,0.00001166,0.00000934,-0.00000508
 ,-0.00003549,0.00000066,-0.00002937,0.00000689,-0.00000462,-0.00000974
 ,-0.00001541,0.00000016,-0.00010403,-0.00011920,0.00003131,0.00049863,
 0.00025312,-0.00007549,-0.00000012,-0.00000641,0.00000197,-0.00000713,
 -0.00000983,-0.00000086,0.00000353,0.00000183,0.00000431,-0.00000534,-
 0.00000114,0.00000008,-0.00000874,0.00000005,0.00000034,0.00000230,0.0
 0002640,-0.00001316,-0.00659248,-0.00803405,0.00919760,-0.00048705,-0.
 00069497,-0.00144651,0.00009652,0.00118230,0.00016174,-0.08183772,-0.0
 4143999,0.08083315,0.00063145,-0.00167666,0.00090393,-0.00042432,-0.00
 055280,-0.00023074,0.00926910,0.00993399,-0.01869066,0.08410371,-0.000
 24295,-0.00000418,-0.00001152,-0.00010395,0.00000781,-0.00001326,0.000
 06466,-0.00000377,0.00004841,0.00003293,0.00003770,-0.00000230,0.00012
 324,0.00001765,0.00000821,-0.00000386,-0.00003780,0.00000737,-0.000046
 54,0.00001104,-0.00000623,-0.00001222,-0.00003116,0.00000136,-0.000166
 36,-0.00018237,0.00003165,0.00073810,0.00038644,-0.00044138,-0.0000006
 1,-0.00001063,0.00000232,-0.00001024,-0.00001494,0.00000025,0.00000765
 ,0.00000264,0.00000132,-0.00000712,-0.00000216,-0.00000068,-0.00001045
 ,0.00000061,-0.00000149,0.00000837,0.00002560,0.00000229,-0.01886237,-
 0.02154258,0.02218136,-0.00063271,-0.00267916,-0.00160304,-0.00084068,
 0.00303900,0.00131027,-0.03940619,-0.09638668,0.09569962,0.00438649,-0
 .00036232,0.00116736,-0.00166714,-0.00072321,0.00011864,-0.00068142,-0
 .00054105,0.00224130,0.05263666,0.11027634,0.00002024,0.00000926,0.000
 01855,0.00000383,0.00000010,-0.00000248,-0.00003182,0.00001028,0.00000
 931,0.00000221,-0.00000615,0.00000136,-0.00000525,-0.00000276,0.000006
 06,0.00000695,0.00000615,0.00000384,0.00000101,-0.00000011,0.00000126,
 0.00000064,-0.00000111,0.00000077,0.00001745,0.00003009,0.00001319,-0.
 00006971,-0.00006422,-0.00018861,-0.00000035,0.00000212,-0.00000134,0.
 00000187,0.00000166,-0.00000310,-0.00000342,-0.00000035,-0.00000278,0.
 00000256,0.00000110,-0.00000072,0.00000279,-0.00000057,-0.00000095,0.0
 0000583,-0.00001627,0.00000085,-0.00541414,-0.00668904,0.01297844,-0.0
 0074422,-0.00034209,-0.00000995,0.00035123,0.00010596,0.00063750,0.084
 27670,0.10082223,-0.24298665,0.00047066,-0.00040901,0.00018501,-0.0001
 8162,0.00047138,0.00014569,0.00891987,0.00723102,-0.01488282,-0.088218
 44,-0.10613000,0.25135562,0.00009052,0.00007034,0.00003967,0.00002301,
 0.00001239,-0.00000590,-0.00008571,-0.00000347,-0.00000815,-0.00000209
 ,-0.00000812,0.00000120,-0.00002302,0.00001248,-0.00000405,0.00001962,
 0.00000599,0.00000657,0.00000866,0.00000311,0.00000059,-0.00000156,0.0
 0000117,0.00000035,0.00006342,0.00002847,0.00000795,-0.00013204,-0.000
 14027,-0.00003547,0.00000084,0.00000586,-0.00000134,0.00000591,0.00000
 690,-0.00000238,-0.00000947,-0.00000105,-0.00000333,0.00000402,0.00000
 248,-0.00000013,0.00000477,-0.00000086,0.,-0.00000849,0.00000053,0.000
 00169,0.01106905,-0.00949670,-0.00605293,-0.00009118,-0.00038218,-0.00
 008992,-0.00154849,-0.00138363,0.00016014,-0.21991194,0.12693227,0.084
 65952,0.00069302,-0.00093041,-0.00071215,0.00014355,-0.00063054,-0.000
 16250,-0.01204923,0.00929314,0.00894955,-0.00509577,0.00429001,0.00058
 586,0.22698232,0.00001175,0.00005688,0.00005581,-0.00000848,0.00000797
 ,-0.00001190,-0.00006301,-0.00000496,-0.00000742,0.00000669,0.00000488
 ,0.00000020,0.00000987,0.00002438,-0.00000400,0.00001423,-0.00000137,0
 .00000748,-0.00000504,0.00000732,-0.00000062,-0.00000625,-0.00000748,0
 .00000136,0.00002313,-0.00004130,0.00000657,0.00003701,-0.00004801,0.0
 0001483,0.00000121,0.00000180,-0.00000133,0.00000270,0.00000248,0.0000
 0194,-0.00000605,0.00000120,-0.00000328,0.00000081,0.00000116,-0.00000
 053,0.00000170,-0.00000001,-0.00000097,-0.00000800,0.00002226,-0.00001
 424,0.02458846,-0.02555983,-0.01429746,-0.00078513,0.00064236,0.000493
 90,-0.00429015,-0.00225289,-0.00002900,0.11454254,-0.12749298,-0.05504
 260,0.00376413,0.00209958,-0.00012873,0.00093342,-0.00095676,-0.000710
 81,0.00031736,-0.00060811,-0.00022500,-0.01136512,0.00899437,0.0045707
 3,-0.12733105,0.14529609,-0.00004994,-0.00000179,-0.00001334,-0.000005
 31,-0.00000041,0.00000125,0.00001214,0.00000785,0.00000005,0.00000003,
 0.00000771,-0.00000070,0.00000006,0.00001163,-0.00000296,-0.00000362,-
 0.00001605,-0.00000032,-0.00000486,-0.00000248,-0.00000094,0.00000037,
 0.00000202,-0.00000307,0.00000835,-0.00000982,0.00000168,0.00001830,0.
 00007083,-0.00010382,0.00000004,0.00000021,0.00000076,0.00000060,0.000
 00073,0.00000027,-0.00000372,-0.00000069,0.00000358,-0.00000044,0.0000
 0074,0.00000056,-0.00000205,-0.00000031,0.00000134,-0.00000401,0.00001
 029,-0.00000184,0.00555909,-0.00620796,-0.00427110,-0.00022894,0.00032
 725,0.00012069,-0.00084195,-0.00075559,0.00084277,0.08040567,-0.058010
 02,-0.08544743,0.00097674,0.00114453,-0.00037702,0.00039505,-0.0003238
 0,0.00022118,-0.01624682,0.01287194,0.00958422,0.01738070,-0.01443068,
 -0.00699760,-0.08720080,0.06519124,0.08660254,-0.00027112,-0.00006200,
 -0.00002321,-0.00001956,-0.00001540,0.00000994,0.00012659,-0.00001215,
 -0.00010026,-0.00000487,0.00000949,0.00001095,0.00000774,-0.00002151,-
 0.00001013,-0.00002426,-0.00001085,-0.00000606,-0.00000905,-0.00001450
 ,-0.00000053,0.00000733,0.00000501,0.00000245,-0.00008719,-0.00004795,
 -0.00003068,0.00032880,0.00031236,0.00043081,-0.00000186,-0.00000598,0
 .00000151,-0.00000735,-0.00000849,0.00000058,0.00000633,0.00000051,0.0
 0000198,-0.00000259,-0.00000161,-0.00000035,-0.00000444,0.00000060,0.0
 0000104,0.00000658,-0.00000318,0.00001401,-0.00838678,-0.00417579,0.00
 016611,0.00011880,-0.00146112,0.00099879,-0.34959935,-0.03519406,0.074
 08677,0.00012182,-0.00084257,-0.00037155,0.00019446,0.00167158,0.00171
 836,-0.00355857,0.00530837,0.00315708,-0.00001345,0.00031349,0.0000996
 4,0.00005219,0.00044675,0.00002238,0.00001551,0.00003965,-0.00005288,0
 .36122820,-0.00052968,-0.00008945,0.00010799,-0.00004938,0.00001973,-0
 .00002433,-0.00011175,-0.00001814,-0.00001006,0.00002046,0.00000876,-0
 .00000165,0.00006654,-0.00000038,0.00000661,0.00001060,-0.00003267,0.0
 0001072,-0.00001585,0.00001658,-0.00000369,-0.00002035,-0.00001450,0.0
 0000324,-0.00005414,-0.00005387,0.00001398,-0.00012460,0.00128334,-0.0
 0015352,-0.00000144,-0.00000427,-0.00000010,-0.00001009,-0.00000906,0.
 00000401,0.00000001,0.00000270,-0.00000360,-0.00000228,-0.00000007,-0.
 00000059,-0.00000387,-0.00000148,-0.00000092,0.00000353,0.00002006,-0.
 00001346,0.02498959,0.00683014,-0.00343701,-0.00473558,-0.00327391,-0.
 00160275,-0.03887559,-0.05833819,-0.00005243,0.00007850,0.00213713,0.0
 0066802,0.00217500,-0.00425857,-0.00342986,-0.01727963,0.00841034,0.00
 686076,-0.00008886,-0.00005644,-0.00022566,-0.00009116,-0.00033557,0.0
 0034545,-0.00014924,0.00001017,0.00012338,0.03370656,0.04794439,0.0002
 0757,0.00016689,0.00001180,0.00001315,-0.00000110,0.00001946,0.0000915
 2,0.00006316,-0.00024638,-0.00001306,0.00003131,0.00001095,-0.00001738
 ,0.00001819,-0.00002986,-0.00002062,-0.00001187,-0.00000308,-0.0000207
 4,-0.00002782,-0.00000096,0.00001951,-0.00000009,0.00000910,0.00000799
 ,-0.00005056,-0.00011709,0.00020696,-0.00022611,0.00152279,0.00000249,
 -0.00000060,-0.00000005,0.00000173,-0.00000031,0.00000040,-0.00000658,
 -0.00000050,-0.00000207,0.00000029,0.00000095,0.00000053,-0.00000181,0
 .00000206,0.00000206,0.00002090,-0.00000376,0.00002693,0.00949388,0.00
 435938,-0.00365219,-0.00010828,-0.00285505,0.00481985,0.07294707,-0.00
 141590,-0.04657902,-0.00004159,0.00096153,0.00031042,0.00161842,-0.002
 94399,0.00278416,-0.00427120,0.00087502,0.00329051,-0.00028528,-0.0001
 8749,-0.00038417,0.00010624,0.00002809,-0.00014567,-0.00010794,0.00007
 673,-0.00017159,-0.07938881,0.00004163,0.04128322,-0.00074135,-0.00017
 187,-0.00014070,0.00022651,-0.00018113,0.00004904,0.00032685,0.0002435
 4,0.00004133,-0.00011416,-0.00007743,0.00001872,-0.00042652,-0.0002722
 3,-0.00012027,-0.00013148,0.00005650,-0.00000793,0.00006460,-0.0001290
 6,0.00002763,0.00009970,0.00009705,-0.00001158,-0.00028216,-0.00018401
 ,-0.00004637,0.00278661,0.00141561,-0.00040715,-0.00000605,0.00000660,
 -0.00000093,-0.00000705,0.00000586,0.00003414,0.00000827,-0.00000835,0
 .00000876,0.00001351,-0.00000003,-0.00000124,0.00000854,-0.00000032,0.
 00000030,-0.00045147,-0.00061584,0.00094259,-0.00160129,-0.00510044,0.
 00038652,0.00041932,0.02573945,0.00853108,0.01147224,-0.01273889,-0.00
 725182,0.00118294,-0.00033196,-0.00003002,-0.00567367,0.00072809,0.002
 65618,-0.06086766,0.03680076,0.02230206,-0.00002526,0.00008577,0.00001
 163,0.00004039,-0.00004006,-0.00002309,-0.00016523,-0.00042640,-0.0001
 1181,-0.00022390,0.00109271,-0.00045440,0.05406778,0.00057288,-0.00001
 303,0.00013611,-0.00005218,-0.00000585,-0.00012295,-0.00013133,-0.0000
 9012,-0.00002889,0.00002329,0.00001616,-0.00001354,-0.00009981,0.00015
 190,-0.00000985,0.00006657,0.00000727,0.00002551,-0.00001434,0.0000359
 7,0.00000167,-0.00002511,-0.00003707,0.00000034,-0.00062067,-0.0005937
 5,0.00086722,-0.00057442,-0.00058698,0.00005602,0.00000128,-0.00000135
 ,-0.00000419,-0.00000210,0.00000900,0.00006414,-0.00000360,-0.00000068
 ,-0.00000505,-0.00000142,0.00000185,0.00000210,0.00000220,-0.00000072,
 -0.00000175,-0.00122948,-0.00009765,0.00059566,-0.00239112,-0.00078653
 ,-0.00166720,-0.00082011,-0.00247364,0.00058461,0.00912294,-0.00549474
 ,-0.00521668,0.00054811,-0.00007278,-0.00055518,0.00015791,0.00127275,
 -0.00125886,0.04162351,-0.31735525,-0.11819538,0.00003653,-0.00007555,
 -0.00001937,-0.00005079,0.00005835,0.00005414,-0.00020761,-0.00019919,
 -0.00001074,0.00006277,-0.00019678,0.00110021,-0.04599389,0.32652842,-
 0.00016925,0.00023023,-0.00009894,0.00000530,-0.00007052,-0.00000234,0
 .00002993,0.00004397,0.00002815,-0.00005113,0.00004753,-0.00001102,-0.
 00027393,0.00022979,-0.00015681,-0.00004381,-0.00002554,-0.00001465,0.
 00000895,-0.00000705,0.00000131,-0.00001645,0.00003940,-0.00000961,0.0
 0060003,-0.00040979,0.00028553,-0.00065121,-0.00036824,-0.00059573,0.0
 0000735,0.00000138,0.00000375,0.00001746,0.00000075,0.00002346,-0.0000
 0981,0.00000788,0.00000255,-0.00000958,0.00000051,-0.00000078,-0.00000
 518,0.00000204,0.00000341,0.00065622,0.00090185,-0.00048284,0.00223196
 ,-0.00116750,0.00468862,-0.00174941,-0.00534084,-0.00457965,0.00068688
 ,0.00224866,0.00224021,0.00017785,-0.00021866,0.00105437,0.00197837,-0
 .00175744,0.00339340,0.02381568,-0.11883338,-0.07533434,-0.00016237,0.
 00020139,0.00004845,0.00009288,-0.00020925,-0.00013482,-0.00002609,0.0
 0005709,0.00001083,-0.00073794,0.00077384,-0.00276003,-0.02640269,0.12
 362190,0.07239751\\0.00000868,-0.00000404,0.00000014,-0.00000069,0.000
 00171,0.00000004,0.00000513,-0.00000514,-0.00000301,-0.00000143,-0.000
 00518,0.00000039,0.00000139,0.00000020,-0.00000220,-0.00001231,0.00000
 316,0.00000033,0.00000641,-0.00000203,0.00000016,0.00000452,0.00000347
 ,0.00000067,0.00000532,0.00000310,-0.00000359,-0.00001287,0.00000602,0
 .00000637,0.00000102,0.00000002,-0.00000152,0.00000152,-0.00000038,-0.
 00000125,0.00000526,-0.00000061,0.00000172,-0.00000158,0.00000111,-0.0
 0000058,-0.00000230,-0.00000528,0.00000131,0.00000212,-0.00000205,-0.0
 0000244,0.00002882,-0.00000764,-0.00001332,-0.00000465,0.00002680,0.00
 001388,-0.00001510,0.00002001,0.00001229,-0.00000738,0.00000196,0.0000
 0473,-0.00001827,-0.00002580,-0.00000929,0.00001421,-0.00000796,-0.000
 00229,-0.00000054,0.00000047,0.00000097,-0.00000129,0.00000128,0.00000
 179,0.00000143,0.00000009,0.00000185,0.00000053,-0.00000354,-0.0000021
 4,-0.00000794,0.00000026,-0.00000501\\\@


 IT WAS A GAME, A VERY INTERESTING GAME ONE COULD
 PLAY.  WHENEVER ONE SOLVED ONE OF THE LITTLE PROBLEMS,
 ONE COULD WRITE A PAPER ABOUT IT.  IT WAS VERY EASY IN
 THOSE DAYS FOR ANY SECOND-RATE PHYSICIST TO DO
 FIRST-RATE WORK.  THERE HAS NOT BEEN SUCH A GLORIOUS
 TIME SINCE.  IT IS VERY DIFFICULT NOW FOR A FIRST-RATE
 PHYSICIST TO DO SECOND-RATE WORK.
     P.A.M. DIRAC, ON THE EARLY DAYS OF QUANTUM MECHANICS
                   DIRECTIONS IN PHYSICS, 1978, P. 7
 Job cpu time:       0 days  1 hours 27 minutes 12.6 seconds.
 Elapsed time:       0 days  0 hours  1 minutes 23.0 seconds.
 File lengths (MBytes):  RWF=    242 Int=      0 D2E=      0 Chk=      8 Scr=      1
 Normal termination of Gaussian 16 at Tue Dec 16 12:51:00 2025.
