 Entering Gaussian System, Link 0=/project/xlzhang/shared/bin/g16/g16
 Input=/scratch/s1/xlzhang/lewen/carbene1_opt/carbene1_opt.com
 Output=/scratch/s1/xlzhang/lewen/carbene1_opt/carbene1_opt.log
 Initial command:
 /project/xlzhang/shared/bin/g16/l1.exe "/lustre/scratch/xlzhang/lewen/carbene1_opt/Gau-593630.inp" -scrdir="/lustre/scratch/xlzhang/lewen/carbene1_opt/"
 Entering Link 1 = /project/xlzhang/shared/bin/g16/l1.exe PID=    593631.
  
 Copyright (c) 1988-2017, Gaussian, Inc.  All Rights Reserved.
  
 This is part of the Gaussian(R) 16 program.  It is based on
 the Gaussian(R) 09 system (copyright 2009, Gaussian, Inc.),
 the Gaussian(R) 03 system (copyright 2003, Gaussian, Inc.),
 the Gaussian(R) 98 system (copyright 1998, Gaussian, Inc.),
 the Gaussian(R) 94 system (copyright 1995, Gaussian, Inc.),
 the Gaussian 92(TM) system (copyright 1992, Gaussian, Inc.),
 the Gaussian 90(TM) system (copyright 1990, Gaussian, Inc.),
 the Gaussian 88(TM) system (copyright 1988, Gaussian, Inc.),
 the Gaussian 86(TM) system (copyright 1986, Carnegie Mellon
 University), and the Gaussian 82(TM) system (copyright 1983,
 Carnegie Mellon University). Gaussian is a federally registered
 trademark of Gaussian, Inc.
  
 This software contains proprietary and confidential information,
 including trade secrets, belonging to Gaussian, Inc.
  
 This software is provided under written license and may be
 used, copied, transmitted, or stored only in accord with that
 written license.
  
 The following legend is applicable only to US Government
 contracts under FAR:
  
                    RESTRICTED RIGHTS LEGEND
  
 Use, reproduction and disclosure by the US Government is
 subject to restrictions as set forth in subparagraphs (a)
 and (c) of the Commercial Computer Software - Restricted
 Rights clause in FAR 52.227-19.
  
 Gaussian, Inc.
 340 Quinnipiac St., Bldg. 40, Wallingford CT 06492
  
  
 ---------------------------------------------------------------
 Warning -- This program may not be used in any manner that
 competes with the business of Gaussian, Inc. or will provide
 assistance to any competitor of Gaussian, Inc.  The licensee
 of this program is prohibited from giving any competitor of
 Gaussian, Inc. access to this program.  By using this program,
 the user acknowledges that Gaussian, Inc. is engaged in the
 business of creating and licensing software in the field of
 computational chemistry and represents and warrants to the
 licensee that it is not a competitor of Gaussian, Inc. and that
 it will not use this program in any manner prohibited above.
 ---------------------------------------------------------------
  

 Cite this work as:
 Gaussian 16, Revision B.01,
 M. J. Frisch, G. W. Trucks, H. B. Schlegel, G. E. Scuseria, 
 M. A. Robb, J. R. Cheeseman, G. Scalmani, V. Barone, 
 G. A. Petersson, H. Nakatsuji, X. Li, M. Caricato, A. V. Marenich, 
 J. Bloino, B. G. Janesko, R. Gomperts, B. Mennucci, H. P. Hratchian, 
 J. V. Ortiz, A. F. Izmaylov, J. L. Sonnenberg, D. Williams-Young, 
 F. Ding, F. Lipparini, F. Egidi, J. Goings, B. Peng, A. Petrone, 
 T. Henderson, D. Ranasinghe, V. G. Zakrzewski, J. Gao, N. Rega, 
 G. Zheng, W. Liang, M. Hada, M. Ehara, K. Toyota, R. Fukuda, 
 J. Hasegawa, M. Ishida, T. Nakajima, Y. Honda, O. Kitao, H. Nakai, 
 T. Vreven, K. Throssell, J. A. Montgomery, Jr., J. E. Peralta, 
 F. Ogliaro, M. J. Bearpark, J. J. Heyd, E. N. Brothers, K. N. Kudin, 
 V. N. Staroverov, T. A. Keith, R. Kobayashi, J. Normand, 
 K. Raghavachari, A. P. Rendell, J. C. Burant, S. S. Iyengar, 
 J. Tomasi, M. Cossi, J. M. Millam, M. Klene, C. Adamo, R. Cammi, 
 J. W. Ochterski, R. L. Martin, K. Morokuma, O. Farkas, 
 J. B. Foresman, and D. J. Fox, Gaussian, Inc., Wallingford CT, 2016.
 
 ******************************************
 Gaussian 16:  ES64L-G16RevB.01 20-Dec-2017
                16-Dec-2025 
 ******************************************
 %chk=carbene1_opt.chk
 %nprocshared=64
 Will use up to   64 processors via shared memory.
 %mem=180GB
 -----------------------
 # opt freq mn15 def2svp
 -----------------------
 1/18=20,19=15,26=3,38=1/1,3;
 2/9=110,12=2,17=6,18=5,40=1/2;
 3/5=43,7=101,11=2,25=1,30=1,71=1,74=-73/1,2,3;
 4//1;
 5/5=2,38=5/2;
 6/7=2,8=2,9=2,10=2,28=1/1;
 7//1,2,3,16;
 1/18=20,19=15,26=3/3(2);
 2/9=110/2;
 99//99;
 2/9=110/2;
 3/5=43,7=101,11=2,25=1,30=1,71=1,74=-73/1,2,3;
 4/5=5,16=3,69=1/1;
 5/5=2,38=5/2;
 7//1,2,3,16;
 1/18=20,19=15,26=3/3(-5);
 2/9=110/2;
 6/7=2,8=2,9=2,10=2,19=2,28=1/1;
 99/9=1/99;
 ----------------------------------
 Gaussian job with default settings
 ----------------------------------
 Symbolic Z-matrix:
 Charge =  0 Multiplicity = 1
 N                     1.40658   2.67013   0.83134 
 C                     0.22288   0.57103   0.83134 
 C                     0.24958   1.98143   0.83134 
 C                    -1.00322  -0.11557   0.83134 
 C                     1.44658  -0.11197   0.83134 
 C                    -0.96622   2.65943   0.83134 
 C                    -2.20432   0.58793   0.83134 
 C                    -2.18542   1.97703   0.83134 
 C                     2.64038   0.59493   0.83124 
 C                     2.56588   1.97293   0.83144 
 H                    -1.02922  -1.20307   0.83134 
 H                    -0.97862   3.74783   0.83124 
 H                    -3.14972   0.05403   0.83134 
 H                    -3.11782   2.53403   0.83124 
 H                     3.59548   0.08293   0.83124 
 N                     4.97159   4.65377   1.02226 
 N                     3.80308   2.77037   0.88194 
 C                     5.89187   3.64438   0.98361 
 C                     5.25508   6.06509   1.11322 
 C                     3.73181   4.08073   0.95877 
 C                     5.14686   2.49183   0.89756 
 H                     5.27401   6.34043   2.17044 
 H                     6.22418   6.26601   0.64935 
 H                     4.4737    6.62028   0.58803 
 H                     6.95718   3.82439   1.0206 
 H                     5.50982   1.47576   0.84601 
 C                     1.48821  -1.65141   0.83119 
 C                     1.51319  -2.3484   -0.37713 
 C                     1.50105  -2.34894   2.03902 
 C                     1.55033  -3.74262  -0.37754 
 H                     1.50229  -1.79821  -1.32919 
 C                     1.53919  -3.74355   2.03879 
 H                     1.48154  -1.79975   2.99146 
 C                     1.56369  -4.44046   0.83079 
 H                     1.56939  -4.29208  -1.32992 
 H                     1.54972  -4.29324   2.99126 
 H                     1.59303  -5.53974   0.83022 
 

 GradGradGradGradGradGradGradGradGradGradGradGradGradGradGradGradGradGrad
 Berny optimization.
 Initialization pass.
                           ----------------------------
                           !    Initial Parameters    !
                           ! (Angstroms and Degrees)  !
 --------------------------                            --------------------------
 ! Name  Definition              Value          Derivative Info.                !
 --------------------------------------------------------------------------------
 ! R1    R(1,3)                  1.3465         estimate D2E/DX2                !
 ! R2    R(1,10)                 1.3528         estimate D2E/DX2                !
 ! R3    R(2,3)                  1.4107         estimate D2E/DX2                !
 ! R4    R(2,4)                  1.4053         estimate D2E/DX2                !
 ! R5    R(2,5)                  1.4014         estimate D2E/DX2                !
 ! R6    R(3,6)                  1.3921         estimate D2E/DX2                !
 ! R7    R(4,7)                  1.392          estimate D2E/DX2                !
 ! R8    R(4,11)                 1.0878         estimate D2E/DX2                !
 ! R9    R(5,9)                  1.3874         estimate D2E/DX2                !
 ! R10   R(5,27)                 1.54           estimate D2E/DX2                !
 ! R11   R(6,8)                  1.3972         estimate D2E/DX2                !
 ! R12   R(6,12)                 1.0885         estimate D2E/DX2                !
 ! R13   R(7,8)                  1.3892         estimate D2E/DX2                !
 ! R14   R(7,13)                 1.0857         estimate D2E/DX2                !
 ! R15   R(8,14)                 1.0861         estimate D2E/DX2                !
 ! R16   R(9,10)                 1.38           estimate D2E/DX2                !
 ! R17   R(9,15)                 1.0837         estimate D2E/DX2                !
 ! R18   R(10,17)                1.4728         estimate D2E/DX2                !
 ! R19   R(16,18)                1.3665         estimate D2E/DX2                !
 ! R20   R(16,19)                1.4424         estimate D2E/DX2                !
 ! R21   R(16,20)                1.3673         estimate D2E/DX2                !
 ! R22   R(17,20)                1.3145         estimate D2E/DX2                !
 ! R23   R(17,21)                1.3724         estimate D2E/DX2                !
 ! R24   R(18,21)                1.3751         estimate D2E/DX2                !
 ! R25   R(18,25)                1.081          estimate D2E/DX2                !
 ! R26   R(19,22)                1.0927         estimate D2E/DX2                !
 ! R27   R(19,23)                1.093          estimate D2E/DX2                !
 ! R28   R(19,24)                1.093          estimate D2E/DX2                !
 ! R29   R(21,26)                1.0802         estimate D2E/DX2                !
 ! R30   R(27,28)                1.3952         estimate D2E/DX2                !
 ! R31   R(27,29)                1.3948         estimate D2E/DX2                !
 ! R32   R(28,30)                1.3947         estimate D2E/DX2                !
 ! R33   R(28,31)                1.0997         estimate D2E/DX2                !
 ! R34   R(29,32)                1.3951         estimate D2E/DX2                !
 ! R35   R(29,33)                1.0996         estimate D2E/DX2                !
 ! R36   R(30,34)                1.3954         estimate D2E/DX2                !
 ! R37   R(30,35)                1.0997         estimate D2E/DX2                !
 ! R38   R(32,34)                1.3948         estimate D2E/DX2                !
 ! R39   R(32,36)                1.0998         estimate D2E/DX2                !
 ! R40   R(34,37)                1.0997         estimate D2E/DX2                !
 ! A1    A(3,1,10)             118.2143         estimate D2E/DX2                !
 ! A2    A(3,2,4)              120.3328         estimate D2E/DX2                !
 ! A3    A(3,2,5)              118.0833         estimate D2E/DX2                !
 ! A4    A(4,2,5)              121.584          estimate D2E/DX2                !
 ! A5    A(1,3,2)              121.8476         estimate D2E/DX2                !
 ! A6    A(1,3,6)              120.0904         estimate D2E/DX2                !
 ! A7    A(2,3,6)              118.062          estimate D2E/DX2                !
 ! A8    A(2,4,7)              120.3937         estimate D2E/DX2                !
 ! A9    A(2,4,11)             120.6178         estimate D2E/DX2                !
 ! A10   A(7,4,11)             118.9885         estimate D2E/DX2                !
 ! A11   A(2,5,9)              120.2006         estimate D2E/DX2                !
 ! A12   A(2,5,27)             120.7168         estimate D2E/DX2                !
 ! A13   A(9,5,27)             119.0826         estimate D2E/DX2                !
 ! A14   A(3,6,8)              121.6172         estimate D2E/DX2                !
 ! A15   A(3,6,12)             119.7993         estimate D2E/DX2                !
 ! A16   A(8,6,12)             118.5835         estimate D2E/DX2                !
 ! A17   A(4,7,8)              119.5786         estimate D2E/DX2                !
 ! A18   A(4,7,13)             120.187          estimate D2E/DX2                !
 ! A19   A(8,7,13)             120.2344         estimate D2E/DX2                !
 ! A20   A(6,8,7)              120.0157         estimate D2E/DX2                !
 ! A21   A(6,8,14)             119.9104         estimate D2E/DX2                !
 ! A22   A(7,8,14)             120.0739         estimate D2E/DX2                !
 ! A23   A(5,9,10)             117.537          estimate D2E/DX2                !
 ! A24   A(5,9,15)             121.174          estimate D2E/DX2                !
 ! A25   A(10,9,15)            121.289          estimate D2E/DX2                !
 ! A26   A(1,10,9)             124.1172         estimate D2E/DX2                !
 ! A27   A(1,10,17)            116.157          estimate D2E/DX2                !
 ! A28   A(9,10,17)            119.6905         estimate D2E/DX2                !
 ! A29   A(18,16,19)           126.3123         estimate D2E/DX2                !
 ! A30   A(18,16,20)           107.4439         estimate D2E/DX2                !
 ! A31   A(19,16,20)           126.2439         estimate D2E/DX2                !
 ! A32   A(10,17,20)           119.7481         estimate D2E/DX2                !
 ! A33   A(10,17,21)           135.4791         estimate D2E/DX2                !
 ! A34   A(20,17,21)           104.7575         estimate D2E/DX2                !
 ! A35   A(16,18,21)           104.8342         estimate D2E/DX2                !
 ! A36   A(16,18,25)           122.6633         estimate D2E/DX2                !
 ! A37   A(21,18,25)           132.5024         estimate D2E/DX2                !
 ! A38   A(16,19,22)           108.119          estimate D2E/DX2                !
 ! A39   A(16,19,23)           109.1086         estimate D2E/DX2                !
 ! A40   A(16,19,24)           109.039          estimate D2E/DX2                !
 ! A41   A(22,19,23)           110.4227         estimate D2E/DX2                !
 ! A42   A(22,19,24)           110.4452         estimate D2E/DX2                !
 ! A43   A(23,19,24)           109.6669         estimate D2E/DX2                !
 ! A44   A(16,20,17)           111.7975         estimate D2E/DX2                !
 ! A45   A(17,21,18)           111.1669         estimate D2E/DX2                !
 ! A46   A(17,21,26)           121.29           estimate D2E/DX2                !
 ! A47   A(18,21,26)           127.543          estimate D2E/DX2                !
 ! A48   A(5,27,28)            119.9972         estimate D2E/DX2                !
 ! A49   A(5,27,29)            120.0043         estimate D2E/DX2                !
 ! A50   A(28,27,29)           119.9985         estimate D2E/DX2                !
 ! A51   A(27,28,30)           120.0086         estimate D2E/DX2                !
 ! A52   A(27,28,31)           119.9808         estimate D2E/DX2                !
 ! A53   A(30,28,31)           120.0106         estimate D2E/DX2                !
 ! A54   A(27,29,32)           120.0            estimate D2E/DX2                !
 ! A55   A(27,29,33)           120.008          estimate D2E/DX2                !
 ! A56   A(32,29,33)           119.992          estimate D2E/DX2                !
 ! A57   A(28,30,34)           119.9942         estimate D2E/DX2                !
 ! A58   A(28,30,35)           120.0128         estimate D2E/DX2                !
 ! A59   A(34,30,35)           119.993          estimate D2E/DX2                !
 ! A60   A(29,32,34)           120.0047         estimate D2E/DX2                !
 ! A61   A(29,32,36)           119.984          estimate D2E/DX2                !
 ! A62   A(34,32,36)           120.0113         estimate D2E/DX2                !
 ! A63   A(30,34,32)           119.994          estimate D2E/DX2                !
 ! A64   A(30,34,37)           119.9811         estimate D2E/DX2                !
 ! A65   A(32,34,37)           120.0249         estimate D2E/DX2                !
 ! D1    D(10,1,3,2)            -0.0048         estimate D2E/DX2                !
 ! D2    D(10,1,3,6)           179.9952         estimate D2E/DX2                !
 ! D3    D(3,1,10,9)             0.0152         estimate D2E/DX2                !
 ! D4    D(3,1,10,17)         -177.8102         estimate D2E/DX2                !
 ! D5    D(4,2,3,1)            180.0            estimate D2E/DX2                !
 ! D6    D(4,2,3,6)              0.0            estimate D2E/DX2                !
 ! D7    D(5,2,3,1)              0.0            estimate D2E/DX2                !
 ! D8    D(5,2,3,6)            180.0            estimate D2E/DX2                !
 ! D9    D(3,2,4,7)              0.0            estimate D2E/DX2                !
 ! D10   D(3,2,4,11)           180.0            estimate D2E/DX2                !
 ! D11   D(5,2,4,7)            180.0            estimate D2E/DX2                !
 ! D12   D(5,2,4,11)             0.0            estimate D2E/DX2                !
 ! D13   D(3,2,5,9)             -0.0048         estimate D2E/DX2                !
 ! D14   D(3,2,5,27)          -179.9939         estimate D2E/DX2                !
 ! D15   D(4,2,5,9)            179.9952         estimate D2E/DX2                !
 ! D16   D(4,2,5,27)             0.0061         estimate D2E/DX2                !
 ! D17   D(1,3,6,8)            180.0            estimate D2E/DX2                !
 ! D18   D(1,3,6,12)             0.0061         estimate D2E/DX2                !
 ! D19   D(2,3,6,8)              0.0            estimate D2E/DX2                !
 ! D20   D(2,3,6,12)          -179.9939         estimate D2E/DX2                !
 ! D21   D(2,4,7,8)              0.0            estimate D2E/DX2                !
 ! D22   D(2,4,7,13)           180.0            estimate D2E/DX2                !
 ! D23   D(11,4,7,8)           180.0            estimate D2E/DX2                !
 ! D24   D(11,4,7,13)            0.0            estimate D2E/DX2                !
 ! D25   D(2,5,9,10)             0.0139         estimate D2E/DX2                !
 ! D26   D(2,5,9,15)           179.9999         estimate D2E/DX2                !
 ! D27   D(27,5,9,10)         -179.9968         estimate D2E/DX2                !
 ! D28   D(27,5,9,15)           -0.0108         estimate D2E/DX2                !
 ! D29   D(2,5,27,28)           90.2878         estimate D2E/DX2                !
 ! D30   D(2,5,27,29)          -89.7175         estimate D2E/DX2                !
 ! D31   D(9,5,27,28)          -89.7014         estimate D2E/DX2                !
 ! D32   D(9,5,27,29)           90.2933         estimate D2E/DX2                !
 ! D33   D(3,6,8,7)              0.0            estimate D2E/DX2                !
 ! D34   D(3,6,8,14)          -179.9939         estimate D2E/DX2                !
 ! D35   D(12,6,8,7)           179.994          estimate D2E/DX2                !
 ! D36   D(12,6,8,14)            0.0001         estimate D2E/DX2                !
 ! D37   D(4,7,8,6)              0.0            estimate D2E/DX2                !
 ! D38   D(4,7,8,14)           179.9939         estimate D2E/DX2                !
 ! D39   D(13,7,8,6)           180.0            estimate D2E/DX2                !
 ! D40   D(13,7,8,14)           -0.0061         estimate D2E/DX2                !
 ! D41   D(5,9,10,1)            -0.0197         estimate D2E/DX2                !
 ! D42   D(5,9,10,17)          177.7333         estimate D2E/DX2                !
 ! D43   D(15,9,10,1)          179.9943         estimate D2E/DX2                !
 ! D44   D(15,9,10,17)          -2.2527         estimate D2E/DX2                !
 ! D45   D(1,10,17,20)           1.7758         estimate D2E/DX2                !
 ! D46   D(1,10,17,21)        -179.8919         estimate D2E/DX2                !
 ! D47   D(9,10,17,20)        -176.1518         estimate D2E/DX2                !
 ! D48   D(9,10,17,21)           2.1806         estimate D2E/DX2                !
 ! D49   D(19,16,18,21)        179.9867         estimate D2E/DX2                !
 ! D50   D(19,16,18,25)          0.0745         estimate D2E/DX2                !
 ! D51   D(20,16,18,21)         -0.0177         estimate D2E/DX2                !
 ! D52   D(20,16,18,25)       -179.9299         estimate D2E/DX2                !
 ! D53   D(18,16,19,22)        -91.3222         estimate D2E/DX2                !
 ! D54   D(18,16,19,23)         28.8051         estimate D2E/DX2                !
 ! D55   D(18,16,19,24)        148.5636         estimate D2E/DX2                !
 ! D56   D(20,16,19,22)         88.683          estimate D2E/DX2                !
 ! D57   D(20,16,19,23)       -151.1897         estimate D2E/DX2                !
 ! D58   D(20,16,19,24)        -31.4312         estimate D2E/DX2                !
 ! D59   D(18,16,20,17)         -0.0083         estimate D2E/DX2                !
 ! D60   D(19,16,20,17)        179.9873         estimate D2E/DX2                !
 ! D61   D(10,17,20,16)        178.8213         estimate D2E/DX2                !
 ! D62   D(21,17,20,16)          0.0305         estimate D2E/DX2                !
 ! D63   D(10,17,21,18)       -178.545          estimate D2E/DX2                !
 ! D64   D(10,17,21,26)          1.4584         estimate D2E/DX2                !
 ! D65   D(20,17,21,18)         -0.0423         estimate D2E/DX2                !
 ! D66   D(20,17,21,26)        179.9612         estimate D2E/DX2                !
 ! D67   D(16,18,21,17)          0.0375         estimate D2E/DX2                !
 ! D68   D(16,18,21,26)       -179.9663         estimate D2E/DX2                !
 ! D69   D(25,18,21,17)        179.9372         estimate D2E/DX2                !
 ! D70   D(25,18,21,26)         -0.0665         estimate D2E/DX2                !
 ! D71   D(5,27,28,30)        -179.9729         estimate D2E/DX2                !
 ! D72   D(5,27,28,31)          -0.052          estimate D2E/DX2                !
 ! D73   D(29,27,28,30)          0.0323         estimate D2E/DX2                !
 ! D74   D(29,27,28,31)        179.9532         estimate D2E/DX2                !
 ! D75   D(5,27,29,32)        -179.9798         estimate D2E/DX2                !
 ! D76   D(5,27,29,33)          -0.0056         estimate D2E/DX2                !
 ! D77   D(28,27,29,32)          0.0149         estimate D2E/DX2                !
 ! D78   D(28,27,29,33)        179.9892         estimate D2E/DX2                !
 ! D79   D(27,28,30,34)         -0.0568         estimate D2E/DX2                !
 ! D80   D(27,28,30,35)        179.9619         estimate D2E/DX2                !
 ! D81   D(31,28,30,34)       -179.9777         estimate D2E/DX2                !
 ! D82   D(31,28,30,35)          0.041          estimate D2E/DX2                !
 ! D83   D(27,29,32,34)         -0.0376         estimate D2E/DX2                !
 ! D84   D(27,29,32,36)        179.975          estimate D2E/DX2                !
 ! D85   D(33,29,32,34)        179.9881         estimate D2E/DX2                !
 ! D86   D(33,29,32,36)          0.0007         estimate D2E/DX2                !
 ! D87   D(28,30,34,32)          0.0341         estimate D2E/DX2                !
 ! D88   D(28,30,34,37)       -179.9964         estimate D2E/DX2                !
 ! D89   D(35,30,34,32)       -179.9846         estimate D2E/DX2                !
 ! D90   D(35,30,34,37)         -0.0151         estimate D2E/DX2                !
 ! D91   D(29,32,34,30)          0.0131         estimate D2E/DX2                !
 ! D92   D(29,32,34,37)       -179.9563         estimate D2E/DX2                !
 ! D93   D(36,32,34,30)       -179.9995         estimate D2E/DX2                !
 ! D94   D(36,32,34,37)          0.031          estimate D2E/DX2                !
 --------------------------------------------------------------------------------
 Trust Radius=3.00D-01 FncErr=1.00D-07 GrdErr=1.00D-06 EigMax=2.50D+02 EigMin=1.00D-04
 Number of steps in this run=    209 maximum allowed number of steps=    222.
 GradGradGradGradGradGradGradGradGradGradGradGradGradGradGradGradGradGrad

                          Input orientation:                          
 ---------------------------------------------------------------------
 Center     Atomic      Atomic             Coordinates (Angstroms)
 Number     Number       Type             X           Y           Z
 ---------------------------------------------------------------------
      1          7           0        1.406580    2.670126    0.831335
      2          6           0        0.222880    0.571026    0.831335
      3          6           0        0.249580    1.981426    0.831335
      4          6           0       -1.003220   -0.115574    0.831335
      5          6           0        1.446580   -0.111974    0.831335
      6          6           0       -0.966220    2.659426    0.831335
      7          6           0       -2.204320    0.587926    0.831335
      8          6           0       -2.185420    1.977026    0.831335
      9          6           0        2.640380    0.594926    0.831235
     10          6           0        2.565880    1.972926    0.831435
     11          1           0       -1.029220   -1.203074    0.831335
     12          1           0       -0.978620    3.747826    0.831235
     13          1           0       -3.149720    0.054026    0.831335
     14          1           0       -3.117820    2.534026    0.831235
     15          1           0        3.595480    0.082926    0.831235
     16          7           0        4.971585    4.653765    1.022256
     17          7           0        3.803082    2.770372    0.881944
     18          6           0        5.891871    3.644378    0.983609
     19          6           0        5.255075    6.065090    1.113218
     20          6           0        3.731815    4.080733    0.958774
     21          6           0        5.146858    2.491828    0.897558
     22          1           0        5.274009    6.340433    2.170442
     23          1           0        6.224177    6.266013    0.649349
     24          1           0        4.473704    6.620281    0.588035
     25          1           0        6.957180    3.824385    1.020598
     26          1           0        5.509819    1.475760    0.846008
     27          6           0        1.488210   -1.651411    0.831194
     28          6           0        1.513194   -2.348401   -0.377133
     29          6           0        1.501048   -2.348936    2.039019
     30          6           0        1.550327   -3.742619   -0.377542
     31          1           0        1.502287   -1.798214   -1.329192
     32          6           0        1.539187   -3.743552    2.038789
     33          1           0        1.481540   -1.799753    2.991462
     34          6           0        1.563689   -4.440455    0.830789
     35          1           0        1.569388   -4.292079   -1.329921
     36          1           0        1.549717   -4.293241    2.991262
     37          1           0        1.593027   -5.539744    0.830217
 ---------------------------------------------------------------------
                    Distance matrix (angstroms):
                    1          2          3          4          5
     1  N    0.000000
     2  C    2.409848   0.000000
     3  C    1.346461   1.410653   0.000000
     4  C    3.683376   1.405255   2.442727   0.000000
     5  C    2.782388   1.401403   2.411459   2.449803   0.000000
     6  C    2.372824   2.403201   1.392068   2.775247   3.674542
     7  C    4.168232   2.427259   2.821962   1.391960   3.717382
     8  C    3.658258   2.788682   2.435004   2.403450   4.189910
     9  C    2.414274   2.417618   2.763749   3.712227   1.387395
    10  C    1.352799   2.730380   2.316316   4.135252   2.366356
    11  H    4.575456   2.171448   3.431672   1.087811   2.705566
    12  H    2.617368   3.396419   2.151428   3.863478   4.558470
    13  H    5.253937   3.411996   3.907699   2.153190   4.599297
    14  H    4.526447   3.874745   3.412440   3.389972   5.275895
    15  H    3.388936   3.407737   3.846992   4.602982   2.157720
    16  N    4.084182   6.265414   5.429105   7.647310   5.930800
    17  N    2.399132   4.202086   3.640381   5.606406   3.723383
    18  C    4.592405   6.450282   5.884220   7.855107   5.821854
    19  C    5.139665   7.455681   6.466123   8.800359   7.262246
    20  C    2.722640   4.964565   4.068082   6.328174   4.776749
    21  C    3.745110   5.285775   4.924248   6.680298   4.525066
    22  H    5.497396   7.784161   6.785206   9.103671   7.620759
    23  H    6.014380   8.275359   7.354361   9.643290   7.971027
    24  H    5.007011   7.397444   6.278645   8.684908   7.385521
    25  H    5.672503   7.481374   6.958751   8.884090   6.774766
    26  H    4.273558   5.363812   5.284508   6.704643   4.362457
    27  C    4.322308   2.557398   3.838191   2.926776   1.540000
    28  C    5.163078   3.412969   4.669531   3.574668   2.542919
    29  C    5.163178   3.408576   4.666552   3.566197   2.542728
    30  C    6.527276   4.672369   5.993164   4.597547   3.828019
    31  H    4.964182   3.452254   4.530213   3.711701   2.741238
    32  C    6.527695   4.669710   5.991361   4.591732   3.828169
    33  H    4.965036   3.445426   4.525614   3.698193   2.741526
    34  C    7.112316   5.187746   6.554955   5.029276   4.330065
    35  H    7.291765   5.489436   6.765337   5.360274   4.707376
    36  H    7.292068   5.485150   6.762181   5.351231   4.707326
    37  H    8.211986   6.262492   7.640212   6.013494   5.429745
                    6          7          8          9         10
     6  C    0.000000
     7  C    2.413297   0.000000
     8  C    1.397182   1.389229   0.000000
     9  C    4.155686   4.844705   5.019815   0.000000
    10  C    3.598196   4.967196   4.751302   1.380012   0.000000
    11  H    3.863014   2.142088   3.383760   4.086413   4.797053
    12  H    1.088471   3.389293   2.142918   4.799785   3.964057
    13  H    3.399380   1.085740   2.151233   5.815310   6.029118
    14  H    2.155251   2.149834   1.086103   6.075934   5.711329
    15  H    5.239032   5.821744   6.083290   1.083679   2.152249
    16  N    6.266688   8.249916   7.643567   4.684569   3.607039
    17  N    4.770861   6.391753   6.041036   2.467187   1.472800
    18  C    6.930132   8.655252   8.248992   4.460333   3.725469
    19  C    7.098064   9.258583   8.494274   6.069501   4.904791
    20  C    4.909978   6.888660   6.281360   3.654908   2.412151
    21  C    6.115733   7.594013   7.350626   3.144052   2.633453
    22  H    7.367731   9.529425   8.745033   6.460675   5.310557
    23  H    8.046266  10.164318   9.441920   6.711029   5.643305
    24  H    6.733523   9.002472   8.121757   6.302787   5.029606
    25  H    8.010818   9.718208   9.329292   5.394444   4.769402
    26  H    6.583340   7.765076   7.711562   3.001628   2.985660
    27  C    4.960599   4.318496   5.163440   2.524585   3.781163
    28  C    5.717186   4.889000   5.818029   3.375481   4.608975
    29  C    5.712232   4.879899   5.810550   3.379814   4.612008
    30  C    6.984309   5.857676   6.937689   4.632888   5.929622
    31  H    5.534615   4.909224   5.702587   3.419038   4.474488
    32  C    6.980912   5.850939   6.932219   4.636076   5.932110
    33  H    5.526477   4.894151   5.690061   3.426948   4.480470
    34  C    7.537158   6.283510   7.432353   5.149206   6.491213
    35  H    7.708681   6.536540   7.620452   5.449811   6.701847
    36  H    7.702909   6.525632   7.611359   5.454305   6.705393
    37  H    8.589303   7.208896   8.412995   6.223433   7.575397
                   11         12         13         14         15
    11  H    0.000000
    12  H    4.951159   0.000000
    13  H    2.465121   4.284604   0.000000
    14  H    4.281141   2.459571   2.480205   0.000000
    15  H    4.800171   5.861219   6.745262   7.146768   0.000000
    16  N    8.387412   6.021807   9.335398   8.364703   4.777314
    17  N    6.256355   4.880847   7.464754   6.925122   2.695929
    18  C    8.451182   6.872958   9.729552   9.079131   4.240350
    19  C    9.612390   6.656439  10.336969   9.091386   6.214504
    20  C    7.113530   4.723906   7.974091   7.023252   4.002164
    21  C    7.197265   6.253271   8.647570   8.265051   2.866004
    22  H    9.921108   6.900032  10.595816   9.311551   6.615687
    23  H   10.413076   7.632473  11.246860  10.061497   6.721138
    24  H    9.567980   6.167493  10.064367   8.624839   6.600563
    25  H    9.438948   7.938428  10.788922  10.159060   5.033428
    26  H    7.066498   6.874761   8.775486   8.692313   2.367467
    27  C    2.557041   5.936077   4.941549   6.223616   2.729197
    28  C    3.039085   6.695765   5.382826   6.836998   3.421610
    29  C    3.028821   6.691637   5.372371   6.829056   3.429189
    30  C    3.816377   7.997717   6.161683   7.915112   4.503175
    31  H    3.380917   6.448326   5.453425   6.691871   3.547900
    32  C    3.809027   7.994891   6.153486   7.909102   4.508710
    33  H    3.365425   6.441630   5.436102   6.678497   3.560871
    34  C    4.147748   8.573872   6.512801   8.399994   4.958745
    35  H    4.578837   8.706493   6.769759   8.557817   5.283589
    36  H    4.567858   8.701549   6.756384   8.547701   5.291663
    37  H    5.067828   9.637028   7.333751   9.347611   5.968604
                   16         17         18         19         20
    16  N    0.000000
    17  N    2.220869   0.000000
    18  C    1.366485   2.266553   0.000000
    19  C    1.442386   3.607900   2.506422   0.000000
    20  C    1.367270   1.314546   2.203830   2.506361   0.000000
    21  C    2.172612   1.372429   1.375071   3.581399   2.128548
    22  H    2.062677   4.070526   3.009823   1.092654   2.992113
    23  H    2.075425   4.258557   2.663668   1.093025   3.329124
    24  H    2.074516   3.918917   3.320191   1.092976   2.671544
    25  H    2.151850   3.328438   1.081043   2.815404   3.236127
    26  H    3.228076   2.142490   2.206310   4.604155   3.155931
    27  C    7.205947   4.991330   6.889184   8.591461   6.156909
    28  C    7.934046   5.747234   7.545716   9.327896   6.931139
    29  C    7.881387   5.731099   7.504201   9.259895   6.890856
    30  C    9.174078   7.005730   8.675797  10.589555   8.231006
    31  H    7.693723   5.572680   7.364734   9.048776   6.690860
    32  C    9.128507   6.992476   8.639490  10.529671   8.197164
    33  H    7.596452   5.543073   7.288419   8.923179   6.616319
    34  C    9.713664   7.550730   9.171752  11.138787   8.793623
    35  H    9.855751   7.730456   9.328646  11.261624   8.945290
    36  H    9.779320   7.708535   9.267728  11.160276   8.889095
    37  H   10.740538   8.599130  10.141582  12.172216   9.856192
                   21         22         23         24         25
    21  C    0.000000
    22  H    4.055633   0.000000
    23  H    3.932772   1.795016   0.000000
    24  H    4.194408   1.795220   1.787015   0.000000
    25  H    2.251247   3.238163   2.576173   3.764545   0.000000
    26  H    1.080182   5.047254   4.847216   5.254158   2.764303
    27  C    5.527797   8.944016   9.227571   8.797340   7.741438
    28  C    6.185157   9.804575   9.871938   9.493862   8.348288
    29  C    6.166673   9.474050   9.922524   9.559753   8.301593
    30  C    7.309530  11.046535  11.093786  10.810557   9.404701
    31  H    6.053575   9.628650   9.552101   9.131053   8.178691
    32  C    7.293673  10.754207  11.138720  10.868538   9.362961
    33  H    6.019689   9.017733   9.645449   9.253457   8.093075
    34  C    7.803852  11.479925  11.678250  11.439711   9.870833
    35  H    7.986323  11.790974  11.707172  11.453960  10.021488
    36  H    7.959911  11.296863  11.782741  11.551197   9.950881
    37  H    8.782960  12.509373  12.682908  12.498925  10.793391
                   26         27         28         29         30
    26  H    0.000000
    27  C    5.094386   0.000000
    28  C    5.665094   1.395160   0.000000
    29  C    5.667612   1.394829   2.416183   0.000000
    30  C    6.663792   2.416205   1.394712   2.790080   0.000000
    31  H    5.613441   2.165414   1.099655   3.412938   2.165330
    32  C    6.665573   2.416183   2.789946   1.395138   2.416356
    33  H    5.617739   2.165365   3.413128   1.099604   3.889684
    34  C    7.111524   2.790065   2.416260   2.416236   1.395427
    35  H    7.316395   3.413229   2.165375   3.889760   1.099680
    36  H    7.318873   3.413055   3.889707   2.165516   3.413506
    37  H    8.034849   3.889745   3.413024   3.413344   2.165678
                   31         32         33         34         35
    31  H    0.000000
    32  C    3.889601   0.000000
    33  H    4.320704   2.165471   0.000000
    34  C    3.413316   1.394825   3.412999   0.000000
    35  H    2.494768   3.413209   4.989364   2.165806   0.000000
    36  H    4.989362   1.099761   2.494420   2.165528   4.321228
    37  H    4.320917   2.165606   4.320988   1.099680   2.494678
                   36         37
    36  H    0.000000
    37  H    2.495147   0.000000
 Stoichiometry    C19H15N3
 Framework group  C1[X(C19H15N3)]
 Deg. of freedom   105
 Full point group                 C1      NOp   1
 Largest Abelian subgroup         C1      NOp   1
 Largest concise Abelian subgroup C1      NOp   1
                         Standard orientation:                         
 ---------------------------------------------------------------------
 Center     Atomic      Atomic             Coordinates (Angstroms)
 Number     Number       Type             X           Y           Z
 ---------------------------------------------------------------------
      1          7           0        1.299697    1.324451   -0.059961
      2          6           0       -1.109035    1.272814   -0.007911
      3          6           0        0.117825    1.968759   -0.028309
      4          6           0       -2.324304    1.977639    0.025021
      5          6           0       -1.073150   -0.128064   -0.021480
      6          6           0        0.081663    3.360292   -0.014819
      7          6           0       -2.331041    3.369524    0.037873
      8          6           0       -1.126478    4.061322    0.017923
      9          6           0        0.143124   -0.794753   -0.054186
     10          6           0        1.290561   -0.028263   -0.072009
     11          1           0       -3.273042    1.445682    0.040853
     12          1           0        1.011610    3.925744   -0.030035
     13          1           0       -3.271951    3.910700    0.063330
     14          1           0       -1.122350    5.147373    0.027647
     15          1           0        0.189268   -1.877394   -0.065075
     16          7           0        4.826432   -0.733120    0.035332
     17          7           0        2.607938   -0.686599   -0.056221
     18          6           0        4.426134   -2.038988   -0.006518
     19          6           0        6.186892   -0.258448    0.100988
     20          6           0        3.700508    0.041933    0.003458
     21          6           0        3.053259   -1.984758   -0.062162
     22          1           0        6.456440   -0.144035    1.153674
     23          1           0        6.843331   -0.985509   -0.383961
     24          1           0        6.254960    0.701544   -0.417063
     25          1           0        5.124511   -2.864047    0.007723
     26          1           0        2.363003   -2.814454   -0.106249
     27          6           0       -2.376203   -0.948563   -0.000699
     28          6           0       -2.989381   -1.314303   -1.199331
     29          6           0       -2.943360   -1.326175    1.216384
     30          6           0       -4.169809   -2.056911   -1.180780
     31          1           0       -2.542408   -1.015788   -2.158678
     32          6           0       -4.123616   -2.069853    1.235100
     33          1           0       -2.460117   -1.038152    2.161185
     34          6           0       -4.736957   -2.435136    0.036802
     35          1           0       -4.653518   -2.344691   -2.125505
     36          1           0       -4.570343   -2.367793    2.194861
     37          1           0       -5.667656   -3.020703    0.051178
 ---------------------------------------------------------------------
 Rotational constants (GHZ):           0.4404113           0.1722225           0.1295851
 Standard basis: def2SVP (5D, 7F)
 There are   405 symmetry adapted cartesian basis functions of A   symmetry.
 There are   383 symmetry adapted basis functions of A   symmetry.
   383 basis functions,   655 primitive gaussians,   405 cartesian basis functions
    75 alpha electrons       75 beta electrons
       nuclear repulsion energy      1584.1003735569 Hartrees.
 NAtoms=   37 NActive=   37 NUniq=   37 SFac= 1.00D+00 NAtFMM=   60 NAOKFM=F Big=F
 Integral buffers will be    131072 words long.
 Raffenetti 2 integral format.
 Two-electron integral symmetry is turned on.
 One-electron integrals computed using PRISM.
   1 Symmetry operations used in ECPInt.
 ECPInt:  NShTT=   15753 NPrTT=   57961 LenC2=   13678 LenP2D=   34442.
 LDataN:  DoStor=T MaxTD1= 4 Len=   56
 NBasis=   383 RedAO= T EigKep=  2.28D-04  NBF=   383
 NBsUse=   383 1.00D-06 EigRej= -1.00D+00 NBFU=   383
 ExpMin= 1.22D-01 ExpMax= 1.71D+03 ExpMxC= 2.58D+02 IAcc=3 IRadAn=         5 AccDes= 0.00D+00
 Harris functional with IExCor= 1009 and IRadAn=       5 diagonalized for initial guess.
 HarFok:  IExCor= 1009 AccDes= 0.00D+00 IRadAn=         5 IDoV= 1 UseB2=F ITyADJ=14
 ICtDFT=  3500011 ScaDFX=  1.000000  1.000000  1.000000  1.000000
 FoFCou: FMM=F IPFlag=           0 FMFlag=      100000 FMFlg1=           0
         NFxFlg=           0 DoJE=T BraDBF=F KetDBF=T FulRan=T
         wScrn=  0.000000 ICntrl=       500 IOpCl=  0 I1Cent=   200000004 NGrid=           0
         NMat0=    1 NMatS0=      1 NMatT0=    0 NMatD0=    1 NMtDS0=    0 NMtDT0=    0
 Petite list used in FoFCou.
 Requested convergence on RMS density matrix=1.00D-08 within 128 cycles.
 Requested convergence on MAX density matrix=1.00D-06.
 Requested convergence on             energy=1.00D-06.
 No special actions if energy rises.
 Integral accuracy reduced to 1.0D-05 until final iterations.
 EnCoef did     3 forward-backward iterations
 Initial convergence to 1.0D-05 achieved.  Increase integral accuracy.
 SCF Done:  E(RMN15) =  -895.387470525     A.U. after   15 cycles
            NFock= 15  Conv=0.76D-08     -V/T= 2.0124

 **********************************************************************

            Population analysis using the SCF Density.

 **********************************************************************

 Orbital symmetries:
       Occupied  (A) (A) (A) (A) (A) (A) (A) (A) (A) (A) (A) (A)
                 (A) (A) (A) (A) (A) (A) (A) (A) (A) (A) (A) (A)
                 (A) (A) (A) (A) (A) (A) (A) (A) (A) (A) (A) (A)
                 (A) (A) (A) (A) (A) (A) (A) (A) (A) (A) (A) (A)
                 (A) (A) (A) (A) (A) (A) (A) (A) (A) (A) (A) (A)
                 (A) (A) (A) (A) (A) (A) (A) (A) (A) (A) (A) (A)
                 (A) (A) (A)
       Virtual   (A) (A) (A) (A) (A) (A) (A) (A) (A) (A) (A) (A)
                 (A) (A) (A) (A) (A) (A) (A) (A) (A) (A) (A) (A)
                 (A) (A) (A) (A) (A) (A) (A) (A) (A) (A) (A) (A)
                 (A) (A) (A) (A) (A) (A) (A) (A) (A) (A) (A) (A)
                 (A) (A) (A) (A) (A) (A) (A) (A) (A) (A) (A) (A)
                 (A) (A) (A) (A) (A) (A) (A) (A) (A) (A) (A) (A)
                 (A) (A) (A) (A) (A) (A) (A) (A) (A) (A) (A) (A)
                 (A) (A) (A) (A) (A) (A) (A) (A) (A) (A) (A) (A)
                 (A) (A) (A) (A) (A) (A) (A) (A) (A) (A) (A) (A)
                 (A) (A) (A) (A) (A) (A) (A) (A) (A) (A) (A) (A)
                 (A) (A) (A) (A) (A) (A) (A) (A) (A) (A) (A) (A)
                 (A) (A) (A) (A) (A) (A) (A) (A) (A) (A) (A) (A)
                 (A) (A) (A) (A) (A) (A) (A) (A) (A) (A) (A) (A)
                 (A) (A) (A) (A) (A) (A) (A) (A) (A) (A) (A) (A)
                 (A) (A) (A) (A) (A) (A) (A) (A) (A) (A) (A) (A)
                 (A) (A) (A) (A) (A) (A) (A) (A) (A) (A) (A) (A)
                 (A) (A) (A) (A) (A) (A) (A) (A) (A) (A) (A) (A)
                 (A) (A) (A) (A) (A) (A) (A) (A) (A) (A) (A) (A)
                 (A) (A) (A) (A) (A) (A) (A) (A) (A) (A) (A) (A)
                 (A) (A) (A) (A) (A) (A) (A) (A) (A) (A) (A) (A)
                 (A) (A) (A) (A) (A) (A) (A) (A) (A) (A) (A) (A)
                 (A) (A) (A) (A) (A) (A) (A) (A) (A) (A) (A) (A)
                 (A) (A) (A) (A) (A) (A) (A) (A) (A) (A) (A) (A)
                 (A) (A) (A) (A) (A) (A) (A) (A) (A) (A) (A) (A)
                 (A) (A) (A) (A) (A) (A) (A) (A) (A) (A) (A) (A)
                 (A) (A) (A) (A) (A) (A) (A) (A)
 The electronic state is 1-A.
 Alpha  occ. eigenvalues --  -14.15010 -14.13604 -14.09428 -10.14093 -10.08863
 Alpha  occ. eigenvalues --  -10.08807 -10.08343 -10.07787 -10.07720 -10.07715
 Alpha  occ. eigenvalues --  -10.06936 -10.06675 -10.06672 -10.06610 -10.06599
 Alpha  occ. eigenvalues --  -10.06498 -10.06371 -10.06082 -10.05971 -10.05789
 Alpha  occ. eigenvalues --  -10.05107 -10.02910  -1.06297  -0.99210  -0.94661
 Alpha  occ. eigenvalues --   -0.91020  -0.88837  -0.85875  -0.81252  -0.78878
 Alpha  occ. eigenvalues --   -0.78620  -0.78113  -0.76847  -0.73936  -0.69773
 Alpha  occ. eigenvalues --   -0.68050  -0.65908  -0.64899  -0.63139  -0.62462
 Alpha  occ. eigenvalues --   -0.60692  -0.58101  -0.56565  -0.55679  -0.55254
 Alpha  occ. eigenvalues --   -0.52656  -0.51647  -0.50742  -0.50599  -0.49149
 Alpha  occ. eigenvalues --   -0.48648  -0.47823  -0.47581  -0.47422  -0.46800
 Alpha  occ. eigenvalues --   -0.46401  -0.45697  -0.45086  -0.44751  -0.42327
 Alpha  occ. eigenvalues --   -0.42078  -0.40077  -0.39655  -0.39369  -0.39121
 Alpha  occ. eigenvalues --   -0.38321  -0.34640  -0.33797  -0.30333  -0.30099
 Alpha  occ. eigenvalues --   -0.29631  -0.28528  -0.26292  -0.24733  -0.20359
 Alpha virt. eigenvalues --   -0.04265  -0.00420   0.00760   0.01233   0.04370
 Alpha virt. eigenvalues --    0.06748   0.08947   0.09510   0.10979   0.11414
 Alpha virt. eigenvalues --    0.12030   0.13363   0.14019   0.14790   0.15062
 Alpha virt. eigenvalues --    0.15326   0.17086   0.17619   0.18121   0.18502
 Alpha virt. eigenvalues --    0.18720   0.19167   0.19659   0.19874   0.20515
 Alpha virt. eigenvalues --    0.22542   0.23301   0.24239   0.25688   0.26177
 Alpha virt. eigenvalues --    0.27757   0.29430   0.29797   0.30545   0.31590
 Alpha virt. eigenvalues --    0.31633   0.32041   0.32692   0.33436   0.34142
 Alpha virt. eigenvalues --    0.35968   0.37168   0.37724   0.39096   0.39582
 Alpha virt. eigenvalues --    0.39940   0.40350   0.41176   0.41361   0.41932
 Alpha virt. eigenvalues --    0.42943   0.44114   0.44366   0.44900   0.45512
 Alpha virt. eigenvalues --    0.46422   0.47709   0.47835   0.48537   0.48830
 Alpha virt. eigenvalues --    0.49010   0.49735   0.50463   0.50518   0.51449
 Alpha virt. eigenvalues --    0.52138   0.52494   0.52762   0.53307   0.53735
 Alpha virt. eigenvalues --    0.55979   0.56369   0.57226   0.58377   0.58548
 Alpha virt. eigenvalues --    0.59249   0.59853   0.61482   0.61857   0.62563
 Alpha virt. eigenvalues --    0.62826   0.63534   0.63627   0.65221   0.67000
 Alpha virt. eigenvalues --    0.67162   0.68043   0.68411   0.68952   0.69118
 Alpha virt. eigenvalues --    0.69697   0.69873   0.69968   0.70274   0.71009
 Alpha virt. eigenvalues --    0.71241   0.71378   0.71882   0.71976   0.72464
 Alpha virt. eigenvalues --    0.73530   0.73834   0.74137   0.74888   0.75598
 Alpha virt. eigenvalues --    0.75918   0.76394   0.76721   0.78258   0.78325
 Alpha virt. eigenvalues --    0.78917   0.79309   0.80185   0.81562   0.82541
 Alpha virt. eigenvalues --    0.84017   0.84270   0.85450   0.86961   0.88545
 Alpha virt. eigenvalues --    0.89280   0.90668   0.92886   0.94494   0.94944
 Alpha virt. eigenvalues --    0.95832   0.96681   0.97085   0.99961   1.00969
 Alpha virt. eigenvalues --    1.02020   1.05438   1.07835   1.08923   1.11715
 Alpha virt. eigenvalues --    1.13429   1.15883   1.17536   1.18707   1.19619
 Alpha virt. eigenvalues --    1.20169   1.20299   1.22859   1.23023   1.23494
 Alpha virt. eigenvalues --    1.24758   1.24894   1.25573   1.26297   1.26802
 Alpha virt. eigenvalues --    1.27619   1.28947   1.29050   1.29751   1.30719
 Alpha virt. eigenvalues --    1.31042   1.31691   1.32036   1.33500   1.37327
 Alpha virt. eigenvalues --    1.38586   1.38772   1.40617   1.42092   1.46666
 Alpha virt. eigenvalues --    1.47711   1.48029   1.52921   1.53932   1.54134
 Alpha virt. eigenvalues --    1.56379   1.58970   1.60071   1.61236   1.63246
 Alpha virt. eigenvalues --    1.64596   1.66161   1.66236   1.67895   1.69177
 Alpha virt. eigenvalues --    1.71010   1.71211   1.71632   1.72747   1.73220
 Alpha virt. eigenvalues --    1.73658   1.74187   1.74801   1.74972   1.75111
 Alpha virt. eigenvalues --    1.75819   1.77275   1.78038   1.78254   1.78637
 Alpha virt. eigenvalues --    1.79783   1.79933   1.80288   1.80908   1.82422
 Alpha virt. eigenvalues --    1.82835   1.82940   1.83438   1.85682   1.86949
 Alpha virt. eigenvalues --    1.88175   1.89979   1.90811   1.91404   1.91841
 Alpha virt. eigenvalues --    1.92603   1.94164   1.94433   1.95301   1.95518
 Alpha virt. eigenvalues --    1.96785   1.97902   1.99029   2.00463   2.00734
 Alpha virt. eigenvalues --    2.01707   2.03304   2.04958   2.05708   2.06540
 Alpha virt. eigenvalues --    2.07283   2.08261   2.09485   2.11115   2.11360
 Alpha virt. eigenvalues --    2.12777   2.13692   2.15509   2.16956   2.17284
 Alpha virt. eigenvalues --    2.18377   2.20183   2.21258   2.21775   2.23100
 Alpha virt. eigenvalues --    2.23407   2.23856   2.25511   2.25739   2.26957
 Alpha virt. eigenvalues --    2.27220   2.28336   2.29013   2.29573   2.31186
 Alpha virt. eigenvalues --    2.32127   2.33376   2.33805   2.36464   2.37338
 Alpha virt. eigenvalues --    2.37892   2.39380   2.43622   2.43878   2.46854
 Alpha virt. eigenvalues --    2.47714   2.49840   2.49944   2.53894   2.54914
 Alpha virt. eigenvalues --    2.54979   2.57672   2.58605   2.59923   2.60744
 Alpha virt. eigenvalues --    2.62487   2.66901   2.67212   2.67855   2.68559
 Alpha virt. eigenvalues --    2.70219   2.70724   2.71806   2.72027   2.72557
 Alpha virt. eigenvalues --    2.76364   2.77887   2.78207   2.78672   2.79672
 Alpha virt. eigenvalues --    2.81710   2.81829   2.84173   2.84653   2.87507
 Alpha virt. eigenvalues --    2.88742   2.89787   2.92329   2.92636   2.93973
 Alpha virt. eigenvalues --    2.99747   3.00923   3.02848   3.09228   3.11487
 Alpha virt. eigenvalues --    3.13827   3.20148   3.26086   3.34123   3.40982
 Alpha virt. eigenvalues --    3.48472   3.53439   3.56739
          Condensed to atoms (all electrons):
               1          2          3          4          5          6
     1  N    6.263525  -0.091393   0.562920   0.009109  -0.052127  -0.115213
     2  C   -0.091393   5.647234   0.001404   0.159505   0.310130   0.045940
     3  C    0.562920   0.001404   5.422416   0.090108  -0.108533   0.147362
     4  C    0.009109   0.159505   0.090108   5.279214  -0.109173  -0.157326
     5  C   -0.052127   0.310130  -0.108533  -0.109173   5.381588   0.021001
     6  C   -0.115213   0.045940   0.147362  -0.157326   0.021001   5.315066
     7  C   -0.001432   0.154934  -0.207629   0.225962   0.025248   0.167744
     8  C    0.009437  -0.182443   0.187007   0.134129  -0.000151   0.183262
     9  C   -0.055874   0.040435  -0.070217   0.014641   0.432305   0.000175
    10  C    0.556019  -0.095898  -0.019422   0.003815   0.045139   0.012348
    11  H   -0.000012  -0.054741   0.020643   0.452690  -0.047165  -0.003999
    12  H   -0.005476   0.028460  -0.068419  -0.003388  -0.000286   0.444810
    13  H    0.000011   0.018364  -0.001655  -0.072173  -0.000493   0.015303
    14  H   -0.000085  -0.003139   0.018915   0.017865  -0.000020  -0.075877
    15  H    0.005860   0.016816   0.001038  -0.000322  -0.056457   0.000076
    16  N    0.000532   0.000001  -0.000009  -0.000000   0.000007  -0.000002
    17  N   -0.077820   0.000692   0.002154   0.000041   0.003700   0.000097
    18  C    0.000103   0.000003   0.000012  -0.000000  -0.000060   0.000000
    19  C    0.000020   0.000000  -0.000000  -0.000000  -0.000000  -0.000000
    20  C   -0.013155  -0.000263   0.001926  -0.000001   0.000053   0.000291
    21  C    0.001063  -0.000083   0.000059   0.000000   0.000942   0.000013
    22  H   -0.000003  -0.000000   0.000000   0.000000   0.000000   0.000000
    23  H   -0.000000  -0.000000   0.000000   0.000000   0.000000   0.000000
    24  H   -0.000017  -0.000000  -0.000000   0.000000  -0.000000   0.000000
    25  H    0.000006   0.000000  -0.000000  -0.000000  -0.000000  -0.000000
    26  H   -0.000111  -0.000015  -0.000027  -0.000000   0.000888  -0.000001
    27  C   -0.000388  -0.064768   0.019009  -0.022218   0.291939  -0.000421
    28  C   -0.000002  -0.011589  -0.000632   0.000473  -0.060338   0.000018
    29  C    0.000000  -0.011881  -0.000626   0.000482  -0.061046   0.000019
    30  C    0.000000   0.000688   0.000028  -0.000359   0.011896  -0.000001
    31  H   -0.000017  -0.000962  -0.000255   0.000326  -0.011122   0.000015
    32  C    0.000000   0.000716   0.000028  -0.000376   0.011927  -0.000001
    33  H   -0.000017  -0.000945  -0.000258   0.000352  -0.011069   0.000015
    34  C   -0.000000  -0.000131  -0.000003   0.000067   0.000268   0.000000
    35  H    0.000000   0.000002  -0.000000  -0.000006  -0.000300   0.000000
    36  H    0.000000   0.000002  -0.000000  -0.000006  -0.000299   0.000000
    37  H    0.000000   0.000001   0.000000  -0.000001   0.000006  -0.000000
               7          8          9         10         11         12
     1  N   -0.001432   0.009437  -0.055874   0.556019  -0.000012  -0.005476
     2  C    0.154934  -0.182443   0.040435  -0.095898  -0.054741   0.028460
     3  C   -0.207629   0.187007  -0.070217  -0.019422   0.020643  -0.068419
     4  C    0.225962   0.134129   0.014641   0.003815   0.452690  -0.003388
     5  C    0.025248  -0.000151   0.432305   0.045139  -0.047165  -0.000286
     6  C    0.167744   0.183262   0.000175   0.012348  -0.003999   0.444810
     7  C    5.182133   0.121087  -0.000768   0.000224  -0.084077   0.017254
     8  C    0.121087   5.215052  -0.000147  -0.000504   0.018053  -0.088477
     9  C   -0.000768  -0.000147   5.064330   0.332446   0.000789   0.000192
    10  C    0.000224  -0.000504   0.332446   4.938275  -0.000260  -0.000062
    11  H   -0.084077   0.018053   0.000789  -0.000260   0.713118   0.000019
    12  H    0.017254  -0.088477   0.000192  -0.000062   0.000019   0.711421
    13  H    0.449480  -0.083622   0.000008  -0.000002  -0.014687  -0.000238
    14  H   -0.085298   0.454693   0.000003   0.000005  -0.000284  -0.015245
    15  H    0.000006  -0.000003   0.414481  -0.056975  -0.000006  -0.000005
    16  N   -0.000000   0.000000  -0.000593   0.007443   0.000000  -0.000000
    17  N    0.000000  -0.000002  -0.097934   0.289792  -0.000001  -0.000082
    18  C    0.000000  -0.000000  -0.000022   0.006426  -0.000000   0.000000
    19  C   -0.000000   0.000000   0.000000   0.000089   0.000000   0.000000
    20  C    0.000000  -0.000001   0.012499  -0.060231  -0.000000   0.000161
    21  C    0.000000  -0.000000   0.004682  -0.063933  -0.000000   0.000000
    22  H   -0.000000  -0.000000   0.000000  -0.000010  -0.000000  -0.000000
    23  H    0.000000  -0.000000  -0.000000  -0.000004  -0.000000  -0.000000
    24  H    0.000000  -0.000000   0.000002  -0.000058  -0.000000   0.000000
    25  H   -0.000000   0.000000  -0.000025   0.000194   0.000000   0.000000
    26  H   -0.000000   0.000000   0.006457  -0.009456   0.000000  -0.000000
    27  C   -0.001582   0.000207  -0.084838   0.007243   0.019450   0.000008
    28  C    0.000226  -0.000029  -0.006955   0.000458  -0.000831   0.000000
    29  C    0.000228  -0.000030  -0.006775   0.000469  -0.000767   0.000000
    30  C   -0.000019   0.000001   0.000527   0.000010   0.000501  -0.000000
    31  H    0.000008  -0.000004   0.000126  -0.000160  -0.000047  -0.000000
    32  C   -0.000020   0.000001   0.000501   0.000009   0.000515  -0.000000
    33  H    0.000008  -0.000004   0.000097  -0.000161  -0.000047  -0.000000
    34  C    0.000003  -0.000000   0.000004   0.000003   0.000030   0.000000
    35  H   -0.000000   0.000000  -0.000009  -0.000001  -0.000001  -0.000000
    36  H   -0.000000   0.000000  -0.000009  -0.000001  -0.000001  -0.000000
    37  H    0.000000  -0.000000  -0.000000   0.000000  -0.000004  -0.000000
              13         14         15         16         17         18
     1  N    0.000011  -0.000085   0.005860   0.000532  -0.077820   0.000103
     2  C    0.018364  -0.003139   0.016816   0.000001   0.000692   0.000003
     3  C   -0.001655   0.018915   0.001038  -0.000009   0.002154   0.000012
     4  C   -0.072173   0.017865  -0.000322  -0.000000   0.000041  -0.000000
     5  C   -0.000493  -0.000020  -0.056457   0.000007   0.003700  -0.000060
     6  C    0.015303  -0.075877   0.000076  -0.000002   0.000097   0.000000
     7  C    0.449480  -0.085298   0.000006  -0.000000   0.000000   0.000000
     8  C   -0.083622   0.454693  -0.000003   0.000000  -0.000002  -0.000000
     9  C    0.000008   0.000003   0.414481  -0.000593  -0.097934  -0.000022
    10  C   -0.000002   0.000005  -0.056975   0.007443   0.289792   0.006426
    11  H   -0.014687  -0.000284  -0.000006   0.000000  -0.000001  -0.000000
    12  H   -0.000238  -0.015245  -0.000005  -0.000000  -0.000082   0.000000
    13  H    0.723409  -0.014142  -0.000000  -0.000000   0.000000  -0.000000
    14  H   -0.014142   0.716065   0.000000  -0.000000   0.000000  -0.000000
    15  H   -0.000000   0.000000   0.721162  -0.000060  -0.009436   0.000691
    16  N   -0.000000  -0.000000  -0.000060   6.536856  -0.000402   0.279128
    17  N    0.000000   0.000000  -0.009436  -0.000402   6.470852  -0.083983
    18  C   -0.000000  -0.000000   0.000691   0.279128  -0.083983   4.923234
    19  C   -0.000000  -0.000000  -0.000000   0.370130   0.004839  -0.056622
    20  C   -0.000000  -0.000000   0.000189   0.211647   0.304516  -0.026250
    21  C   -0.000000   0.000000   0.004354  -0.090010   0.354166   0.546176
    22  H    0.000000   0.000000   0.000000  -0.031123  -0.000098   0.001853
    23  H    0.000000   0.000000   0.000000  -0.026291  -0.000419  -0.002782
    24  H   -0.000000  -0.000000   0.000000  -0.023162  -0.000418   0.008163
    25  H   -0.000000   0.000000   0.000001  -0.027666   0.005572   0.399045
    26  H   -0.000000  -0.000000  -0.001337   0.009024  -0.026947  -0.055714
    27  C   -0.000017  -0.000001  -0.008452  -0.000000  -0.000188  -0.000001
    28  C    0.000011  -0.000000   0.000391   0.000000   0.000001  -0.000000
    29  C    0.000011  -0.000000   0.000363   0.000000   0.000000  -0.000000
    30  C   -0.000001   0.000000  -0.000097  -0.000000  -0.000000   0.000000
    31  H    0.000000  -0.000000   0.000284  -0.000000   0.000001  -0.000000
    32  C   -0.000001   0.000000  -0.000098  -0.000000  -0.000000   0.000000
    33  H    0.000000  -0.000000   0.000274  -0.000000   0.000001  -0.000000
    34  C   -0.000000  -0.000000  -0.000059   0.000000   0.000000  -0.000000
    35  H   -0.000000   0.000000   0.000003  -0.000000   0.000000  -0.000000
    36  H   -0.000000   0.000000   0.000003   0.000000   0.000000  -0.000000
    37  H    0.000000  -0.000000  -0.000001   0.000000  -0.000000   0.000000
              19         20         21         22         23         24
     1  N    0.000020  -0.013155   0.001063  -0.000003  -0.000000  -0.000017
     2  C    0.000000  -0.000263  -0.000083  -0.000000  -0.000000  -0.000000
     3  C   -0.000000   0.001926   0.000059   0.000000   0.000000  -0.000000
     4  C   -0.000000  -0.000001   0.000000   0.000000   0.000000   0.000000
     5  C   -0.000000   0.000053   0.000942   0.000000   0.000000  -0.000000
     6  C   -0.000000   0.000291   0.000013   0.000000   0.000000   0.000000
     7  C   -0.000000   0.000000   0.000000  -0.000000   0.000000   0.000000
     8  C    0.000000  -0.000001  -0.000000  -0.000000  -0.000000  -0.000000
     9  C    0.000000   0.012499   0.004682   0.000000  -0.000000   0.000002
    10  C    0.000089  -0.060231  -0.063933  -0.000010  -0.000004  -0.000058
    11  H    0.000000  -0.000000  -0.000000  -0.000000  -0.000000  -0.000000
    12  H    0.000000   0.000161   0.000000  -0.000000  -0.000000   0.000000
    13  H   -0.000000  -0.000000  -0.000000   0.000000   0.000000  -0.000000
    14  H   -0.000000  -0.000000   0.000000   0.000000   0.000000  -0.000000
    15  H   -0.000000   0.000189   0.004354   0.000000   0.000000   0.000000
    16  N    0.370130   0.211647  -0.090010  -0.031123  -0.026291  -0.023162
    17  N    0.004839   0.304516   0.354166  -0.000098  -0.000419  -0.000418
    18  C   -0.056622  -0.026250   0.546176   0.001853  -0.002782   0.008163
    19  C    4.419767  -0.067850   0.008221   0.399788   0.385217   0.382717
    20  C   -0.067850   5.783581  -0.054266   0.001096   0.007458   0.016531
    21  C    0.008221  -0.054266   4.909206  -0.000035   0.001339  -0.000367
    22  H    0.399788   0.001096  -0.000035   0.633524  -0.026187  -0.015396
    23  H    0.385217   0.007458   0.001339  -0.026187   0.659062  -0.016241
    24  H    0.382717   0.016531  -0.000367  -0.015396  -0.016241   0.601326
    25  H   -0.000500   0.001474  -0.046608  -0.000218   0.001026  -0.000487
    26  H   -0.000079   0.002049   0.392273  -0.000006  -0.000051  -0.000016
    27  C    0.000000   0.000010  -0.000005   0.000000  -0.000000   0.000000
    28  C   -0.000000  -0.000000  -0.000002   0.000000  -0.000000  -0.000000
    29  C   -0.000000  -0.000000  -0.000002  -0.000000   0.000000   0.000000
    30  C    0.000000   0.000000   0.000000  -0.000000  -0.000000   0.000000
    31  H   -0.000000  -0.000000  -0.000000  -0.000000   0.000000   0.000000
    32  C    0.000000   0.000000   0.000000   0.000000  -0.000000  -0.000000
    33  H   -0.000000  -0.000000  -0.000000   0.000000   0.000000  -0.000000
    34  C   -0.000000   0.000000   0.000000   0.000000   0.000000   0.000000
    35  H   -0.000000  -0.000000  -0.000000  -0.000000   0.000000  -0.000000
    36  H   -0.000000  -0.000000  -0.000000   0.000000   0.000000  -0.000000
    37  H    0.000000   0.000000   0.000000  -0.000000   0.000000   0.000000
              25         26         27         28         29         30
     1  N    0.000006  -0.000111  -0.000388  -0.000002   0.000000   0.000000
     2  C    0.000000  -0.000015  -0.064768  -0.011589  -0.011881   0.000688
     3  C   -0.000000  -0.000027   0.019009  -0.000632  -0.000626   0.000028
     4  C   -0.000000  -0.000000  -0.022218   0.000473   0.000482  -0.000359
     5  C   -0.000000   0.000888   0.291939  -0.060338  -0.061046   0.011896
     6  C   -0.000000  -0.000001  -0.000421   0.000018   0.000019  -0.000001
     7  C   -0.000000  -0.000000  -0.001582   0.000226   0.000228  -0.000019
     8  C    0.000000   0.000000   0.000207  -0.000029  -0.000030   0.000001
     9  C   -0.000025   0.006457  -0.084838  -0.006955  -0.006775   0.000527
    10  C    0.000194  -0.009456   0.007243   0.000458   0.000469   0.000010
    11  H    0.000000   0.000000   0.019450  -0.000831  -0.000767   0.000501
    12  H    0.000000  -0.000000   0.000008   0.000000   0.000000  -0.000000
    13  H   -0.000000  -0.000000  -0.000017   0.000011   0.000011  -0.000001
    14  H    0.000000  -0.000000  -0.000001  -0.000000  -0.000000   0.000000
    15  H    0.000001  -0.001337  -0.008452   0.000391   0.000363  -0.000097
    16  N   -0.027666   0.009024  -0.000000   0.000000   0.000000  -0.000000
    17  N    0.005572  -0.026947  -0.000188   0.000001   0.000000  -0.000000
    18  C    0.399045  -0.055714  -0.000001  -0.000000  -0.000000   0.000000
    19  C   -0.000500  -0.000079   0.000000  -0.000000  -0.000000   0.000000
    20  C    0.001474   0.002049   0.000010  -0.000000  -0.000000   0.000000
    21  C   -0.046608   0.392273  -0.000005  -0.000002  -0.000002   0.000000
    22  H   -0.000218  -0.000006   0.000000   0.000000  -0.000000  -0.000000
    23  H    0.001026  -0.000051  -0.000000  -0.000000   0.000000  -0.000000
    24  H   -0.000487  -0.000016   0.000000  -0.000000   0.000000   0.000000
    25  H    0.672758  -0.001520  -0.000000   0.000000   0.000000   0.000000
    26  H   -0.001520   0.696802   0.000020  -0.000006  -0.000005   0.000000
    27  C   -0.000000   0.000020   5.485163   0.227008   0.226764   0.142160
    28  C    0.000000  -0.000006   0.227008   5.097343   0.103551   0.243466
    29  C    0.000000  -0.000005   0.226764   0.103551   5.098369  -0.167290
    30  C    0.000000   0.000000   0.142160   0.243466  -0.167290   5.091806
    31  H   -0.000000  -0.000001  -0.077377   0.450381   0.015986  -0.070462
    32  C   -0.000000   0.000000   0.142331  -0.167362   0.243293   0.129985
    33  H   -0.000000  -0.000001  -0.077472   0.015956   0.450485  -0.002457
    34  C    0.000000   0.000000  -0.190792   0.127439   0.127512   0.220824
    35  H   -0.000000   0.000000   0.017664  -0.075014  -0.002373   0.446465
    36  H   -0.000000   0.000000   0.017671  -0.002372  -0.074966   0.015688
    37  H   -0.000000   0.000000  -0.002190   0.015762   0.015750  -0.073393
              31         32         33         34         35         36
     1  N   -0.000017   0.000000  -0.000017  -0.000000   0.000000   0.000000
     2  C   -0.000962   0.000716  -0.000945  -0.000131   0.000002   0.000002
     3  C   -0.000255   0.000028  -0.000258  -0.000003  -0.000000  -0.000000
     4  C    0.000326  -0.000376   0.000352   0.000067  -0.000006  -0.000006
     5  C   -0.011122   0.011927  -0.011069   0.000268  -0.000300  -0.000299
     6  C    0.000015  -0.000001   0.000015   0.000000   0.000000   0.000000
     7  C    0.000008  -0.000020   0.000008   0.000003  -0.000000  -0.000000
     8  C   -0.000004   0.000001  -0.000004  -0.000000   0.000000   0.000000
     9  C    0.000126   0.000501   0.000097   0.000004  -0.000009  -0.000009
    10  C   -0.000160   0.000009  -0.000161   0.000003  -0.000001  -0.000001
    11  H   -0.000047   0.000515  -0.000047   0.000030  -0.000001  -0.000001
    12  H   -0.000000  -0.000000  -0.000000   0.000000  -0.000000  -0.000000
    13  H    0.000000  -0.000001   0.000000  -0.000000  -0.000000  -0.000000
    14  H   -0.000000   0.000000  -0.000000  -0.000000   0.000000   0.000000
    15  H    0.000284  -0.000098   0.000274  -0.000059   0.000003   0.000003
    16  N   -0.000000  -0.000000  -0.000000   0.000000  -0.000000   0.000000
    17  N    0.000001  -0.000000   0.000001   0.000000   0.000000   0.000000
    18  C   -0.000000   0.000000  -0.000000  -0.000000  -0.000000  -0.000000
    19  C   -0.000000   0.000000  -0.000000  -0.000000  -0.000000  -0.000000
    20  C   -0.000000   0.000000  -0.000000   0.000000  -0.000000  -0.000000
    21  C   -0.000000   0.000000  -0.000000   0.000000  -0.000000  -0.000000
    22  H   -0.000000   0.000000   0.000000   0.000000  -0.000000   0.000000
    23  H    0.000000  -0.000000   0.000000   0.000000   0.000000   0.000000
    24  H    0.000000  -0.000000  -0.000000   0.000000  -0.000000  -0.000000
    25  H   -0.000000  -0.000000  -0.000000   0.000000  -0.000000  -0.000000
    26  H   -0.000001   0.000000  -0.000001   0.000000   0.000000   0.000000
    27  C   -0.077377   0.142331  -0.077472  -0.190792   0.017664   0.017671
    28  C    0.450381  -0.167362   0.015956   0.127439  -0.075014  -0.002372
    29  C    0.015986   0.243293   0.450485   0.127512  -0.002373  -0.074966
    30  C   -0.070462   0.129985  -0.002457   0.220824   0.446465   0.015688
    31  H    0.707845  -0.002460  -0.000193   0.015666  -0.013659   0.000024
    32  C   -0.002460   5.091851  -0.070391   0.220731   0.015702   0.446488
    33  H   -0.000193  -0.070391   0.707506   0.015673   0.000024  -0.013655
    34  C    0.015666   0.220731   0.015673   5.148396  -0.076907  -0.076985
    35  H   -0.013659   0.015702   0.000024  -0.076907   0.709823  -0.000235
    36  H    0.000024   0.446488  -0.013655  -0.076985  -0.000235   0.709789
    37  H   -0.000231  -0.073472  -0.000231   0.443933  -0.013755  -0.013755
              37
     1  N    0.000000
     2  C    0.000001
     3  C    0.000000
     4  C   -0.000001
     5  C    0.000006
     6  C   -0.000000
     7  C    0.000000
     8  C   -0.000000
     9  C   -0.000000
    10  C    0.000000
    11  H   -0.000004
    12  H   -0.000000
    13  H    0.000000
    14  H   -0.000000
    15  H   -0.000001
    16  N    0.000000
    17  N   -0.000000
    18  C    0.000000
    19  C    0.000000
    20  C    0.000000
    21  C    0.000000
    22  H   -0.000000
    23  H    0.000000
    24  H    0.000000
    25  H   -0.000000
    26  H    0.000000
    27  C   -0.002190
    28  C    0.015762
    29  C    0.015750
    30  C   -0.073393
    31  H   -0.000231
    32  C   -0.073472
    33  H   -0.000231
    34  C    0.443933
    35  H   -0.013755
    36  H   -0.013755
    37  H    0.709437
 Mulliken charges:
               1
     1  N    0.004536
     2  C    0.092921
     3  C    0.002657
     4  C   -0.023430
     5  C   -0.018399
     6  C   -0.000717
     7  C    0.036280
     8  C    0.032491
     9  C   -0.000534
    10  C    0.106729
    11  H   -0.018878
    12  H   -0.020647
    13  H   -0.019564
    14  H   -0.013453
    15  H   -0.032687
    16  N   -0.215452
    17  N   -0.138696
    18  C    0.060599
    19  C    0.154264
    20  C   -0.121463
    21  C    0.032818
    22  H    0.036813
    23  H    0.017872
    24  H    0.047422
    25  H   -0.003053
    26  H   -0.012221
    27  C   -0.065940
    28  C    0.042650
    29  C    0.042479
    30  C    0.010036
    31  H   -0.013711
    32  C    0.010102
    33  H   -0.013492
    34  C    0.024327
    35  H   -0.007422
    36  H   -0.007381
    37  H   -0.007854
 Sum of Mulliken charges =  -0.00000
 Mulliken charges with hydrogens summed into heavy atoms:
               1
     1  N    0.004536
     2  C    0.092921
     3  C    0.002657
     4  C   -0.042309
     5  C   -0.018399
     6  C   -0.021364
     7  C    0.016716
     8  C    0.019038
     9  C   -0.033222
    10  C    0.106729
    16  N   -0.215452
    17  N   -0.138696
    18  C    0.057546
    19  C    0.256370
    20  C   -0.121463
    21  C    0.020597
    27  C   -0.065940
    28  C    0.028939
    29  C    0.028987
    30  C    0.002614
    32  C    0.002721
    34  C    0.016473
 Electronic spatial extent (au):  <R**2>=           8081.7581
 Charge=              0.0000 electrons
 Dipole moment (field-independent basis, Debye):
    X=             -1.7135    Y=             -2.6871    Z=              0.0608  Tot=              3.1875
 Quadrupole moment (field-independent basis, Debye-Ang):
   XX=           -104.2148   YY=           -117.3389   ZZ=           -126.4567
   XY=             -8.5177   XZ=              0.2723   YZ=              0.0600
 Traceless Quadrupole moment (field-independent basis, Debye-Ang):
   XX=             11.7886   YY=             -1.3354   ZZ=            -10.4532
   XY=             -8.5177   XZ=              0.2723   YZ=              0.0600
 Octapole moment (field-independent basis, Debye-Ang**2):
  XXX=            115.2255  YYY=             34.1979  ZZZ=              1.1504  XYY=             -5.4417
  XXY=            -68.2165  XXZ=              2.1364  XZZ=             -9.4406  YZZ=            -12.5419
  YYZ=              0.0807  XYZ=             -0.4326
 Hexadecapole moment (field-independent basis, Debye-Ang**3):
 XXXX=          -6526.1170 YYYY=          -2792.0215 ZZZZ=           -379.1904 XXXY=            -90.1247
 XXXZ=             10.7591 YYYX=            -97.9817 YYYZ=              2.3576 ZZZX=              5.5421
 ZZZY=             -1.9740 XXYY=          -1639.2864 XXZZ=          -1335.7538 YYZZ=           -600.2038
 XXYZ=             -1.7051 YYXZ=             -5.6788 ZZXY=             48.7745
 N-N= 1.584100373557D+03 E-N=-5.241492037167D+03  KE= 8.844268272634D+02
   1 Symmetry operations used in ECPInt.
 ECPInt:  NShTT=   15753 NPrTT=   57961 LenC2=   13678 LenP2D=   34442.
 LDataN:  DoStor=T MaxTD1= 5 Len=  102
 Calling FoFJK, ICntrl=      2127 FMM=F ISym2X=0 I1Cent= 0 IOpClX= 0 NMat=1 NMatS=1 NMatT=0.
 ***** Axes restored to original set *****
 -------------------------------------------------------------------
 Center     Atomic                   Forces (Hartrees/Bohr)
 Number     Number              X              Y              Z
 -------------------------------------------------------------------
      1        7           0.047080167   -0.018310559   -0.000460211
      2        6          -0.004747743   -0.013036479    0.000120592
      3        6           0.017265132    0.000384875   -0.000768676
      4        6          -0.026295959    0.002103126    0.000095676
      5        6           0.023905547   -0.036378596   -0.000472544
      6        6          -0.039766897    0.010725602   -0.000065246
      7        6           0.013555362   -0.022907171   -0.000005775
      8        6           0.019750463    0.022917965    0.000021490
      9        6          -0.009104791   -0.022734560   -0.001060834
     10        6          -0.014304005    0.059895622    0.003888186
     11        1           0.002707245   -0.002875317   -0.000008038
     12        1           0.004790347    0.002143037    0.000005622
     13        1          -0.003462861   -0.002964885   -0.000010509
     14        1          -0.003030531    0.003127918    0.000011512
     15        1           0.004216526   -0.003540801    0.000249595
     16        7          -0.025721764   -0.033634602   -0.008205830
     17        7           0.000592188    0.000590186    0.000326642
     18        6          -0.009779381   -0.026277068   -0.001274103
     19        6          -0.005115298   -0.007192980    0.001895732
     20        6          -0.047028341    0.098289921    0.003695737
     21        6           0.039828637   -0.034524525   -0.000379056
     22        1           0.001378654    0.007562121    0.002947697
     23        1           0.003461097    0.002217712   -0.000601331
     24        1          -0.002138244    0.001209758    0.000785646
     25        1           0.006487333   -0.004993658   -0.000292244
     26        1           0.005887147   -0.006473166   -0.000513270
     27        6          -0.000435211    0.031045610   -0.000032814
     28        6          -0.000002433    0.000301963   -0.007895189
     29        6           0.000055125   -0.000084280    0.007967179
     30        6           0.000216094   -0.003693367   -0.004582321
     31        1          -0.000110291   -0.001561111    0.004492779
     32        6           0.000083993   -0.003342551    0.004991397
     33        1          -0.000116772   -0.001520761   -0.004480750
     34        6           0.000104414   -0.007058859   -0.000363228
     35        1          -0.000051954    0.002762335    0.004285898
     36        1          -0.000014647    0.002765536   -0.004342195
     37        1          -0.000138347    0.005062006    0.000032782
 -------------------------------------------------------------------
 Cartesian Forces:  Max     0.098289921 RMS     0.017095487

 GradGradGradGradGradGradGradGradGradGradGradGradGradGradGradGradGradGrad
 Berny optimization.
 FormGI is forming the generalized inverse of G from B-inverse, IUseBI=4.
 Internal  Forces:  Max     0.060087119 RMS     0.011255099
 Search for a local minimum.
 Step number   1 out of a maximum of  209
 All quantities printed in internal units (Hartrees-Bohrs-Radians)
 Mixed Optimization -- RFO/linear search
 Second derivative matrix not updated -- first step.
 ITU=  0
     Eigenvalues ---    0.00237   0.00729   0.01131   0.01552   0.01565
     Eigenvalues ---    0.01576   0.01655   0.01794   0.02037   0.02064
     Eigenvalues ---    0.02102   0.02123   0.02150   0.02152   0.02153
     Eigenvalues ---    0.02154   0.02155   0.02155   0.02155   0.02156
     Eigenvalues ---    0.02157   0.02158   0.02182   0.02191   0.02194
     Eigenvalues ---    0.02210   0.02214   0.02238   0.02301   0.02316
     Eigenvalues ---    0.02339   0.02402   0.07839   0.07911   0.16000
     Eigenvalues ---    0.16000   0.16000   0.16000   0.16000   0.16000
     Eigenvalues ---    0.16000   0.16000   0.16000   0.16000   0.16000
     Eigenvalues ---    0.16000   0.16000   0.16000   0.16000   0.22000
     Eigenvalues ---    0.22000   0.22000   0.22577   0.22812   0.23486
     Eigenvalues ---    0.23524   0.24493   0.24754   0.24989   0.24991
     Eigenvalues ---    0.24996   0.25000   0.25000   0.25000   0.25000
     Eigenvalues ---    0.28519   0.33709   0.33718   0.33718   0.33720
     Eigenvalues ---    0.33726   0.34465   0.34471   0.34508   0.34990
     Eigenvalues ---    0.35067   0.35267   0.35310   0.35407   0.35553
     Eigenvalues ---    0.35869   0.35972   0.39006   0.39260   0.41744
     Eigenvalues ---    0.42121   0.42300   0.43780   0.44441   0.44818
     Eigenvalues ---    0.45550   0.46364   0.46412   0.46453   0.46466
     Eigenvalues ---    0.46497   0.46522   0.46969   0.47040   0.48138
     Eigenvalues ---    0.50953   0.51031   0.52967   0.54698   0.60777
 RFO step:  Lambda=-6.24767335D-02 EMin= 2.36824166D-03
 Linear search not attempted -- first point.
 Maximum step size (   0.300) exceeded in Quadratic search.
    -- Step size scaled by   0.729
 Iteration  1 RMS(Cart)=  0.08927935 RMS(Int)=  0.00237745
 Iteration  2 RMS(Cart)=  0.00523731 RMS(Int)=  0.00016671
 Iteration  3 RMS(Cart)=  0.00000836 RMS(Int)=  0.00016667
 Iteration  4 RMS(Cart)=  0.00000000 RMS(Int)=  0.00016667
 Variable       Old X    -DE/DX   Delta X   Delta X   Delta X     New X
                                 (Linear)    (Quad)   (Total)
    R1        2.54444   0.00788   0.00000   0.00886   0.00881   2.55325
    R2        2.55642  -0.04925   0.00000  -0.06102  -0.06104   2.49538
    R3        2.66575   0.02128   0.00000   0.03397   0.03393   2.69967
    R4        2.65555   0.01229   0.00000   0.01810   0.01810   2.67364
    R5        2.64827   0.01579   0.00000   0.02446   0.02448   2.67275
    R6        2.63063   0.02279   0.00000   0.03196   0.03194   2.66257
    R7        2.63042  -0.00922   0.00000  -0.01338  -0.01336   2.61706
    R8        2.05566   0.00281   0.00000   0.00496   0.00496   2.06062
    R9        2.62180  -0.00539   0.00000  -0.00680  -0.00675   2.61505
   R10        2.91018  -0.02468   0.00000  -0.05173  -0.05173   2.85844
   R11        2.64029  -0.01481   0.00000  -0.02115  -0.02114   2.61915
   R12        2.05691   0.00209   0.00000   0.00369   0.00369   2.06060
   R13        2.62526   0.02522   0.00000   0.03297   0.03299   2.65825
   R14        2.05175   0.00447   0.00000   0.00785   0.00785   2.05960
   R15        2.05244   0.00421   0.00000   0.00738   0.00738   2.05982
   R16        2.60785   0.03142   0.00000   0.03974   0.03976   2.64761
   R17        2.04786   0.00539   0.00000   0.00940   0.00940   2.05725
   R18        2.78319  -0.02881   0.00000  -0.05041  -0.05041   2.73277
   R19        2.58228   0.03428   0.00000   0.04016   0.04028   2.62256
   R20        2.72571   0.00356   0.00000   0.00570   0.00570   2.73142
   R21        2.58377  -0.01552   0.00000  -0.01887  -0.01824   2.56553
   R22        2.48413   0.05400   0.00000   0.05940   0.05967   2.54381
   R23        2.59352   0.02082   0.00000   0.02819   0.02774   2.62126
   R24        2.59851  -0.03185   0.00000  -0.04373  -0.04431   2.55420
   R25        2.04288   0.00555   0.00000   0.00961   0.00961   2.05248
   R26        2.06482   0.00478   0.00000   0.00855   0.00855   2.07337
   R27        2.06552   0.00373   0.00000   0.00668   0.00668   2.07220
   R28        2.06542   0.00177   0.00000   0.00316   0.00316   2.06859
   R29        2.04125   0.00809   0.00000   0.01397   0.01397   2.05522
   R30        2.63647   0.00394   0.00000   0.00558   0.00559   2.64206
[...]
 .00004109,-0.00023353,-0.00081558,0.00003349,-0.00026583,0.00022770,0.
 00016792,-0.00023327,0.00040082,-0.00069514,-0.00001138,0.00000517,-0.
 00002431,-0.00001906,0.00000480,-0.00001679,0.00000308,-0.00000812,0.0
 0001284,0.00001390,-0.00000546,-0.00000532,-0.00000118,-0.00001043,-0.
 00000769,-0.00000477,-0.00006140,-0.00001810,-0.00000066,-0.00000049,-
 0.00000389,0.00000107,-0.00000059,0.00000301,-0.00001006,0.00001739,-0
 .00000529,0.00000600,0.00000767,0.00000093,-0.00000274,-0.00000080,0.0
 0000055,0.00000011,0.00000011,-0.00000211,0.00000021,-0.00000181,0.000
 00120,0.00000113,-0.00000157,0.00000251,0.00000707,0.00000224,0.000006
 09,-0.00290892,0.00638149,0.00776155,0.00381614,-0.00137683,0.00420134
 ,-0.13487853,0.07657123,0.12097771,-0.00031447,-0.00043218,-0.00066548
 ,-0.00015874,0.00033429,0.00042917,0.00263171,-0.00030027,0.00308331,0
 .13313712,0.00026077,0.00007002,-0.00000275,-0.00012973,0.00011130,-0.
 00002028,-0.00016967,-0.00018647,-0.00020820,0.00080760,-0.00000577,0.
 00072864,-0.00072835,0.00098261,-0.00024903,0.00008797,-0.00002108,0.0
 0005181,-0.00001807,-0.00002698,-0.00000864,-0.00003445,-0.00008293,-0
 .00005317,-0.00011884,-0.00014087,-0.00007966,-0.00025027,0.00005120,0
 .00008686,0.00015165,-0.00013721,0.00010941,-0.00000666,0.00000779,0.0
 0001390,-0.00003655,0.00001458,0.00002718,-0.00000872,-0.00000159,-0.0
 0001561,0.00002120,0.00000312,0.00000816,0.00004926,0.00001532,-0.0000
 1265,0.00007241,0.00006488,-0.00000563,0.00002871,0.00001848,-0.000000
 66,-0.00001007,-0.00002331,-0.00000940,-0.00001898,-0.00004207,-0.0000
 1345,-0.00004573,0.00002530,0.00002096,0.00000545,0.00000286,0.0000028
 0,0.00000351,0.00000509,-0.00000140,-0.00000322,-0.00000101,0.00000049
 ,0.00000277,0.00000112,0.00000042,-0.00000403,0.00000203,0.00000532,-0
 .00899419,0.00974891,0.01209488,-0.00090252,-0.00112803,0.00309617,0.0
 7665623,-0.11814147,-0.09335464,-0.00050336,-0.00074011,0.00062887,-0.
 00051490,0.00044704,0.00061075,0.01681707,-0.00759550,-0.02123219,-0.0
 8328344,0.12096366,-0.00021314,0.00000484,0.00000192,0.00024641,0.0006
 2533,-0.00006158,-0.00002933,0.00017285,0.00011470,0.00010564,0.000314
 02,0.00022341,-0.00185087,-0.00110149,-0.00094297,0.00011945,-0.000067
 90,-0.00002868,-0.00027624,0.00002577,0.00002762,-0.00008565,-0.000130
 91,-0.00006626,-0.00002578,-0.00012461,0.00013997,0.00014676,0.0000358
 5,0.00004907,-0.00039509,-0.00011354,-0.00070744,-0.00000821,-0.000001
 14,0.00000063,0.00001115,0.00000972,0.00002526,0.00001346,-0.00004337,
 -0.00000462,-0.00005119,-0.00004707,-0.00005623,-0.00007283,-0.0000140
 4,0.00002927,-0.00012977,-0.00011352,-0.00003497,-0.00004208,-0.000035
 78,-0.00000822,0.00000833,0.00002114,0.00001291,0.00001581,0.00008551,
 0.00000852,0.00007681,-0.00004044,-0.00003297,-0.00000612,-0.00000310,
 -0.00000325,-0.00000304,-0.00000609,0.00000012,0.00000353,0.00000095,0
 .00000034,-0.00000386,-0.00000310,-0.00000015,0.00000426,-0.00000690,0
 .00000030,0.01145462,-0.01189741,-0.00922588,0.00399943,0.00348518,0.0
 0007264,0.12076030,-0.09278804,-0.19171184,-0.00060666,0.00070334,-0.0
 0018025,0.00062308,-0.00055121,-0.00051286,-0.00103604,0.00354576,0.00
 522869,-0.13248794,0.09741446,0.19563009,-0.00013466,-0.00001166,-0.00
 011774,0.00000349,-0.00015920,-0.00035523,0.00007942,0.00017135,-0.000
 00651,-0.00034920,0.00009941,0.00010226,-0.00108914,0.00006991,0.00038
 013,-0.00005639,0.00001298,0.00000544,0.00007219,0.00002637,0.00001100
 ,0.00001885,0.00004937,0.00005458,-0.00011666,-0.00009233,-0.00017999,
 0.00007044,-0.00034838,0.00025032,0.00007327,0.00017994,0.00005464,0.0
 0000237,0.00000020,0.00001372,-0.00000452,0.00000046,-0.00003873,-0.00
 000298,0.00001430,-0.00000282,0.00017065,0.00006565,-0.00021593,0.0000
 2749,0.00000554,-0.00000838,0.00004971,0.00004648,0.00001748,0.0000128
 0,0.00001208,0.00000881,-0.00000359,-0.00000585,-0.00000526,-0.0000097
 3,-0.00003044,-0.00000490,-0.00002226,0.00000723,0.00000765,0.00000248
 ,0.00000122,0.00000140,0.00000084,0.00000211,0.00000034,-0.00000105,-0
 .00000014,-0.00000022,0.00000105,0.00000282,-0.00000174,-0.00000882,0.
 00000151,-0.00000332,-0.03179191,-0.00313921,0.03305279,0.02756982,-0.
 04313187,-0.01446461,0.01057237,0.05337832,-0.01340990,-0.13486422,-0.
 02733636,0.09734547,0.00504608,0.00202542,0.00260893,-0.16450486,0.045
 79037,0.12288261,0.00522287,0.00091179,0.00250075,0.33887453,-0.000050
 72,-0.00014607,-0.00004726,-0.00038163,-0.00006190,0.00026911,-0.00005
 703,0.00007306,-0.00001327,-0.00000101,-0.00021054,-0.00006462,-0.0004
 8125,-0.00039444,-0.00036530,0.00004006,0.00001549,0.00000308,0.000007
 73,0.00010895,0.00000588,-0.00000677,-0.00002591,-0.00001600,0.0004920
 1,-0.00036069,-0.00027387,0.00025358,0.00023392,0.00026998,0.00000124,
 -0.00004460,0.00003868,0.00000700,-0.00000722,-0.00000874,0.00003411,-
 0.00001062,0.00001942,0.00001242,0.00000025,0.00000089,0.00006335,0.00
 000685,-0.00008471,-0.00008626,-0.00003607,0.00001332,-0.00010940,-0.0
 0015882,-0.00002228,-0.00004556,-0.00003403,-0.00000260,0.00001362,0.0
 0003482,0.00001684,0.00001821,0.00008528,0.00002685,0.00008526,-0.0000
 3292,-0.00004685,-0.00000946,-0.00000562,-0.00000483,-0.00000548,-0.00
 000880,0.00000099,0.00000456,0.00000116,-0.00000024,-0.00000537,-0.000
 00681,0.00000104,0.00002649,-0.00000397,-0.00000567,-0.00280088,0.0019
 2398,0.00223694,-0.00964574,-0.02865372,0.02261807,0.01978997,-0.01979
 436,-0.02165814,-0.07176022,-0.19326090,0.12727547,0.00162890,-0.00485
 770,0.00026299,0.09003923,-0.17589196,-0.10111145,0.00125922,-0.004895
 28,0.00119308,-0.06559420,0.75086445,0.00017649,0.00007071,0.00012371,
 0.00014684,0.00046735,0.00029112,-0.00014125,-0.00020507,0.00011569,0.
 00075871,-0.00007691,0.00009727,0.00034329,-0.00015344,-0.00133649,0.0
 0009832,-0.00001296,-0.00000562,-0.00015946,-0.00009219,-0.00001868,-0
 .00002954,-0.00008675,-0.00011480,0.00015372,0.00013948,0.00047833,-0.
 00027082,0.00034562,-0.00035685,-0.00011155,-0.00051461,-0.00001869,-0
 .00000973,0.00000397,-0.00000832,0.00000637,-0.00000085,0.00006755,0.0
 0000157,-0.00002956,0.00000293,-0.00034344,-0.00008212,0.00029495,-0.0
 0000489,0.00000282,0.00000579,-0.00001868,-0.00002381,-0.00001553,-0.0
 0000025,-0.00000322,-0.00000649,-0.00000071,-0.00000106,0.00000006,0.0
 0000370,0.00000902,-0.00000106,0.00000274,-0.00000488,0.00000740,0.000
 00062,0.00000043,0.00000008,0.00000007,-0.00000024,0.00000018,0.000000
 10,0.00000030,-0.00000002,-0.00000006,0.00000089,-0.00000026,-0.000001
 65,-0.00000368,0.00000249,0.03370737,0.00218417,-0.05480892,-0.0227016
 9,0.06880122,0.02501621,-0.00606047,-0.06763350,0.03335236,0.10700850,
 0.06476902,-0.23240391,0.00249934,-0.00027531,0.00336770,0.11202256,-0
 .03872799,-0.21746578,0.00249952,0.00164742,0.00327798,-0.25598014,-0.
 04554138,0.50961023,-0.00003464,0.00005190,-0.00000245,0.00008655,0.00
 004502,0.00002112,0.00000022,0.00001070,0.00000680,-0.00000966,-0.0000
 4223,-0.00002236,-0.00003303,-0.00016292,0.00022521,0.00000675,0.00000
 017,-0.00000599,-0.00001430,0.00001079,0.00000511,-0.00000635,-0.00001
 429,0.00000823,-0.00002053,0.00009291,-0.00010507,-0.00001077,-0.00011
 654,0.00001020,-0.00000305,0.00001861,-0.00000604,-0.00000115,0.000001
 94,-0.00000303,-0.00000601,-0.00000009,-0.00000085,-0.00000399,0.00000
 232,-0.00000054,0.00001204,-0.00005810,-0.00001304,0.00001401,0.000015
 87,0.00000327,0.00001977,0.00003693,0.00000317,0.00000618,0.00000074,-
 0.00000489,-0.00000630,-0.00001450,-0.00000368,-0.00000566,-0.00001177
 ,-0.00000569,-0.00001455,0.00000656,0.00000291,0.00000241,0.00000129,0
 .00000111,0.00000254,0.00000290,-0.00000152,-0.00000144,-0.00000032,0.
 00000077,0.00000100,-0.00000121,0.00000145,-0.00000152,-0.00000420,0.0
 0000822,0.00518415,0.00112251,0.00231327,0.00250324,-0.00033225,0.0032
 4696,-0.00031974,-0.00049729,-0.00058523,-0.14005110,0.07808245,0.1222
 3692,-0.00263766,-0.00044556,-0.00233390,0.00405273,-0.00140688,0.0044
 6998,-0.00066453,-0.00008282,-0.00044076,-0.00211819,0.00782798,0.0079
 9345,0.13681794,-0.00005359,-0.00007964,-0.00001524,-0.00008006,-0.000
 36572,0.00003412,0.00009467,0.00002813,0.00006525,-0.00002647,-0.00001
 806,-0.00001756,0.00084804,0.00012314,-0.00086563,-0.00001854,-0.00002
 327,-0.00000831,0.00002467,-0.00000716,-0.00000231,0.00000698,0.000017
 56,0.00000061,-0.00001462,-0.00013896,0.00006306,0.00011529,0.00015408
 ,0.00003888,-0.00001173,0.00000054,0.00000105,0.00000814,-0.00000819,0
 .00000116,0.00000985,-0.00000077,-0.00000040,0.00000625,-0.00000256,0.
 00000054,-0.00000696,0.00000532,-0.00004414,-0.00005632,-0.00000886,0.
 00001671,-0.00006332,-0.00008569,-0.00000829,-0.00002718,-0.00002731,-
 0.00000466,0.00000285,0.00001343,0.00000694,0.00001143,0.00005292,0.00
 002059,0.00005445,-0.00002731,-0.00003040,-0.00000303,-0.00000259,-0.0
 0000280,-0.00000192,-0.00000449,0.00000063,0.00000197,0.00000133,-0.00
 000010,-0.00000416,-0.00000502,-0.00000088,0.00001384,-0.00000919,-0.0
 0000858,0.00072136,-0.00498050,0.00127276,0.01743761,-0.00783833,-0.02
 146464,-0.00050140,-0.00075720,0.00073123,0.07796106,-0.11814562,-0.09
 121898,-0.00078924,0.00106744,-0.00017436,-0.00096174,-0.00094117,0.00
 308236,-0.00006975,0.00001778,-0.00013025,-0.01004387,0.01097027,0.012
 61568,-0.08394678,0.12001284,-0.00004720,-0.00001889,0.00000016,0.0000
 0020,-0.00005106,-0.00003623,0.00001544,0.00003307,0.00000463,-0.00001
 604,-0.00002267,0.00000135,-0.00004285,0.00016506,0.00020202,0.0000038
 9,-0.00000447,-0.00000222,-0.00000969,0.00000216,0.00000593,-0.0000027
 2,-0.00000457,0.00000731,0.00000104,-0.00006205,-0.00008173,0.00007186
 ,0.00003609,0.00001408,-0.00002324,0.00001962,-0.00001983,0.00000081,-
 0.00000215,-0.00000335,0.00000045,0.00000163,-0.00000320,0.00000209,-0
 .00000198,-0.00000157,0.00002907,-0.00003593,-0.00001118,-0.00002637,-
 0.00000813,0.00000576,-0.00003704,-0.00004041,-0.00000407,-0.00001407,
 -0.00001037,-0.00000422,0.00000448,0.00000868,0.00000545,0.00000687,0.
 00002498,0.00000818,0.00002484,-0.00000822,-0.00001447,-0.00000266,-0.
 00000145,-0.00000195,-0.00000103,-0.00000236,0.00000029,0.00000116,0.0
 0000041,-0.00000010,-0.00000106,-0.00000309,0.00000160,0.00000912,-0.0
 0000193,0.00000448,0.00249109,0.00133733,0.00339617,-0.00068003,0.0032
 8197,0.00490106,-0.00060668,0.00067816,-0.00013648,0.12241153,-0.09119
 694,-0.19040536,-0.00230357,-0.00060865,-0.00106700,0.00438536,0.00348
 423,0.00013474,-0.00044555,-0.00013600,-0.00034697,0.01171331,-0.01228
 337,-0.00879417,-0.13491308,0.09635020,0.19348371,-0.00003841,-0.00002
 065,-0.00001593,0.00004284,-0.00004340,-0.00002285,0.00002597,0.000010
 17,-0.00000364,-0.00006266,0.00006126,-0.00003378,0.00019783,0.0002657
 2,-0.00010466,-0.00002413,-0.00000375,0.00000082,0.00002107,-0.0000382
 0,-0.00000433,0.00000885,0.00002752,0.00000738,-0.00000704,0.00007499,
 -0.00000766,0.00004909,0.00004964,0.00007061,0.00001076,0.00001632,-0.
 00001101,-0.00000040,-0.00000170,0.00000074,-0.00000725,0.00000486,-0.
 00000560,0.00000172,-0.00000228,0.00000059,-0.00001049,0.00002717,-0.0
 0002734,-0.00001287,-0.00000992,0.00000074,-0.00002792,-0.00002331,-0.
 00001125,-0.00000801,-0.00000285,-0.00000059,0.00000508,0.00000760,0.0
 0000488,0.00000286,0.00001681,-0.00000077,0.00001439,-0.00000391,-0.00
 000570,-0.00000296,-0.00000105,-0.00000093,-0.00000111,-0.00000167,-0.
 00000022,0.00000114,-0.00000029,0.00000018,-0.00000021,-0.00000095,0.0
 0000143,0.00000411,0.00000253,0.00000130,0.00489213,0.00168422,0.00263
 311,-0.00058857,0.00038787,-0.00043297,0.00607418,0.00409782,-0.002886
 79,0.00301900,0.00296878,0.00479376,-0.00061119,-0.00014192,-0.0004422
 4,-0.10038627,-0.06530327,0.10091068,-0.00268853,-0.00076937,-0.002259
 30,-0.00206513,-0.01024995,0.01212580,-0.00023068,-0.00045565,0.000515
 82,0.09481080,-0.00000788,-0.00009338,0.00001717,-0.00004334,-0.000089
 13,-0.00008208,0.00000439,0.00003776,-0.00001408,-0.00000476,-0.000044
 97,-0.00000258,-0.00075410,0.00009983,0.00099329,-0.00000667,0.0000027
 2,-0.00000036,0.00003189,-0.00000938,-0.00001680,0.00002137,0.00001443
 ,0.00000602,0.00008469,-0.00037121,-0.00002175,0.00000892,0.00014166,-
 0.00008989,-0.00004368,0.00001290,0.00003041,0.00000382,-0.00000576,-0
 .00000067,0.00002023,-0.00000466,0.00000472,0.00000662,-0.00000210,0.0
 0000258,-0.00000757,0.00001908,0.00003391,-0.00003781,-0.00002408,-0.0
 0000253,-0.00003692,-0.00009586,-0.00000430,-0.00001895,-0.00000977,0.
 00000168,0.00000912,0.00002163,0.00000903,0.00000810,0.00003223,0.0000
 1451,0.00003536,-0.00001371,-0.00001620,-0.00000587,-0.00000301,-0.000
 00214,-0.00000326,-0.00000446,0.00000054,0.00000264,-0.00000012,-0.000
 00003,-0.00000140,-0.00000197,0.00000095,0.00000908,-0.00000010,-0.000
 00571,0.00210765,-0.00488580,0.00010829,0.00052043,-0.00066453,-0.0008
 1284,-0.01357186,-0.00986042,0.02275862,0.00253564,-0.00035559,-0.0017
 5882,-0.00015434,-0.00000276,-0.00002411,-0.06495634,-0.13795068,0.114
 82231,-0.00044725,0.00108237,-0.00058474,0.00734731,0.01089439,-0.0117
 6714,0.00035384,0.00036161,-0.00052628,0.06787934,0.14117093,-0.000022
 50,0.00003059,-0.00000851,0.00006028,0.00002898,-0.00005842,0.00001482
 ,-0.00001440,-0.00000802,-0.00006878,0.00007091,-0.00002068,0.00010068
 ,-0.00007947,0.00013408,-0.00002392,-0.00000272,0.00000088,0.00002465,
 -0.00002636,-0.00000404,0.00000423,0.00002059,0.00001017,-0.00003081,0
 .00011081,-0.00005427,-0.00002003,-0.00005906,0.00002312,0.00003852,0.
 00002438,-0.00000084,-0.00000146,0.00000142,0.00000088,-0.00001306,0.0
 0000550,-0.00000657,-0.00000285,0.00000142,0.00000021,-0.00001757,0.00
 000898,-0.00001978,0.00001110,0.00001399,0.00000393,0.00001420,0.00002
 958,0.00000332,0.00000576,-0.00000053,-0.00000337,-0.00000592,-0.00001
 257,-0.00000394,-0.00000422,-0.00000812,-0.00000490,-0.00001081,0.0000
 0433,0.00000313,0.00000242,0.00000110,0.00000114,0.00000202,0.00000233
 ,-0.00000121,-0.00000129,-0.00000025,0.00000059,0.00000041,-0.00000035
 ,0.00000025,-0.00000307,-0.00000193,0.00000379,0.00251228,-0.00000116,
 0.00355734,-0.00046204,-0.00089255,0.00002316,0.00139061,-0.00189177,0
 .00318658,0.00491517,-0.00209157,0.00043638,-0.00041911,-0.00001433,-0
 .00034458,0.10126187,0.11482097,-0.21029113,-0.00236288,-0.00023120,-0
 .00103177,0.00741941,0.01310636,-0.00882164,0.00035870,0.00056916,-0.0
 0051921,-0.11223256,-0.12314325,0.21453733,0.00010181,0.00000229,-0.00
 000638,-0.00007988,0.00013238,0.00001332,-0.00007452,-0.00009133,0.000
 03605,0.00005976,0.00002286,-0.00000767,-0.00053914,-0.00016445,-0.000
 46541,0.00002111,0.00000579,-0.00001180,-0.00000136,0.00003192,-0.0000
 0006,-0.00001660,-0.00001659,-0.00000205,0.00002197,-0.00017216,-0.000
 05538,-0.00006604,0.00012003,0.00004161,0.00003512,-0.00000620,0.00001
 395,-0.00000233,0.00000180,-0.00000065,-0.00000512,0.00000186,0.000004
 87,-0.00000080,0.00000118,0.00000076,-0.00000603,0.00000323,0.00001225
 ,-0.00000272,-0.00000188,-0.00000083,-0.00000436,-0.00001462,-0.000010
 79,-0.00000113,-0.00000106,-0.00000286,0.00000030,-0.00000110,0.000001
 52,-0.00000157,0.00000657,-0.00000003,0.00000427,0.00000227,-0.0000018
 3,-0.00000064,-0.00000024,-0.00000030,0.00000024,-0.00000012,-0.000000
 61,-0.00000009,-0.00000029,0.00000030,0.00000021,-0.00000163,0.0000013
 6,0.00000374,-0.00000044,0.00000312,-0.00091549,-0.00017630,0.00002766
 ,0.00358520,-0.00073298,0.00509256,0.00274253,0.00180823,0.00554586,0.
 00620694,-0.01367663,0.00100595,0.00015101,-0.00057363,0.00004481,0.00
 265084,0.01736681,-0.00113838,-0.00003232,0.00075756,-0.00006591,-0.05
 072743,0.03968596,0.00628528,-0.00251470,-0.00018215,-0.00251556,-0.00
 240800,-0.00088843,-0.00243426,0.04181522,0.00000643,-0.00005204,0.000
 00561,-0.00002095,-0.00002152,-0.00000472,-0.00000822,0.00001586,0.000
 01231,0.00003304,0.00000377,0.00002646,-0.00008513,0.00007138,-0.00006
 916,0.00001467,-0.00000172,-0.00000234,-0.00001621,-0.00000425,0.00000
 652,-0.00000234,-0.00000765,-0.00000301,-0.00000795,-0.00010865,-0.000
 01872,0.00006238,0.00014258,-0.00001071,-0.00002947,-0.00001085,-0.000
 02581,0.00000046,-0.00000313,0.00000027,0.00000586,0.00000125,-0.00000
 014,0.00000490,-0.00000521,-0.00000071,0.00001625,0.00001777,0.0000230
 0,-0.00003182,-0.00002488,-0.00000111,-0.00005284,-0.00006554,-0.00000
 817,-0.00001639,-0.00000616,0.00000104,0.00001137,0.00002203,0.0000091
 6,0.00001007,0.00003094,0.00000911,0.00003174,-0.00001129,-0.00001103,
 -0.00000532,-0.00000246,-0.00000270,-0.00000332,-0.00000472,0.00000143
 ,0.00000246,0.00000026,-0.00000065,-0.00000125,-0.00000157,0.00000057,
 0.00001014,0.00000416,-0.00000344,-0.00022360,0.00076919,-0.00010003,-
 0.00103181,0.00035773,0.00297084,0.00218804,0.00071088,-0.00166898,0.0
 0424081,-0.01010308,-0.00253053,0.00017619,-0.00055063,-0.00010968,-0.
 00061549,-0.00823459,0.00378865,-0.00002937,-0.00046577,0.00016686,0.0
 3967138,-0.34630991,0.01417857,-0.00054767,0.00065123,-0.00039263,-0.0
 0050852,0.00060193,-0.00037982,-0.04324852,0.36259465,0.00003465,0.000
 00920,0.00000261,-0.00002945,0.00012071,0.00003624,-0.00004142,-0.0000
 3467,0.00001545,0.00006782,0.00002414,0.00002182,-0.00047131,-0.000099
 27,-0.00024866,0.00002116,-0.00000366,-0.00000726,-0.00002554,0.000018
 56,0.00000954,-0.00001871,-0.00001774,-0.00000731,0.00002092,-0.000130
 34,0.00001222,-0.00004241,0.00005748,0.00001448,-0.00000259,-0.0000193
 8,-0.00002567,-0.00000171,0.00000130,-0.00000077,-0.00000332,0.0000014
 0,0.00000422,0.,-0.00000283,-0.00000021,-0.00003349,-0.00001105,-0.000
 00972,-0.00000795,0.00000431,0.00000505,-0.00000704,-0.00001529,-0.000
 00908,-0.00000520,-0.00000534,-0.00000264,-0.00000131,-0.00000210,0.00
 000105,0.00000086,0.00000951,0.00000160,0.00000887,-0.00000499,-0.0000
 0617,-0.00000013,-0.00000005,-0.00000003,0.00000031,0.00000009,-0.0000
 0060,0.00000017,0.00000018,0.00000036,-0.00000027,-0.00000064,0.000000
 93,-0.00000322,-0.00000545,0.00000168,0.00027809,0.00000165,-0.0012075
 0,0.00508301,0.00245086,-0.00048551,0.00534014,-0.00126903,-0.00019292
 ,-0.00295345,0.02224918,0.00382711,-0.00011376,0.00100106,0.00003898,0
 .00287100,-0.02094792,0.00550221,0.00010778,-0.00091392,0.00011345,0.0
 0636438,0.01419160,-0.05193479,-0.00246874,-0.00087343,-0.00072361,-0.
 00255770,0.00007225,-0.00072342,-0.01141046,-0.01585636,0.04597688\\0.
 00000834,0.00000640,-0.00000988,-0.00001625,0.00000730,-0.00000221,-0.
 00001514,-0.00001858,-0.00000074,0.00000052,0.00000147,0.00000039,0.00
 002643,0.00001089,0.00000126,0.00000777,0.00000709,-0.00001036,0.00000
 431,0.00000589,-0.00000640,-0.00000314,0.00000002,-0.00000793,-0.00000
 891,-0.00001402,0.00000362,-0.00000403,0.00001269,0.00000020,-0.000001
 47,0.00000379,-0.00000014,0.00000450,0.00000104,-0.00001134,-0.0000016
 8,0.00000660,-0.00000350,-0.00000020,0.00000016,-0.00001129,-0.0000012
 1,-0.00000262,0.00000034,0.00002201,0.00000062,0.00000442,0.00000321,0
 .00000705,0.00001655,-0.00001768,0.00001685,-0.00002392,0.00000486,-0.
 00000292,-0.00000975,-0.00001438,-0.00002866,-0.00003006,0.00002349,-0
 .00000621,0.00001158,0.00000218,0.00000013,-0.00000299,0.00000395,-0.0
 0000524,-0.00000704,0.00000190,-0.00000336,-0.00000758,0.00000649,-0.0
 0000841,0.00000857,-0.00000347,-0.00000245,0.00000048,0.00000085,-0.00
 000820,0.00001012,-0.00000402,0.00000028,0.00000314,-0.00000664,0.0000
 0655,0.00000164,-0.00000084,-0.00000098,0.00001310,0.00000152,-0.00000
 347,0.00000665,-0.00000485,0.00000075,0.00000847,-0.00000384,0.0000066
 0,0.00000465,-0.00000323,0.00000484,0.00001433,-0.00000077,-0.00000580
 ,0.00001245,-0.00000541,0.00000500,0.00001086,-0.00000517,-0.00000107,
 0.00001232\\\@


 ORIGINALITY CONSISTS NOT IN SAYING WHAT NO ONE HAS EVER SAID BEFORE, 
 BUT IN SAYING WHAT YOU THINK YOUR SELF.

                                    -- JAMES F. STEPHEN
 Job cpu time:       0 days  3 hours 25 minutes 53.6 seconds.
 Elapsed time:       0 days  0 hours  3 minutes 15.2 seconds.
 File lengths (MBytes):  RWF=    614 Int=      0 D2E=      0 Chk=     14 Scr=      1
 Normal termination of Gaussian 16 at Tue Dec 16 12:55:42 2025.
