 Entering Gaussian System, Link 0=/project/xlzhang/shared/bin/g16/g16
 Input=/scratch/s1/xlzhang/lewen/carbene3_opt/carbene3_opt.com
 Output=/scratch/s1/xlzhang/lewen/carbene3_opt/carbene3_opt.log
 Initial command:
 /project/xlzhang/shared/bin/g16/l1.exe "/lustre/scratch/xlzhang/lewen/carbene3_opt/Gau-2712831.inp" -scrdir="/lustre/scratch/xlzhang/lewen/carbene3_opt/"
 Entering Link 1 = /project/xlzhang/shared/bin/g16/l1.exe PID=   2712832.
  
 Copyright (c) 1988-2017, Gaussian, Inc.  All Rights Reserved.
  
 This is part of the Gaussian(R) 16 program.  It is based on
 the Gaussian(R) 09 system (copyright 2009, Gaussian, Inc.),
 the Gaussian(R) 03 system (copyright 2003, Gaussian, Inc.),
 the Gaussian(R) 98 system (copyright 1998, Gaussian, Inc.),
 the Gaussian(R) 94 system (copyright 1995, Gaussian, Inc.),
 the Gaussian 92(TM) system (copyright 1992, Gaussian, Inc.),
 the Gaussian 90(TM) system (copyright 1990, Gaussian, Inc.),
 the Gaussian 88(TM) system (copyright 1988, Gaussian, Inc.),
 the Gaussian 86(TM) system (copyright 1986, Carnegie Mellon
 University), and the Gaussian 82(TM) system (copyright 1983,
 Carnegie Mellon University). Gaussian is a federally registered
 trademark of Gaussian, Inc.
  
 This software contains proprietary and confidential information,
 including trade secrets, belonging to Gaussian, Inc.
  
 This software is provided under written license and may be
 used, copied, transmitted, or stored only in accord with that
 written license.
  
 The following legend is applicable only to US Government
 contracts under FAR:
  
                    RESTRICTED RIGHTS LEGEND
  
 Use, reproduction and disclosure by the US Government is
 subject to restrictions as set forth in subparagraphs (a)
 and (c) of the Commercial Computer Software - Restricted
 Rights clause in FAR 52.227-19.
  
 Gaussian, Inc.
 340 Quinnipiac St., Bldg. 40, Wallingford CT 06492
  
  
 ---------------------------------------------------------------
 Warning -- This program may not be used in any manner that
 competes with the business of Gaussian, Inc. or will provide
 assistance to any competitor of Gaussian, Inc.  The licensee
 of this program is prohibited from giving any competitor of
 Gaussian, Inc. access to this program.  By using this program,
 the user acknowledges that Gaussian, Inc. is engaged in the
 business of creating and licensing software in the field of
 computational chemistry and represents and warrants to the
 licensee that it is not a competitor of Gaussian, Inc. and that
 it will not use this program in any manner prohibited above.
 ---------------------------------------------------------------
  

 Cite this work as:
 Gaussian 16, Revision B.01,
 M. J. Frisch, G. W. Trucks, H. B. Schlegel, G. E. Scuseria, 
 M. A. Robb, J. R. Cheeseman, G. Scalmani, V. Barone, 
 G. A. Petersson, H. Nakatsuji, X. Li, M. Caricato, A. V. Marenich, 
 J. Bloino, B. G. Janesko, R. Gomperts, B. Mennucci, H. P. Hratchian, 
 J. V. Ortiz, A. F. Izmaylov, J. L. Sonnenberg, D. Williams-Young, 
 F. Ding, F. Lipparini, F. Egidi, J. Goings, B. Peng, A. Petrone, 
 T. Henderson, D. Ranasinghe, V. G. Zakrzewski, J. Gao, N. Rega, 
 G. Zheng, W. Liang, M. Hada, M. Ehara, K. Toyota, R. Fukuda, 
 J. Hasegawa, M. Ishida, T. Nakajima, Y. Honda, O. Kitao, H. Nakai, 
 T. Vreven, K. Throssell, J. A. Montgomery, Jr., J. E. Peralta, 
 F. Ogliaro, M. J. Bearpark, J. J. Heyd, E. N. Brothers, K. N. Kudin, 
 V. N. Staroverov, T. A. Keith, R. Kobayashi, J. Normand, 
 K. Raghavachari, A. P. Rendell, J. C. Burant, S. S. Iyengar, 
 J. Tomasi, M. Cossi, J. M. Millam, M. Klene, C. Adamo, R. Cammi, 
 J. W. Ochterski, R. L. Martin, K. Morokuma, O. Farkas, 
 J. B. Foresman, and D. J. Fox, Gaussian, Inc., Wallingford CT, 2016.
 
 ******************************************
 Gaussian 16:  ES64L-G16RevB.01 20-Dec-2017
                16-Dec-2025 
 ******************************************
 %chk=carbene3_opt.chk
 %nprocshared=64
 Will use up to   64 processors via shared memory.
 %mem=180GB
 -----------------------
 # opt freq mn15 def2svp
 -----------------------
 1/18=20,19=15,26=3,38=1/1,3;
 2/9=110,12=2,17=6,18=5,40=1/2;
 3/5=43,7=101,11=2,25=1,30=1,71=1,74=-73/1,2,3;
 4//1;
 5/5=2,38=5/2;
 6/7=2,8=2,9=2,10=2,28=1/1;
 7//1,2,3,16;
 1/18=20,19=15,26=3/3(2);
 2/9=110/2;
 99//99;
 2/9=110/2;
 3/5=43,7=101,11=2,25=1,30=1,71=1,74=-73/1,2,3;
 4/5=5,16=3,69=1/1;
 5/5=2,38=5/2;
 7//1,2,3,16;
 1/18=20,19=15,26=3/3(-5);
 2/9=110/2;
 6/7=2,8=2,9=2,10=2,19=2,28=1/1;
 99/9=1/99;
 ----------------------------------
 Gaussian job with default settings
 ----------------------------------
 Symbolic Z-matrix:
 Charge =  0 Multiplicity = 1
 N                     2.41203   0.93527   0.01714 
 C                     1.22833  -1.16383   0.01714 
 C                     1.25503   0.24657   0.01714 
 C                     0.00223  -1.85043   0.01714 
 C                     2.45203  -1.84683   0.01714 
 C                     0.03923   0.92457   0.01714 
 C                    -1.19887  -1.14693   0.01714 
 C                    -1.17997   0.24217   0.01714 
 C                     3.64583  -1.13993   0.01704 
 C                     3.57133   0.23807   0.01724 
 H                    -0.02377  -2.93793   0.01714 
 H                     0.02683   2.01297   0.01704 
 H                    -2.14427  -1.68083   0.01714 
 H                    -2.11237   0.79917   0.01704 
 H                     4.60093  -1.65193   0.01704 
 N                     5.97703   2.91891   0.20806 
 N                     4.80853   1.03552   0.06775 
 C                     6.89732   1.90952   0.16942 
 C                     6.26052   4.33024   0.29902 
 C                     4.73726   2.34588   0.14458 
 C                     6.15231   0.75697   0.08336 
 H                     6.27946   4.60558   1.35625 
 H                     7.22963   4.53116  -0.16484 
 H                     5.47915   4.88543  -0.22616 
 C                     6.82619  -0.45529   0.04899 
 C                     8.37238   1.86563   0.13404 
 C                     8.21815  -0.54513   0.07727 
 H                     6.21691  -1.37004   0.01538 
 C                     8.99128   0.61504   0.11965 
 H                     8.98193   2.7803    0.1672 
 H                     8.70562  -1.53089   0.06593 
 H                     10.08849   0.54462   0.14123 
 C                     2.49366  -3.38627   0.017 
 C                     2.51984  -4.08322  -1.19132 
 C                     2.5053   -4.08382   1.22482 
 C                     2.55698  -5.47744  -1.19173 
 H                     2.50988  -3.53301  -2.14337 
 C                     2.54344  -5.47844   1.22459 
 H                     2.48484  -3.53467   2.17726 
 C                     2.56914  -6.17531   0.0166 
 H                     2.57698  -6.02688  -2.1441 
 H                     2.55302  -6.02815   2.17706 
 H                     2.59848  -7.2746    0.01602 
 

 GradGradGradGradGradGradGradGradGradGradGradGradGradGradGradGradGradGrad
 Berny optimization.
 Initialization pass.
                           ----------------------------
                           !    Initial Parameters    !
                           ! (Angstroms and Degrees)  !
 --------------------------                            --------------------------
 ! Name  Definition              Value          Derivative Info.                !
 --------------------------------------------------------------------------------
 ! R1    R(1,3)                  1.3465         estimate D2E/DX2                !
 ! R2    R(1,10)                 1.3528         estimate D2E/DX2                !
 ! R3    R(2,3)                  1.4107         estimate D2E/DX2                !
 ! R4    R(2,4)                  1.4053         estimate D2E/DX2                !
 ! R5    R(2,5)                  1.4014         estimate D2E/DX2                !
 ! R6    R(3,6)                  1.3921         estimate D2E/DX2                !
 ! R7    R(4,7)                  1.392          estimate D2E/DX2                !
 ! R8    R(4,11)                 1.0878         estimate D2E/DX2                !
 ! R9    R(5,9)                  1.3874         estimate D2E/DX2                !
 ! R10   R(5,33)                 1.54           estimate D2E/DX2                !
 ! R11   R(6,8)                  1.3972         estimate D2E/DX2                !
 ! R12   R(6,12)                 1.0885         estimate D2E/DX2                !
 ! R13   R(7,8)                  1.3892         estimate D2E/DX2                !
 ! R14   R(7,13)                 1.0857         estimate D2E/DX2                !
 ! R15   R(8,14)                 1.0861         estimate D2E/DX2                !
 ! R16   R(9,10)                 1.38           estimate D2E/DX2                !
 ! R17   R(9,15)                 1.0837         estimate D2E/DX2                !
 ! R18   R(10,17)                1.4728         estimate D2E/DX2                !
 ! R19   R(16,18)                1.3665         estimate D2E/DX2                !
 ! R20   R(16,19)                1.4424         estimate D2E/DX2                !
 ! R21   R(16,20)                1.3673         estimate D2E/DX2                !
 ! R22   R(17,20)                1.3145         estimate D2E/DX2                !
 ! R23   R(17,21)                1.3724         estimate D2E/DX2                !
 ! R24   R(18,21)                1.3751         estimate D2E/DX2                !
 ! R25   R(18,26)                1.4761         estimate D2E/DX2                !
 ! R26   R(19,22)                1.0927         estimate D2E/DX2                !
 ! R27   R(19,23)                1.093          estimate D2E/DX2                !
 ! R28   R(19,24)                1.093          estimate D2E/DX2                !
 ! R29   R(21,25)                1.3874         estimate D2E/DX2                !
 ! R30   R(25,27)                1.3951         estimate D2E/DX2                !
 ! R31   R(25,28)                1.0996         estimate D2E/DX2                !
 ! R32   R(26,29)                1.3954         estimate D2E/DX2                !
 ! R33   R(26,30)                1.0997         estimate D2E/DX2                !
 ! R34   R(27,29)                1.3948         estimate D2E/DX2                !
 ! R35   R(27,31)                1.0998         estimate D2E/DX2                !
 ! R36   R(29,32)                1.0997         estimate D2E/DX2                !
 ! R37   R(33,34)                1.3952         estimate D2E/DX2                !
 ! R38   R(33,35)                1.3948         estimate D2E/DX2                !
 ! R39   R(34,36)                1.3947         estimate D2E/DX2                !
 ! R40   R(34,37)                1.0997         estimate D2E/DX2                !
 ! R41   R(35,38)                1.3951         estimate D2E/DX2                !
 ! R42   R(35,39)                1.0996         estimate D2E/DX2                !
 ! R43   R(36,40)                1.3954         estimate D2E/DX2                !
 ! R44   R(36,41)                1.0997         estimate D2E/DX2                !
 ! R45   R(38,40)                1.3948         estimate D2E/DX2                !
 ! R46   R(38,42)                1.0998         estimate D2E/DX2                !
 ! R47   R(40,43)                1.0997         estimate D2E/DX2                !
 ! A1    A(3,1,10)             118.2143         estimate D2E/DX2                !
 ! A2    A(3,2,4)              120.3328         estimate D2E/DX2                !
 ! A3    A(3,2,5)              118.0833         estimate D2E/DX2                !
 ! A4    A(4,2,5)              121.584          estimate D2E/DX2                !
 ! A5    A(1,3,2)              121.8476         estimate D2E/DX2                !
 ! A6    A(1,3,6)              120.0904         estimate D2E/DX2                !
 ! A7    A(2,3,6)              118.062          estimate D2E/DX2                !
 ! A8    A(2,4,7)              120.3937         estimate D2E/DX2                !
 ! A9    A(2,4,11)             120.6178         estimate D2E/DX2                !
 ! A10   A(7,4,11)             118.9885         estimate D2E/DX2                !
 ! A11   A(2,5,9)              120.2006         estimate D2E/DX2                !
 ! A12   A(2,5,33)             120.7168         estimate D2E/DX2                !
 ! A13   A(9,5,33)             119.0826         estimate D2E/DX2                !
 ! A14   A(3,6,8)              121.6172         estimate D2E/DX2                !
 ! A15   A(3,6,12)             119.7993         estimate D2E/DX2                !
 ! A16   A(8,6,12)             118.5835         estimate D2E/DX2                !
 ! A17   A(4,7,8)              119.5786         estimate D2E/DX2                !
 ! A18   A(4,7,13)             120.187          estimate D2E/DX2                !
 ! A19   A(8,7,13)             120.2344         estimate D2E/DX2                !
 ! A20   A(6,8,7)              120.0157         estimate D2E/DX2                !
 ! A21   A(6,8,14)             119.9104         estimate D2E/DX2                !
 ! A22   A(7,8,14)             120.0739         estimate D2E/DX2                !
 ! A23   A(5,9,10)             117.537          estimate D2E/DX2                !
 ! A24   A(5,9,15)             121.174          estimate D2E/DX2                !
 ! A25   A(10,9,15)            121.289          estimate D2E/DX2                !
 ! A26   A(1,10,9)             124.1172         estimate D2E/DX2                !
 ! A27   A(1,10,17)            116.157          estimate D2E/DX2                !
 ! A28   A(9,10,17)            119.6905         estimate D2E/DX2                !
 ! A29   A(18,16,19)           126.3123         estimate D2E/DX2                !
 ! A30   A(18,16,20)           107.4439         estimate D2E/DX2                !
 ! A31   A(19,16,20)           126.2439         estimate D2E/DX2                !
 ! A32   A(10,17,20)           119.7481         estimate D2E/DX2                !
 ! A33   A(10,17,21)           135.4791         estimate D2E/DX2                !
 ! A34   A(20,17,21)           104.7575         estimate D2E/DX2                !
 ! A35   A(16,18,21)           104.8342         estimate D2E/DX2                !
 ! A36   A(16,18,26)           134.0768         estimate D2E/DX2                !
 ! A37   A(21,18,26)           120.9961         estimate D2E/DX2                !
 ! A38   A(16,19,22)           108.119          estimate D2E/DX2                !
 ! A39   A(16,19,23)           109.1086         estimate D2E/DX2                !
 ! A40   A(16,19,24)           109.039          estimate D2E/DX2                !
 ! A41   A(22,19,23)           110.4227         estimate D2E/DX2                !
 ! A42   A(22,19,24)           110.4452         estimate D2E/DX2                !
 ! A43   A(23,19,24)           109.6669         estimate D2E/DX2                !
 ! A44   A(16,20,17)           111.7975         estimate D2E/DX2                !
 ! A45   A(17,21,18)           111.1669         estimate D2E/DX2                !
 ! A46   A(17,21,25)           130.7404         estimate D2E/DX2                !
 ! A47   A(18,21,25)           118.0833         estimate D2E/DX2                !
 ! A48   A(21,25,27)           122.7096         estimate D2E/DX2                !
 ! A49   A(21,25,28)           117.2901         estimate D2E/DX2                !
 ! A50   A(27,25,28)           119.992          estimate D2E/DX2                !
 ! A51   A(18,26,29)           118.0407         estimate D2E/DX2                !
 ! A52   A(18,26,30)           121.9004         estimate D2E/DX2                !
 ! A53   A(29,26,30)           119.993          estimate D2E/DX2                !
 ! A54   A(25,27,29)           120.0047         estimate D2E/DX2                !
 ! A55   A(25,27,31)           119.984          estimate D2E/DX2                !
 ! A56   A(29,27,31)           120.0113         estimate D2E/DX2                !
 ! A57   A(26,29,27)           119.994          estimate D2E/DX2                !
 ! A58   A(26,29,32)           119.9811         estimate D2E/DX2                !
 ! A59   A(27,29,32)           120.0249         estimate D2E/DX2                !
 ! A60   A(5,33,34)            119.9972         estimate D2E/DX2                !
 ! A61   A(5,33,35)            120.0043         estimate D2E/DX2                !
 ! A62   A(34,33,35)           119.9985         estimate D2E/DX2                !
 ! A63   A(33,34,36)           120.0086         estimate D2E/DX2                !
 ! A64   A(33,34,37)           119.9808         estimate D2E/DX2                !
 ! A65   A(36,34,37)           120.0106         estimate D2E/DX2                !
 ! A66   A(33,35,38)           120.0            estimate D2E/DX2                !
 ! A67   A(33,35,39)           120.008          estimate D2E/DX2                !
 ! A68   A(38,35,39)           119.992          estimate D2E/DX2                !
 ! A69   A(34,36,40)           119.9942         estimate D2E/DX2                !
 ! A70   A(34,36,41)           120.0128         estimate D2E/DX2                !
 ! A71   A(40,36,41)           119.993          estimate D2E/DX2                !
 ! A72   A(35,38,40)           120.0047         estimate D2E/DX2                !
 ! A73   A(35,38,42)           119.984          estimate D2E/DX2                !
 ! A74   A(40,38,42)           120.0113         estimate D2E/DX2                !
 ! A75   A(36,40,38)           119.994          estimate D2E/DX2                !
 ! A76   A(36,40,43)           119.9811         estimate D2E/DX2                !
 ! A77   A(38,40,43)           120.0249         estimate D2E/DX2                !
 ! D1    D(10,1,3,2)            -0.0048         estimate D2E/DX2                !
 ! D2    D(10,1,3,6)           179.9952         estimate D2E/DX2                !
 ! D3    D(3,1,10,9)             0.0152         estimate D2E/DX2                !
 ! D4    D(3,1,10,17)         -177.8102         estimate D2E/DX2                !
 ! D5    D(4,2,3,1)            180.0            estimate D2E/DX2                !
 ! D6    D(4,2,3,6)              0.0            estimate D2E/DX2                !
 ! D7    D(5,2,3,1)              0.0            estimate D2E/DX2                !
 ! D8    D(5,2,3,6)            180.0            estimate D2E/DX2                !
 ! D9    D(3,2,4,7)              0.0            estimate D2E/DX2                !
 ! D10   D(3,2,4,11)           180.0            estimate D2E/DX2                !
 ! D11   D(5,2,4,7)            180.0            estimate D2E/DX2                !
 ! D12   D(5,2,4,11)             0.0            estimate D2E/DX2                !
 ! D13   D(3,2,5,9)             -0.0048         estimate D2E/DX2                !
 ! D14   D(3,2,5,33)          -179.9939         estimate D2E/DX2                !
 ! D15   D(4,2,5,9)            179.9952         estimate D2E/DX2                !
 ! D16   D(4,2,5,33)             0.0061         estimate D2E/DX2                !
 ! D17   D(1,3,6,8)            180.0            estimate D2E/DX2                !
 ! D18   D(1,3,6,12)             0.0061         estimate D2E/DX2                !
 ! D19   D(2,3,6,8)              0.0            estimate D2E/DX2                !
 ! D20   D(2,3,6,12)          -179.9939         estimate D2E/DX2                !
 ! D21   D(2,4,7,8)              0.0            estimate D2E/DX2                !
 ! D22   D(2,4,7,13)           180.0            estimate D2E/DX2                !
 ! D23   D(11,4,7,8)           180.0            estimate D2E/DX2                !
 ! D24   D(11,4,7,13)            0.0            estimate D2E/DX2                !
 ! D25   D(2,5,9,10)             0.0139         estimate D2E/DX2                !
 ! D26   D(2,5,9,15)           179.9999         estimate D2E/DX2                !
 ! D27   D(33,5,9,10)         -179.9968         estimate D2E/DX2                !
 ! D28   D(33,5,9,15)           -0.0108         estimate D2E/DX2                !
 ! D29   D(2,5,33,34)           90.3447         estimate D2E/DX2                !
 ! D30   D(2,5,33,35)          -89.6606         estimate D2E/DX2                !
 ! D31   D(9,5,33,34)          -89.6445         estimate D2E/DX2                !
 ! D32   D(9,5,33,35)           90.3502         estimate D2E/DX2                !
 ! D33   D(3,6,8,7)              0.0            estimate D2E/DX2                !
 ! D34   D(3,6,8,14)          -179.9939         estimate D2E/DX2                !
 ! D35   D(12,6,8,7)           179.994          estimate D2E/DX2                !
 ! D36   D(12,6,8,14)            0.0001         estimate D2E/DX2                !
 ! D37   D(4,7,8,6)              0.0            estimate D2E/DX2                !
 ! D38   D(4,7,8,14)           179.9939         estimate D2E/DX2                !
 ! D39   D(13,7,8,6)           180.0            estimate D2E/DX2                !
 ! D40   D(13,7,8,14)           -0.0061         estimate D2E/DX2                !
 ! D41   D(5,9,10,1)            -0.0197         estimate D2E/DX2                !
 ! D42   D(5,9,10,17)          177.7333         estimate D2E/DX2                !
 ! D43   D(15,9,10,1)          179.9943         estimate D2E/DX2                !
 ! D44   D(15,9,10,17)          -2.2527         estimate D2E/DX2                !
 ! D45   D(1,10,17,20)           1.7758         estimate D2E/DX2                !
 ! D46   D(1,10,17,21)        -179.8919         estimate D2E/DX2                !
 ! D47   D(9,10,17,20)        -176.1518         estimate D2E/DX2                !
 ! D48   D(9,10,17,21)           2.1806         estimate D2E/DX2                !
 ! D49   D(19,16,18,21)        179.9867         estimate D2E/DX2                !
 ! D50   D(19,16,18,26)         -3.6386         estimate D2E/DX2                !
 ! D51   D(20,16,18,21)         -0.0177         estimate D2E/DX2                !
 ! D52   D(20,16,18,26)        176.357          estimate D2E/DX2                !
 ! D53   D(18,16,19,22)        -91.3222         estimate D2E/DX2                !
 ! D54   D(18,16,19,23)         28.8051         estimate D2E/DX2                !
 ! D55   D(18,16,19,24)        148.5636         estimate D2E/DX2                !
 ! D56   D(20,16,19,22)         88.683          estimate D2E/DX2                !
 ! D57   D(20,16,19,23)       -151.1897         estimate D2E/DX2                !
 ! D58   D(20,16,19,24)        -31.4312         estimate D2E/DX2                !
 ! D59   D(18,16,20,17)         -0.0083         estimate D2E/DX2                !
 ! D60   D(19,16,20,17)        179.9873         estimate D2E/DX2                !
 ! D61   D(10,17,20,16)        178.8213         estimate D2E/DX2                !
 ! D62   D(21,17,20,16)          0.0305         estimate D2E/DX2                !
 ! D63   D(10,17,21,18)       -178.545          estimate D2E/DX2                !
 ! D64   D(10,17,21,25)          0.296          estimate D2E/DX2                !
 ! D65   D(20,17,21,18)         -0.0423         estimate D2E/DX2                !
 ! D66   D(20,17,21,25)        178.7987         estimate D2E/DX2                !
 ! D67   D(16,18,21,17)          0.0375         estimate D2E/DX2                !
 ! D68   D(16,18,21,25)       -178.9672         estimate D2E/DX2                !
 ! D69   D(26,18,21,17)       -176.9248         estimate D2E/DX2                !
 ! D70   D(26,18,21,25)          4.0705         estimate D2E/DX2                !
 ! D71   D(16,18,26,29)        179.0116         estimate D2E/DX2                !
 ! D72   D(16,18,26,30)          1.9652         estimate D2E/DX2                !
 ! D73   D(21,18,26,29)         -5.0774         estimate D2E/DX2                !
 ! D74   D(21,18,26,30)        177.8762         estimate D2E/DX2                !
 ! D75   D(17,21,25,27)       -179.7909         estimate D2E/DX2                !
 ! D76   D(17,21,25,28)         -0.8457         estimate D2E/DX2                !
 ! D77   D(18,21,25,27)         -1.0159         estimate D2E/DX2                !
 ! D78   D(18,21,25,28)        177.9293         estimate D2E/DX2                !
 ! D79   D(21,25,27,29)         -1.0943         estimate D2E/DX2                !
 ! D80   D(21,25,27,31)        178.9183         estimate D2E/DX2                !
 ! D81   D(28,25,27,29)        179.9881         estimate D2E/DX2                !
 ! D82   D(28,25,27,31)          0.0007         estimate D2E/DX2                !
 ! D83   D(18,26,29,27)          2.9106         estimate D2E/DX2                !
 ! D84   D(18,26,29,32)       -177.1199         estimate D2E/DX2                !
 ! D85   D(30,26,29,27)       -179.9846         estimate D2E/DX2                !
 ! D86   D(30,26,29,32)         -0.0151         estimate D2E/DX2                !
 ! D87   D(25,27,29,26)          0.0131         estimate D2E/DX2                !
 ! D88   D(25,27,29,32)       -179.9563         estimate D2E/DX2                !
 ! D89   D(31,27,29,26)       -179.9995         estimate D2E/DX2                !
 ! D90   D(31,27,29,32)          0.0311         estimate D2E/DX2                !
 ! D91   D(5,33,34,36)        -179.9729         estimate D2E/DX2                !
 ! D92   D(5,33,34,37)          -0.052          estimate D2E/DX2                !
 ! D93   D(35,33,34,36)          0.0323         estimate D2E/DX2                !
 ! D94   D(35,33,34,37)        179.9532         estimate D2E/DX2                !
 ! D95   D(5,33,35,38)        -179.9798         estimate D2E/DX2                !
 ! D96   D(5,33,35,39)          -0.0056         estimate D2E/DX2                !
 ! D97   D(34,33,35,38)          0.0149         estimate D2E/DX2                !
 ! D98   D(34,33,35,39)        179.9892         estimate D2E/DX2                !
 ! D99   D(33,34,36,40)         -0.0568         estimate D2E/DX2                !
 ! D100  D(33,34,36,41)        179.9619         estimate D2E/DX2                !
 ! D101  D(37,34,36,40)       -179.9777         estimate D2E/DX2                !
 ! D102  D(37,34,36,41)          0.041          estimate D2E/DX2                !
 ! D103  D(33,35,38,40)         -0.0376         estimate D2E/DX2                !
 ! D104  D(33,35,38,42)        179.975          estimate D2E/DX2                !
 ! D105  D(39,35,38,40)        179.9881         estimate D2E/DX2                !
 ! D106  D(39,35,38,42)          0.0007         estimate D2E/DX2                !
 ! D107  D(34,36,40,38)          0.0341         estimate D2E/DX2                !
 ! D108  D(34,36,40,43)       -179.9964         estimate D2E/DX2                !
 ! D109  D(41,36,40,38)       -179.9846         estimate D2E/DX2                !
 ! D110  D(41,36,40,43)         -0.0151         estimate D2E/DX2                !
 ! D111  D(35,38,40,36)          0.0131         estimate D2E/DX2                !
 ! D112  D(35,38,40,43)       -179.9563         estimate D2E/DX2                !
 ! D113  D(42,38,40,36)       -179.9995         estimate D2E/DX2                !
 ! D114  D(42,38,40,43)          0.031          estimate D2E/DX2                !
 --------------------------------------------------------------------------------
 Trust Radius=3.00D-01 FncErr=1.00D-07 GrdErr=1.00D-06 EigMax=2.50D+02 EigMin=1.00D-04
 Number of steps in this run=    248 maximum allowed number of steps=    258.
 GradGradGradGradGradGradGradGradGradGradGradGradGradGradGradGradGradGrad

                          Input orientation:                          
 ---------------------------------------------------------------------
 Center     Atomic      Atomic             Coordinates (Angstroms)
 Number     Number       Type             X           Y           Z
 ---------------------------------------------------------------------
      1          7           0        2.412029    0.935271    0.017142
      2          6           0        1.228329   -1.163829    0.017142
      3          6           0        1.255029    0.246571    0.017142
      4          6           0        0.002229   -1.850429    0.017142
      5          6           0        2.452029   -1.846829    0.017142
      6          6           0        0.039229    0.924571    0.017142
      7          6           0       -1.198871   -1.146929    0.017142
      8          6           0       -1.179971    0.242171    0.017142
      9          6           0        3.645829   -1.139929    0.017042
     10          6           0        3.571329    0.238071    0.017242
     11          1           0       -0.023771   -2.937929    0.017142
     12          1           0        0.026829    2.012971    0.017042
     13          1           0       -2.144271   -1.680829    0.017142
     14          1           0       -2.112371    0.799171    0.017042
     15          1           0        4.600929   -1.651929    0.017042
     16          7           0        5.977034    2.918911    0.208062
     17          7           0        4.808531    1.035517    0.067750
     18          6           0        6.897319    1.909524    0.169415
     19          6           0        6.260523    4.330235    0.299025
     20          6           0        4.737263    2.345879    0.144581
     21          6           0        6.152306    0.756973    0.083365
     22          1           0        6.279457    4.605578    1.356248
     23          1           0        7.229626    4.531158   -0.164844
     24          1           0        5.479152    4.885426   -0.226159
     25          6           0        6.826194   -0.455286    0.048988
     26          6           0        8.372376    1.865627    0.134042
     27          6           0        8.218149   -0.545134    0.077270
     28          1           0        6.216906   -1.370036    0.015379
     29          6           0        8.991282    0.615041    0.119653
     30          1           0        8.981935    2.780304    0.167201
     31          1           0        8.705621   -1.530891    0.065928
     32          1           0       10.088493    0.544623    0.141229
     33          6           0        2.493658   -3.386266    0.017000
     34          6           0        2.519842   -4.083223   -1.191319
     35          6           0        2.505297   -4.083823    1.224819
     36          6           0        2.556975   -5.477441   -1.191729
     37          1           0        2.509880   -3.533011   -2.143374
     38          6           0        2.543436   -5.478440    1.224589
     39          1           0        2.484844   -3.534666    2.177257
     40          6           0        2.569137   -6.175310    0.016595
     41          1           0        2.576982   -6.026876   -2.144103
     42          1           0        2.553021   -6.028154    2.177058
     43          1           0        2.598476   -7.274598    0.016023
 ---------------------------------------------------------------------
                    Distance matrix (angstroms):
                    1          2          3          4          5
     1  N    0.000000
     2  C    2.409848   0.000000
     3  C    1.346461   1.410653   0.000000
     4  C    3.683376   1.405255   2.442727   0.000000
     5  C    2.782388   1.401403   2.411459   2.449803   0.000000
     6  C    2.372824   2.403201   1.392068   2.775247   3.674542
     7  C    4.168232   2.427259   2.821962   1.391960   3.717382
     8  C    3.658258   2.788682   2.435004   2.403450   4.189910
     9  C    2.414274   2.417618   2.763749   3.712227   1.387395
    10  C    1.352799   2.730380   2.316316   4.135252   2.366356
    11  H    4.575456   2.171448   3.431672   1.087811   2.705566
    12  H    2.617368   3.396419   2.151428   3.863478   4.558470
    13  H    5.253937   3.411996   3.907699   2.153190   4.599297
    14  H    4.526447   3.874745   3.412440   3.389972   5.275895
    15  H    3.388936   3.407737   3.846992   4.602982   2.157720
    16  N    4.084182   6.265414   5.429105   7.647310   5.930800
    17  N    2.399132   4.202086   3.640381   5.606406   3.723383
    18  C    4.592405   6.450282   5.884220   7.855107   5.821854
    19  C    5.139665   7.455681   6.466123   8.800359   7.262246
    20  C    2.722640   4.964565   4.068082   6.328174   4.776749
    21  C    3.745110   5.285775   4.924248   6.680298   4.525066
    22  H    5.497396   7.784161   6.785206   9.103671   7.620759
    23  H    6.014380   8.275359   7.354361   9.643290   7.971027
    24  H    5.007011   7.397444   6.278645   8.684908   7.385521
    25  C    4.628123   5.642619   5.615292   6.965195   4.590287
    26  C    6.033653   7.760714   7.300112   9.158717   6.989027
    27  C    5.992182   7.017406   7.008242   8.319180   5.911528
    28  H    4.448768   4.992838   5.218587   6.233217   3.794949
    29  C    6.587839   7.964818   7.745701   9.321595   6.988072
    30  H    6.825711   8.700409   8.133105  10.104520   8.004533
    31  H    6.759707   7.486455   7.659835   8.709393   6.261758
    32  H    7.687399   9.024229   8.839362  10.367468   8.003126
    33  C    4.322308   2.557398   3.838191   2.926776   1.540000
    34  C    5.163070   3.413393   4.669824   3.575490   2.542919
    35  C    5.163186   3.408152   4.666259   3.565374   2.542728
    36  C    6.527270   4.672678   5.993392   4.598186   3.828019
    37  H    4.964167   3.453003   4.530753   3.713116   2.741238
    38  C    6.527701   4.669401   5.991133   4.591092   3.828169
    39  H    4.965051   3.444676   4.525074   3.696772   2.741526
    40  C    7.112316   5.187746   6.554955   5.029276   4.330065
    41  H    7.291755   5.489907   6.765699   5.361254   4.707376
    42  H    7.292078   5.484679   6.761819   5.350249   4.707326
    43  H    8.211986   6.262492   7.640212   6.013494   5.429745
                    6          7          8          9         10
     6  C    0.000000
     7  C    2.413297   0.000000
     8  C    1.397182   1.389229   0.000000
     9  C    4.155686   4.844705   5.019815   0.000000
    10  C    3.598196   4.967196   4.751302   1.380012   0.000000
    11  H    3.863014   2.142088   3.383760   4.086413   4.797053
    12  H    1.088471   3.389293   2.142918   4.799785   3.964057
    13  H    3.399380   1.085740   2.151233   5.815310   6.029118
    14  H    2.155251   2.149834   1.086103   6.075934   5.711329
    15  H    5.239032   5.821744   6.083290   1.083679   2.152249
    16  N    6.266688   8.249916   7.643567   4.684569   3.607039
    17  N    4.770861   6.391753   6.041036   2.467187   1.472800
    18  C    6.930132   8.655252   8.248992   4.460333   3.725469
    19  C    7.098064   9.258583   8.494274   6.069501   4.904791
    20  C    4.909978   6.888660   6.281360   3.654908   2.412151
    21  C    6.115733   7.594013   7.350626   3.144052   2.633453
    22  H    7.367731   9.529425   8.745033   6.460675   5.310557
    23  H    8.046266  10.164318   9.441920   6.711029   5.643305
    24  H    6.733523   9.002472   8.121757   6.302787   5.029606
    25  C    6.925888   8.054878   8.036551   3.253380   3.328048
    26  C    8.386930  10.034836   9.690026   5.602437   5.070763
    27  C    8.310137   9.436421   9.431231   4.611238   4.712743
    28  H    6.590062   7.419133   7.570535   2.581354   3.095980
    29  C    8.957989  10.341870  10.178602   5.627106   5.434012
    30  H    9.134454  10.913042  10.475160   6.623051   5.979975
    31  H    9.007665   9.912052  10.043459   5.075110   5.430705
    32  H   10.057210  11.414085  11.273205   6.660410   6.525548
    33  C    4.960599   4.318496   5.163440   2.524585   3.781163
    34  C    5.717677   4.889891   5.818766   3.375050   4.608669
    35  C    5.711742   4.879006   5.809812   3.380244   4.612313
    36  C    6.984710   5.858420   6.938307   4.632574   5.929384
    37  H    5.535521   4.910810   5.703931   3.418277   4.473924
    38  C    6.980511   5.850195   6.931600   4.636390   5.932347
    39  H    5.525570   4.892560   5.688713   3.427707   4.481033
    40  C    7.537158   6.283510   7.432353   5.149206   6.491213
    41  H    7.709332   6.537732   7.621459   5.449334   6.701470
    42  H    7.702258   6.524438   7.610351   5.454782   6.705769
    43  H    8.589303   7.208896   8.412995   6.223433   7.575397
                   11         12         13         14         15
    11  H    0.000000
    12  H    4.951159   0.000000
    13  H    2.465121   4.284604   0.000000
    14  H    4.281141   2.459571   2.480205   0.000000
    15  H    4.800171   5.861219   6.745262   7.146768   0.000000
    16  N    8.387412   6.021807   9.335398   8.364703   4.777314
    17  N    6.256355   4.880847   7.464754   6.925122   2.695929
    18  C    8.451182   6.872958   9.729552   9.079131   4.240350
    19  C    9.612390   6.656439  10.336969   9.091386   6.214504
    20  C    7.113530   4.723906   7.974091   7.023252   4.002164
    21  C    7.197265   6.253271   8.647570   8.265051   2.866004
    22  H    9.921108   6.900032  10.595816   9.311551   6.615687
    23  H   10.413076   7.632473  11.246860  10.061497   6.721138
    24  H    9.567980   6.167493  10.064367   8.624839   6.600563
    25  C    7.286052   7.233580   9.053851   9.026219   2.526813
    26  C    9.673836   8.347668  11.099139  10.539494   5.158556
    27  C    8.582443   8.581681  10.424642  10.417794   3.783240
    28  H    6.434621   7.054204   8.366952   8.607109   1.640381
    29  C    9.690474   9.073376  11.370227  11.105654   4.942154
    30  H   10.668807   8.989175  11.988190  11.270806   6.233815
    31  H    8.842196   9.374582  10.851038  11.066189   4.106768
    32  H   10.695861  10.169000  12.434169  12.204151   5.912159
    33  C    2.557041   5.936077   4.941549   6.223616   2.729197
    34  C    3.040074   6.696181   5.383849   6.837786   3.420855
    35  C    3.027829   6.691221   5.371346   6.828267   3.429942
    36  C    3.817164   7.998065   6.162577   7.915793   4.502601
    37  H    3.382505   6.449098   5.455230   6.693311   3.546597
    38  C    3.808238   7.994543   6.152591   7.908420   4.509282
    39  H    3.363828   6.440857   5.434290   6.677054   3.562168
    40  C    4.147748   8.573872   6.512801   8.399994   4.958745
    41  H    4.580010   8.707065   6.771214   8.558943   5.282714
    42  H    4.566682   8.700977   6.754926   8.546574   5.292536
    43  H    5.067828   9.637028   7.333751   9.347611   5.968604
                   16         17         18         19         20
    16  N    0.000000
    17  N    2.220869   0.000000
    18  C    1.366485   2.266553   0.000000
    19  C    1.442386   3.607900   2.506422   0.000000
    20  C    1.367270   1.314546   2.203830   2.506361   0.000000
    21  C    2.172612   1.372429   1.375071   3.581399   2.128548
    22  H    2.062677   4.070526   3.009823   1.092654   2.992113
    23  H    2.075425   4.258557   2.663668   1.093025   3.329124
    24  H    2.074516   3.918917   3.320191   1.092976   2.671544
    25  C    3.483042   2.508747   2.368942   4.825320   3.495611
    26  C    2.617737   3.659846   1.476134   3.249836   3.666715
    27  C    4.127870   3.758197   2.788983   5.258393   4.525378
    28  H    4.299968   2.788000   3.352939   5.707490   4.001756
    29  C    3.794907   4.204153   2.462284   4.614313   4.592722
    30  H    3.008373   4.524541   2.259178   3.134604   4.266905
    31  H    5.221697   4.666237   3.888074   6.354969   5.548278
    32  H    4.748242   5.303242   3.470928   5.386011   5.646255
    33  C    7.205947   4.991330   6.889184   8.591461   6.156909
    34  C    7.933494   5.746725   7.544993   9.327385   6.930724
    35  C    7.881943   5.731608   7.504927   9.260410   6.891273
    36  C    9.173600   7.005313   8.675168  10.589104   8.230657
    37  H    7.692705   5.571743   7.363410   9.047833   6.690091
    38  C    9.128987   6.992893   8.640121  10.530124   8.197515
    39  H    7.597484   5.544015   7.289757   8.924135   6.617096
    40  C    9.713664   7.550730   9.171752  11.138787   8.793623
    41  H    9.854955   7.729780   9.327600  11.260866   8.944714
    42  H    9.780121   7.709212   9.268780  11.161040   8.889674
    43  H   10.740538   8.599130  10.141582  12.172216   9.856192
                   21         22         23         24         25
    21  C    0.000000
    22  H    4.055633   0.000000
    23  H    3.932772   1.795016   0.000000
    24  H    4.194408   1.795220   1.787015   0.000000
    25  C    1.387400   5.255491   5.007305   5.514837   0.000000
    26  C    2.482013   3.658063   2.915522   4.197579   2.790080
    27  C    2.441972   5.650145   5.177310   6.089758   1.395138
    28  H    2.129075   6.124524   5.990173   6.303445   1.099604
    29  C    2.842753   4.980717   4.303527   5.539930   2.416236
    30  H    3.479611   3.471144   2.499266   4.105576   3.889760
    31  H    3.428417   6.723648   6.243417   7.187804   2.165516
    32  H    3.942335   5.698805   4.915208   6.342205   3.413344
    33  C    5.527797   8.944016   9.227571   8.797340   5.230922
    34  C    6.184425   9.804084   9.871336   9.493456   5.765844
    35  C    6.167406   9.474558   9.923122   9.560155   5.763594
    36  C    7.308911  11.046100  11.093251  10.810201   6.707283
    37  H    6.052239   9.627757   9.550990   9.130300   5.736673
    38  C    7.294293  10.754654  11.139253  10.868891   6.704933
    39  H    6.021032   9.018686   9.646549   9.254200   5.732315
    40  C    7.803852  11.479925  11.678250  11.439711   7.130376
    41  H    7.985310  11.790244  11.706266  11.453359   7.342212
    42  H    7.960927  11.297624  11.783642  11.551793   7.337953
    43  H    8.782960  12.509373  12.682908  12.498925   8.023572
                   26         27         28         29         30
    26  C    0.000000
    27  C    2.416356   0.000000
    28  H    3.889684   2.165471   0.000000
    29  C    1.395427   1.394825   3.412999   0.000000
    30  H    1.099680   3.413209   4.989364   2.165806   0.000000
    31  H    3.413506   1.099761   2.494420   2.165528   4.321228
    32  H    2.165678   2.165606   4.320988   1.099680   2.494678
    33  C    7.883870   6.391045   4.234119   7.631521   8.952479
    34  C    8.449707   6.826279   4.741918   8.103818   9.524297
    35  C    8.426646   6.817321   4.754306   8.085092   9.496401
    36  C    9.460296   7.614913   5.632316   8.957587  10.550694
    37  H    8.288593   6.814910   4.804240   8.020985   9.331892
    38  C    9.439340   7.606327   5.642300   8.940140  10.525169
    39  H    8.246267   6.798384   4.825726   7.986710   9.280698
    40  C    9.917058   7.975832   6.032983   9.346840  11.015883
    41  H   10.053265   8.173540   6.292740   9.506992  11.132474
    42  H   10.017514   8.158817   6.308326   9.477139  11.088706
    43  H   10.811825   8.767563   6.925092  10.155054  11.911023
                   31         32         33         34         35
    31  H    0.000000
    32  H    2.495147   0.000000
    33  C    6.483309   8.552709   0.000000
    34  C    6.808739   8.970904   1.395160   0.000000
    35  C    6.804741   8.949946   1.394829   2.416183   0.000000
    36  C    7.413690   9.734772   2.416205   1.394712   2.790080
    37  H    6.875806   8.904037   2.165414   1.099655   3.412938
    38  C    7.409329   9.714876   2.416183   2.789946   1.395138
    39  H    6.868107   8.865748   2.165365   3.413128   1.099604
    40  C    7.696070  10.085323   2.790065   2.416260   2.416236
    41  H    7.915702  10.238659   3.413229   2.165375   3.889760
    42  H    7.908017  10.204378   3.413055   3.889707   2.165516
    43  H    8.383906  10.828492   3.889745   3.413024   3.413344
                   36         37         38         39         40
    36  C    0.000000
    37  H    2.165330   0.000000
    38  C    2.416356   3.889601   0.000000
    39  H    3.889684   4.320704   2.165471   0.000000
    40  C    1.395427   3.413316   1.394825   3.412999   0.000000
    41  H    1.099680   2.494768   3.413209   4.989364   2.165806
    42  H    3.413506   4.989362   1.099761   2.494420   2.165528
    43  H    2.165678   4.320917   2.165606   4.320988   1.099680
                   41         42         43
    41  H    0.000000
    42  H    4.321228   0.000000
    43  H    2.494678   2.495147   0.000000
 Stoichiometry    C23H17N3
 Framework group  C1[X(C23H17N3)]
 Deg. of freedom   123
 Full point group                 C1      NOp   1
 Largest Abelian subgroup         C1      NOp   1
 Largest concise Abelian subgroup C1      NOp   1
                         Standard orientation:                         
 ---------------------------------------------------------------------
 Center     Atomic      Atomic             Coordinates (Angstroms)
 Number     Number       Type             X           Y           Z
 ---------------------------------------------------------------------
      1          7           0        0.144871    2.053756   -0.060202
      2          6           0       -2.138546    1.284874   -0.013348
      3          6           0       -1.175675    2.315553   -0.036169
      4          6           0       -3.509054    1.594447    0.011431
      5          6           0       -1.685566   -0.041297   -0.016230
      6          6           0       -1.626125    3.632725   -0.033296
      7          6           0       -3.931527    2.920745    0.013731
      8          6           0       -2.988696    3.940805   -0.008663
      9          6           0       -0.325498   -0.314177   -0.041068
     10          6           0        0.540486    0.760098   -0.062032
     11          1           0       -4.255507    0.803354    0.029088
     12          1           0       -0.907617    4.450168   -0.050635
     13          1           0       -4.991275    3.156108    0.032908
     14          1           0       -3.309383    4.978483   -0.007151
     15          1           0        0.042150   -1.333583   -0.043654
     16          7           0        4.124891    1.145016    0.058840
     17          7           0        1.994323    0.525725   -0.038206
     18          6           0        4.133359   -0.221047    0.025948
     19          6           0        5.281001    2.005036    0.124056
     20          6           0        2.818945    1.547887    0.018489
     21          6           0        2.807287   -0.579999   -0.033288
     22          1           0        5.499321    2.201656    1.176467
     23          1           0        6.126894    1.504264   -0.353853
     24          1           0        5.061366    2.938085   -0.401089
     25          6           0        2.497031   -1.932075   -0.055894
     26          6           0        5.199831   -1.240349   -0.025337
     27          6           0        3.472217   -2.929684   -0.041867
     28          1           0        1.431849   -2.204784   -0.068026
     29          6           0        4.823458   -2.584060   -0.026728
     30          1           0        6.265157   -0.967877   -0.013658
     31          1           0        3.175270   -3.988597   -0.042959
     32          1           0        5.592407   -3.370130   -0.016394
     33          6           0       -2.683924   -1.213606    0.007741
     34          6           0       -3.153485   -1.754497   -1.189515
     35          6           0       -3.118657   -1.734739    1.226336
     36          6           0       -4.058093   -2.815839   -1.168080
     37          1           0       -2.811149   -1.342917   -2.150061
     38          6           0       -4.022781   -2.797050    1.247945
     39          1           0       -2.748534   -1.308669    2.170053
     40          6           0       -4.492637   -3.337551    0.051020
     41          1           0       -4.428733   -3.241816   -2.111725
     42          1           0       -4.365058   -3.208005    2.208901
     43          1           0       -5.205847   -4.174421    0.067669
 ---------------------------------------------------------------------
 Rotational constants (GHZ):           0.3096171           0.1332835           0.0964144
 Standard basis: def2SVP (5D, 7F)
 There are   475 symmetry adapted cartesian basis functions of A   symmetry.
 There are   449 symmetry adapted basis functions of A   symmetry.
   449 basis functions,   769 primitive gaussians,   475 cartesian basis functions
    88 alpha electrons       88 beta electrons
       nuclear repulsion energy      2056.6876234288 Hartrees.
 NAtoms=   43 NActive=   43 NUniq=   43 SFac= 1.00D+00 NAtFMM=   60 NAOKFM=F Big=F
 Integral buffers will be    131072 words long.
 Raffenetti 2 integral format.
 Two-electron integral symmetry is turned on.
 One-electron integrals computed using PRISM.
   1 Symmetry operations used in ECPInt.
 ECPInt:  NShTT=   21528 NPrTT=   79392 LenC2=   18282 LenP2D=   45218.
 LDataN:  DoStor=T MaxTD1= 4 Len=   56
 NBasis=   449 RedAO= T EigKep=  2.27D-04  NBF=   449
 NBsUse=   449 1.00D-06 EigRej= -1.00D+00 NBFU=   449
 ExpMin= 1.22D-01 ExpMax= 1.71D+03 ExpMxC= 2.58D+02 IAcc=3 IRadAn=         5 AccDes= 0.00D+00
 Harris functional with IExCor= 1009 and IRadAn=       5 diagonalized for initial guess.
 HarFok:  IExCor= 1009 AccDes= 0.00D+00 IRadAn=         5 IDoV= 1 UseB2=F ITyADJ=14
 ICtDFT=  3500011 ScaDFX=  1.000000  1.000000  1.000000  1.000000
 FoFCou: FMM=F IPFlag=           0 FMFlag=      100000 FMFlg1=           0
         NFxFlg=           0 DoJE=T BraDBF=F KetDBF=T FulRan=T
         wScrn=  0.000000 ICntrl=       500 IOpCl=  0 I1Cent=   200000004 NGrid=           0
         NMat0=    1 NMatS0=      1 NMatT0=    0 NMatD0=    1 NMtDS0=    0 NMtDT0=    0
 Petite list used in FoFCou.
 Requested convergence on RMS density matrix=1.00D-08 within 128 cycles.
 Requested convergence on MAX density matrix=1.00D-06.
 Requested convergence on             energy=1.00D-06.
 No special actions if energy rises.
 Integral accuracy reduced to 1.0D-05 until final iterations.
 Initial convergence to 1.0D-05 achieved.  Increase integral accuracy.
 SCF Done:  E(RMN15) =  -1048.71735909     A.U. after   15 cycles
            NFock= 15  Conv=0.81D-08     -V/T= 2.0125

 **********************************************************************

            Population analysis using the SCF Density.

 **********************************************************************

 Orbital symmetries:
       Occupied  (A) (A) (A) (A) (A) (A) (A) (A) (A) (A) (A) (A)
                 (A) (A) (A) (A) (A) (A) (A) (A) (A) (A) (A) (A)
                 (A) (A) (A) (A) (A) (A) (A) (A) (A) (A) (A) (A)
                 (A) (A) (A) (A) (A) (A) (A) (A) (A) (A) (A) (A)
                 (A) (A) (A) (A) (A) (A) (A) (A) (A) (A) (A) (A)
                 (A) (A) (A) (A) (A) (A) (A) (A) (A) (A) (A) (A)
                 (A) (A) (A) (A) (A) (A) (A) (A) (A) (A) (A) (A)
                 (A) (A) (A) (A)
       Virtual   (A) (A) (A) (A) (A) (A) (A) (A) (A) (A) (A) (A)
                 (A) (A) (A) (A) (A) (A) (A) (A) (A) (A) (A) (A)
                 (A) (A) (A) (A) (A) (A) (A) (A) (A) (A) (A) (A)
                 (A) (A) (A) (A) (A) (A) (A) (A) (A) (A) (A) (A)
                 (A) (A) (A) (A) (A) (A) (A) (A) (A) (A) (A) (A)
                 (A) (A) (A) (A) (A) (A) (A) (A) (A) (A) (A) (A)
                 (A) (A) (A) (A) (A) (A) (A) (A) (A) (A) (A) (A)
                 (A) (A) (A) (A) (A) (A) (A) (A) (A) (A) (A) (A)
                 (A) (A) (A) (A) (A) (A) (A) (A) (A) (A) (A) (A)
                 (A) (A) (A) (A) (A) (A) (A) (A) (A) (A) (A) (A)
                 (A) (A) (A) (A) (A) (A) (A) (A) (A) (A) (A) (A)
                 (A) (A) (A) (A) (A) (A) (A) (A) (A) (A) (A) (A)
                 (A) (A) (A) (A) (A) (A) (A) (A) (A) (A) (A) (A)
                 (A) (A) (A) (A) (A) (A) (A) (A) (A) (A) (A) (A)
                 (A) (A) (A) (A) (A) (A) (A) (A) (A) (A) (A) (A)
                 (A) (A) (A) (A) (A) (A) (A) (A) (A) (A) (A) (A)
                 (A) (A) (A) (A) (A) (A) (A) (A) (A) (A) (A) (A)
                 (A) (A) (A) (A) (A) (A) (A) (A) (A) (A) (A) (A)
                 (A) (A) (A) (A) (A) (A) (A) (A) (A) (A) (A) (A)
                 (A) (A) (A) (A) (A) (A) (A) (A) (A) (A) (A) (A)
                 (A) (A) (A) (A) (A) (A) (A) (A) (A) (A) (A) (A)
                 (A) (A) (A) (A) (A) (A) (A) (A) (A) (A) (A) (A)
                 (A) (A) (A) (A) (A) (A) (A) (A) (A) (A) (A) (A)
                 (A) (A) (A) (A) (A) (A) (A) (A) (A) (A) (A) (A)
                 (A) (A) (A) (A) (A) (A) (A) (A) (A) (A) (A) (A)
                 (A) (A) (A) (A) (A) (A) (A) (A) (A) (A) (A) (A)
                 (A) (A) (A) (A) (A) (A) (A) (A) (A) (A) (A) (A)
                 (A) (A) (A) (A) (A) (A) (A) (A) (A) (A) (A) (A)
                 (A) (A) (A) (A) (A) (A) (A) (A) (A) (A) (A) (A)
                 (A) (A) (A) (A) (A) (A) (A) (A) (A) (A) (A) (A)
                 (A)
 The electronic state is 1-A.
 Alpha  occ. eigenvalues --  -14.15540 -14.14263 -14.09695 -10.14451 -10.09226
 Alpha  occ. eigenvalues --  -10.09084 -10.08956 -10.08720 -10.08681 -10.07820
 Alpha  occ. eigenvalues --  -10.06971 -10.06850 -10.06765 -10.06762 -10.06687
 Alpha  occ. eigenvalues --  -10.06677 -10.06574 -10.06545 -10.06239 -10.06142
 Alpha  occ. eigenvalues --  -10.05944 -10.05916 -10.05775 -10.05343 -10.05285
 Alpha  occ. eigenvalues --  -10.04635  -1.07617  -0.99634  -0.95453  -0.91141
 Alpha  occ. eigenvalues --   -0.89250  -0.88296  -0.86053  -0.81424  -0.78960
 Alpha  occ. eigenvalues --   -0.78760  -0.78487  -0.77934  -0.76936  -0.74777
 Alpha  occ. eigenvalues --   -0.69966  -0.68214  -0.66115  -0.64983  -0.64808
 Alpha  occ. eigenvalues --   -0.63632  -0.63244  -0.61639  -0.58961  -0.57761
 Alpha  occ. eigenvalues --   -0.56280  -0.55414  -0.54324  -0.52896  -0.52770
 Alpha  occ. eigenvalues --   -0.50888  -0.50870  -0.49754  -0.49106  -0.48923
 Alpha  occ. eigenvalues --   -0.48348  -0.48242  -0.47350  -0.47093  -0.46908
 Alpha  occ. eigenvalues --   -0.45806  -0.45651  -0.45085  -0.43273  -0.42228
 Alpha  occ. eigenvalues --   -0.40832  -0.40719  -0.40224  -0.40111  -0.39295
 Alpha  occ. eigenvalues --   -0.38468  -0.38135  -0.37855  -0.35108  -0.34719
 Alpha  occ. eigenvalues --   -0.30656  -0.30222  -0.29740  -0.29700  -0.27500
 Alpha  occ. eigenvalues --   -0.25591  -0.25538  -0.21728
 Alpha virt. eigenvalues --   -0.04501  -0.00577   0.00670   0.00739   0.01134
 Alpha virt. eigenvalues --    0.04150   0.04221   0.08605   0.09207   0.09748
 Alpha virt. eigenvalues --    0.11110   0.11592   0.12687   0.13460   0.13873
 Alpha virt. eigenvalues --    0.14705   0.15065   0.15617   0.17136   0.17431
 Alpha virt. eigenvalues --    0.18152   0.18366   0.18619   0.18748   0.19191
 Alpha virt. eigenvalues --    0.19991   0.20270   0.20770   0.22174   0.22982
 Alpha virt. eigenvalues --    0.23116   0.24487   0.25305   0.26181   0.26844
 Alpha virt. eigenvalues --    0.27617   0.28385   0.29856   0.29958   0.31426
 Alpha virt. eigenvalues --    0.31517   0.31757   0.32371   0.33003   0.33807
 Alpha virt. eigenvalues --    0.34049   0.34456   0.35572   0.37218   0.37361
 Alpha virt. eigenvalues --    0.38023   0.38558   0.39265   0.39812   0.40789
 Alpha virt. eigenvalues --    0.41217   0.41475   0.42562   0.43117   0.43967
 Alpha virt. eigenvalues --    0.44312   0.44692   0.45333   0.46451   0.46784
 Alpha virt. eigenvalues --    0.47478   0.47652   0.47918   0.48457   0.48701
 Alpha virt. eigenvalues --    0.49088   0.49546   0.50108   0.50461   0.50880
 Alpha virt. eigenvalues --    0.51266   0.52007   0.52213   0.52464   0.53686
 Alpha virt. eigenvalues --    0.54067   0.54410   0.55761   0.56694   0.57164
 Alpha virt. eigenvalues --    0.57858   0.58125   0.58403   0.58995   0.59605
 Alpha virt. eigenvalues --    0.59892   0.61530   0.62007   0.62375   0.62659
 Alpha virt. eigenvalues --    0.63621   0.64475   0.65070   0.66023   0.67029
 Alpha virt. eigenvalues --    0.67312   0.67839   0.68223   0.68500   0.68959
 Alpha virt. eigenvalues --    0.69276   0.69762   0.69804   0.69862   0.70678
 Alpha virt. eigenvalues --    0.71055   0.71130   0.71444   0.71965   0.72295
 Alpha virt. eigenvalues --    0.72615   0.72934   0.73381   0.73494   0.74854
 Alpha virt. eigenvalues --    0.75033   0.75438   0.75703   0.76078   0.76629
 Alpha virt. eigenvalues --    0.77365   0.77832   0.78029   0.78485   0.79373
 Alpha virt. eigenvalues --    0.79768   0.80016   0.80748   0.82532   0.82971
 Alpha virt. eigenvalues --    0.83791   0.84158   0.85906   0.86718   0.88127
 Alpha virt. eigenvalues --    0.88379   0.89713   0.90994   0.92886   0.94821
 Alpha virt. eigenvalues --    0.95397   0.96348   0.97362   0.97782   0.98816
 Alpha virt. eigenvalues --    0.99474   0.99739   1.02337   1.05157   1.07719
 Alpha virt. eigenvalues --    1.08378   1.09175   1.11216   1.12975   1.15111
 Alpha virt. eigenvalues --    1.16476   1.17775   1.19240   1.19535   1.20152
 Alpha virt. eigenvalues --    1.20671   1.21663   1.22743   1.23356   1.23745
 Alpha virt. eigenvalues --    1.24802   1.25363   1.25580   1.25909   1.26508
 Alpha virt. eigenvalues --    1.26788   1.28499   1.28951   1.29061   1.29844
 Alpha virt. eigenvalues --    1.30476   1.30824   1.31101   1.31496   1.31882
 Alpha virt. eigenvalues --    1.34479   1.35711   1.36772   1.38223   1.38291
 Alpha virt. eigenvalues --    1.39481   1.42045   1.42733   1.46788   1.47969
 Alpha virt. eigenvalues --    1.48902   1.51312   1.51857   1.53433   1.54333
 Alpha virt. eigenvalues --    1.57145   1.58793   1.60605   1.61627   1.63790
 Alpha virt. eigenvalues --    1.65641   1.66089   1.66736   1.68594   1.69338
 Alpha virt. eigenvalues --    1.69667   1.70392   1.70895   1.71273   1.71673
 Alpha virt. eigenvalues --    1.72123   1.72638   1.72871   1.73608   1.73816
 Alpha virt. eigenvalues --    1.74314   1.74753   1.74900   1.75726   1.76202
 Alpha virt. eigenvalues --    1.76378   1.77277   1.78006   1.78332   1.79143
 Alpha virt. eigenvalues --    1.79388   1.79851   1.80132   1.80599   1.81594
 Alpha virt. eigenvalues --    1.82471   1.82861   1.83423   1.84529   1.85711
 Alpha virt. eigenvalues --    1.87094   1.87604   1.90737   1.90957   1.91351
 Alpha virt. eigenvalues --    1.92261   1.92657   1.93412   1.94020   1.94440
 Alpha virt. eigenvalues --    1.95224   1.96210   1.96709   1.96963   1.97826
 Alpha virt. eigenvalues --    1.99481   2.00241   2.00838   2.01116   2.01659
 Alpha virt. eigenvalues --    2.03667   2.05000   2.06788   2.07164   2.08394
 Alpha virt. eigenvalues --    2.09080   2.10640   2.11119   2.11423   2.12274
 Alpha virt. eigenvalues --    2.12785   2.13927   2.14835   2.15714   2.16050
 Alpha virt. eigenvalues --    2.17083   2.17631   2.18103   2.18437   2.20931
 Alpha virt. eigenvalues --    2.21116   2.21444   2.21705   2.23178   2.23323
 Alpha virt. eigenvalues --    2.24153   2.25582   2.25950   2.26448   2.27340
 Alpha virt. eigenvalues --    2.27666   2.28653   2.28933   2.30224   2.32160
 Alpha virt. eigenvalues --    2.33706   2.34892   2.35957   2.36573   2.38865
 Alpha virt. eigenvalues --    2.40001   2.41954   2.42369   2.43669   2.45992
 Alpha virt. eigenvalues --    2.46900   2.48376   2.49921   2.50206   2.52231
 Alpha virt. eigenvalues --    2.53238   2.54372   2.54844   2.57411   2.57584
 Alpha virt. eigenvalues --    2.59960   2.60569   2.62462   2.62483   2.66022
 Alpha virt. eigenvalues --    2.66832   2.67403   2.68159   2.69085   2.70306
 Alpha virt. eigenvalues --    2.71214   2.71750   2.71972   2.73225   2.73925
 Alpha virt. eigenvalues --    2.77774   2.77940   2.78674   2.79332   2.81416
 Alpha virt. eigenvalues --    2.81676   2.82002   2.84026   2.85201   2.87826
 Alpha virt. eigenvalues --    2.88565   2.90450   2.92181   2.92713   2.95339
 Alpha virt. eigenvalues --    2.97459   2.99947   3.01488   3.02770   3.05517
 Alpha virt. eigenvalues --    3.09939   3.11404   3.15517   3.16057   3.25015
 Alpha virt. eigenvalues --    3.28207   3.34123   3.48203   3.52162   3.54002
 Alpha virt. eigenvalues --    3.56718
          Condensed to atoms (all electrons):
               1          2          3          4          5          6
     1  N    6.267291  -0.089968   0.562464   0.009133  -0.053650  -0.114714
     2  C   -0.089968   5.666832   0.002065   0.159276   0.298703   0.047257
     3  C    0.562464   0.002065   5.424080   0.087540  -0.105758   0.148026
     4  C    0.009133   0.159276   0.087540   5.279825  -0.108229  -0.157333
     5  C   -0.053650   0.298703  -0.105758  -0.108229   5.371417   0.020801
     6  C   -0.114714   0.047257   0.148026  -0.157333   0.020801   5.311867
     7  C   -0.001436   0.155412  -0.207771   0.225597   0.025351   0.167594
     8  C    0.009356  -0.182396   0.186603   0.134060  -0.000048   0.184830
     9  C   -0.053607   0.041286  -0.072155   0.015398   0.437733   0.000287
    10  C    0.551507  -0.100030  -0.020207   0.003863   0.046952   0.012298
    11  H   -0.000012  -0.054426   0.020661   0.452887  -0.047289  -0.003979
    12  H   -0.005581   0.028528  -0.068825  -0.003383  -0.000276   0.444952
    13  H    0.000011   0.018305  -0.001639  -0.071987  -0.000500   0.015286
    14  H   -0.000085  -0.003136   0.018916   0.017834  -0.000021  -0.075784
    15  H    0.006138   0.020670   0.001127  -0.000347  -0.050189   0.000090
    16  N    0.000544   0.000002  -0.000008  -0.000000   0.000004  -0.000002
    17  N   -0.077522   0.000795   0.002006   0.000041   0.002853   0.000093
    18  C   -0.000058  -0.000004   0.000016  -0.000000   0.000043   0.000000
    19  C    0.000014   0.000000  -0.000000  -0.000000  -0.000000  -0.000000
    20  C   -0.011807  -0.000236   0.001845  -0.000002  -0.000039   0.000278
    21  C    0.000429  -0.000143   0.000081   0.000000   0.001365   0.000016
    22  H   -0.000003  -0.000000   0.000000   0.000000  -0.000000   0.000000
    23  H   -0.000000  -0.000000   0.000000   0.000000   0.000000   0.000000
    24  H   -0.000016  -0.000000  -0.000000   0.000000  -0.000000   0.000000
    25  C    0.000029  -0.000028  -0.000033  -0.000000   0.000668  -0.000001
    26  C    0.000004   0.000000  -0.000000  -0.000000  -0.000001  -0.000000
    27  C    0.000005   0.000001  -0.000000   0.000000  -0.000053  -0.000000
    28  H   -0.000164  -0.000257   0.000033   0.000000   0.002740   0.000000
    29  C   -0.000000  -0.000000   0.000000  -0.000000   0.000001   0.000000
    30  H   -0.000000   0.000000   0.000000   0.000000   0.000000  -0.000000
    31  H    0.000000   0.000000  -0.000000   0.000000  -0.000001  -0.000000
    32  H    0.000000   0.000000  -0.000000  -0.000000   0.000000  -0.000000
    33  C   -0.000458  -0.074804   0.018782  -0.022007   0.295295  -0.000427
    34  C   -0.000002  -0.011220  -0.000611   0.000481  -0.058244   0.000018
    35  C   -0.000000  -0.011551  -0.000608   0.000499  -0.058953   0.000019
    36  C    0.000000   0.000674   0.000027  -0.000352   0.011740  -0.000001
    37  H   -0.000017  -0.000863  -0.000238   0.000305  -0.010686   0.000015
    38  C    0.000000   0.000709   0.000028  -0.000373   0.011777  -0.000001
    39  H   -0.000018  -0.000841  -0.000242   0.000337  -0.010631   0.000015
    40  C   -0.000000  -0.000113  -0.000003   0.000060   0.000329   0.000000
    41  H    0.000000   0.000002  -0.000000  -0.000007  -0.000300   0.000000
    42  H    0.000000   0.000002  -0.000000  -0.000007  -0.000300   0.000000
    43  H    0.000000   0.000001   0.000000  -0.000001   0.000004  -0.000000
               7          8          9         10         11         12
     1  N   -0.001436   0.009356  -0.053607   0.551507  -0.000012  -0.005581
     2  C    0.155412  -0.182396   0.041286  -0.100030  -0.054426   0.028528
     3  C   -0.207771   0.186603  -0.072155  -0.020207   0.020661  -0.068825
     4  C    0.225597   0.134060   0.015398   0.003863   0.452887  -0.003383
     5  C    0.025351  -0.000048   0.437733   0.046952  -0.047289  -0.000276
     6  C    0.167594   0.184830   0.000287   0.012298  -0.003979   0.444952
     7  C    5.181509   0.121208  -0.000789   0.000231  -0.083997   0.017257
     8  C    0.121208   5.212763  -0.000164  -0.000495   0.018014  -0.088324
     9  C   -0.000789  -0.000164   5.055248   0.336219   0.000795   0.000185
    10  C    0.000231  -0.000495   0.336219   4.941187  -0.000266  -0.000080
    11  H   -0.083997   0.018014   0.000795  -0.000266   0.712138   0.000019
    12  H    0.017257  -0.088324   0.000185  -0.000080   0.000019   0.711968
    13  H    0.449546  -0.083538   0.000008  -0.000002  -0.014638  -0.000238
    14  H   -0.085145   0.454730   0.000003   0.000005  -0.000283  -0.015240
    15  H    0.000006  -0.000004   0.412215  -0.072350   0.000001  -0.000006
    16  N   -0.000000   0.000000  -0.000611   0.006806   0.000000  -0.000000
    17  N    0.000000  -0.000002  -0.094351   0.289911  -0.000000  -0.000082
    18  C    0.000000  -0.000000   0.000419   0.005701   0.000000   0.000000
    19  C   -0.000000   0.000000   0.000002   0.000092   0.000000   0.000000
    20  C    0.000000  -0.000001   0.012386  -0.056763  -0.000000   0.000155
    21  C   -0.000000  -0.000000  -0.000995  -0.064366  -0.000000  -0.000000
    22  H   -0.000000  -0.000000  -0.000000  -0.000008  -0.000000  -0.000000
    23  H    0.000000  -0.000000  -0.000000  -0.000002  -0.000000  -0.000000
    24  H    0.000000  -0.000000   0.000002  -0.000049  -0.000000   0.000000
    25  C   -0.000000   0.000000   0.003887  -0.000438   0.000000   0.000000
    26  C   -0.000000   0.000000  -0.000043   0.000289   0.000000   0.000000
    27  C    0.000000  -0.000000   0.000217   0.000386  -0.000000   0.000000
    28  H   -0.000000   0.000000  -0.011290   0.000331  -0.000000  -0.000000
    29  C   -0.000000   0.000000   0.000005  -0.000048  -0.000000   0.000000
    30  H    0.000000   0.000000  -0.000000   0.000003  -0.000000  -0.000000
    31  H    0.000000  -0.000000   0.000003  -0.000010   0.000000  -0.000000
    32  H    0.000000   0.000000   0.000000   0.000000   0.000000  -0.000000
    33  C   -0.001550   0.000211  -0.085412   0.008713   0.019152   0.000008
    34  C    0.000224  -0.000029  -0.008562   0.000359  -0.000839   0.000000
    35  C    0.000227  -0.000030  -0.008335   0.000376  -0.000761   0.000000
    36  C   -0.000019   0.000001   0.000656   0.000012   0.000504  -0.000000
    37  H    0.000008  -0.000004  -0.000244  -0.000187  -0.000043  -0.000000
    38  C   -0.000020   0.000001   0.000622   0.000011   0.000521  -0.000000
    39  H    0.000008  -0.000004  -0.000281  -0.000189  -0.000043  -0.000000
    40  C    0.000003  -0.000000  -0.000008   0.000002   0.000038   0.000000
    41  H   -0.000000   0.000000  -0.000009  -0.000001  -0.000001  -0.000000
    42  H   -0.000000   0.000000  -0.000009  -0.000001  -0.000001  -0.000000
    43  H    0.000000  -0.000000   0.000000   0.000000  -0.000005  -0.000000
              13         14         15         16         17         18
     1  N    0.000011  -0.000085   0.006138   0.000544  -0.077522  -0.000058
     2  C    0.018305  -0.003136   0.020670   0.000002   0.000795  -0.000004
     3  C   -0.001639   0.018916   0.001127  -0.000008   0.002006   0.000016
     4  C   -0.071987   0.017834  -0.000347  -0.000000   0.000041  -0.000000
     5  C   -0.000500  -0.000021  -0.050189   0.000004   0.002853   0.000043
     6  C    0.015286  -0.075784   0.000090  -0.000002   0.000093   0.000000
     7  C    0.449546  -0.085145   0.000006  -0.000000   0.000000   0.000000
     8  C   -0.083538   0.454730  -0.000004   0.000000  -0.000002  -0.000000
     9  C    0.000008   0.000003   0.412215  -0.000611  -0.094351   0.000419
    10  C   -0.000002   0.000005  -0.072350   0.006806   0.289911   0.005701
    11  H   -0.014638  -0.000283   0.000001   0.000000  -0.000000   0.000000
    12  H   -0.000238  -0.015240  -0.000006  -0.000000  -0.000082   0.000000
    13  H    0.722363  -0.014110  -0.000000  -0.000000   0.000000   0.000000
    14  H   -0.014110   0.715095   0.000000  -0.000000   0.000000  -0.000000
    15  H   -0.000000   0.000000   0.782455  -0.000095  -0.007276   0.000312
    16  N   -0.000000  -0.000000  -0.000095   6.573553  -0.013889   0.291332
    17  N    0.000000   0.000000  -0.007276  -0.013889   6.513491  -0.141487
    18  C    0.000000  -0.000000   0.000312   0.291332  -0.141487   5.450922
    19  C   -0.000000  -0.000000  -0.000001   0.364813   0.004279  -0.059553
    20  C   -0.000000  -0.000000   0.000315   0.215076   0.312242  -0.017546
    21  C   -0.000000   0.000000   0.005638  -0.116733   0.388316   0.207800
    22  H   -0.000000   0.000000  -0.000000  -0.031298  -0.000017   0.002492
    23  H    0.000000   0.000000   0.000000  -0.023775  -0.000315  -0.007979
    24  H   -0.000000  -0.000000   0.000000  -0.022284  -0.000286   0.008438
    25  C    0.000000  -0.000000  -0.012877   0.021780  -0.063183   0.105400
    26  C   -0.000000   0.000000   0.000009  -0.055782   0.008761   0.163440
    27  C   -0.000000   0.000000   0.001588  -0.000766   0.007053  -0.188779
    28  H   -0.000000  -0.000000  -0.020313  -0.000055  -0.012852   0.022510
    29  C    0.000000  -0.000000  -0.000168   0.005740  -0.001176   0.182643
    30  H    0.000000  -0.000000   0.000000  -0.009486   0.000006  -0.093225
    31  H   -0.000000   0.000000   0.000306   0.000006  -0.000038  -0.002815
    32  H   -0.000000   0.000000   0.000001  -0.000042   0.000005   0.014967
    33  C   -0.000020  -0.000001  -0.012520  -0.000000  -0.000202   0.000000
    34  C    0.000010  -0.000000   0.001234   0.000000   0.000001  -0.000000
    35  C    0.000011  -0.000000   0.001173   0.000000  -0.000000   0.000000
    36  C   -0.000001   0.000000  -0.000182   0.000000  -0.000000  -0.000000
    37  H    0.000000  -0.000000   0.000451  -0.000000   0.000001  -0.000000
    38  C   -0.000001   0.000000  -0.000176   0.000000  -0.000000  -0.000000
    39  H    0.000000  -0.000000   0.000441  -0.000000   0.000001  -0.000000
    40  C    0.000000  -0.000000  -0.000065   0.000000   0.000000  -0.000000
    41  H   -0.000000   0.000000   0.000003  -0.000000   0.000000  -0.000000
    42  H   -0.000000   0.000000   0.000003   0.000000   0.000000   0.000000
    43  H    0.000000  -0.000000  -0.000002   0.000000  -0.000000   0.000000
              19         20         21         22         23         24
     1  N    0.000014  -0.011807   0.000429  -0.000003  -0.000000  -0.000016
     2  C    0.000000  -0.000236  -0.000143  -0.000000  -0.000000  -0.000000
     3  C   -0.000000   0.001845   0.000081   0.000000   0.000000  -0.000000
     4  C   -0.000000  -0.000002   0.000000   0.000000   0.000000   0.000000
     5  C   -0.000000  -0.000039   0.001365  -0.000000   0.000000  -0.000000
     6  C   -0.000000   0.000278   0.000016   0.000000   0.000000   0.000000
     7  C   -0.000000   0.000000  -0.000000  -0.000000   0.000000   0.000000
     8  C    0.000000  -0.000001  -0.000000  -0.000000  -0.000000  -0.000000
     9  C    0.000002   0.012386  -0.000995  -0.000000  -0.000000   0.000002
    10  C    0.000092  -0.056763  -0.064366  -0.000008  -0.000002  -0.000049
    11  H    0.000000  -0.000000  -0.000000  -0.000000  -0.000000  -0.000000
    12  H    0.000000   0.000155  -0.000000  -0.000000  -0.000000   0.000000
    13  H   -0.000000  -0.000000  -0.000000  -0.000000   0.000000  -0.000000
    14  H   -0.000000  -0.000000   0.000000   0.000000   0.000000  -0.000000
    15  H   -0.000001   0.000315   0.005638  -0.000000   0.000000   0.000000
    16  N    0.364813   0.215076  -0.116733  -0.031298  -0.023775  -0.022284
    17  N    0.004279   0.312242   0.388316  -0.000017  -0.000315  -0.000286
    18  C   -0.059553  -0.017546   0.207800   0.002492  -0.007979   0.008438
    19  C    4.420824  -0.068048   0.011864   0.401765   0.385810   0.383565
    20  C   -0.068048   5.734469  -0.053506   0.001072   0.007164   0.014537
    21  C    0.011864  -0.053506   5.431847  -0.000285   0.001104  -0.000556
    22  H    0.401765   0.001072  -0.000285   0.629111  -0.026578  -0.015340
    23  H    0.385810   0.007164   0.001104  -0.026578   0.650669  -0.015613
    24  H    0.383565   0.014537  -0.000556  -0.015340  -0.015613   0.599451
    25  C   -0.000054   0.000051   0.040786  -0.000007  -0.000127  -0.000029
    26  C   -0.001581  -0.000115   0.108426   0.000379   0.003323  -0.000177
    27  C   -0.000016   0.000346   0.171132  -0.000003   0.000007   0.000003
    28  H    0.000016  -0.000891  -0.107976  -0.000001  -0.000000  -0.000001
    29  C    0.000019   0.000410  -0.194042  -0.000001   0.000414   0.000001
    30  H    0.002379  -0.000410   0.018683  -0.000116   0.002457  -0.000105
    31  H   -0.000000   0.000006   0.020212  -0.000000  -0.000000  -0.000000
    32  H   -0.000009   0.000004  -0.002126  -0.000000   0.000007  -0.000000
    33  C    0.000000   0.000009  -0.000008  -0.000000  -0.000000   0.000000
    34  C   -0.000000  -0.000000   0.000001   0.000000  -0.000000  -0.000000
    35  C   -0.000000  -0.000000   0.000000  -0.000000   0.000000   0.000000
    36  C    0.000000   0.000000  -0.000000  -0.000000  -0.000000   0.000000
    37  H   -0.000000  -0.000000   0.000001  -0.000000   0.000000   0.000000
    38  C    0.000000   0.000000  -0.000000   0.000000  -0.000000  -0.000000
    39  H   -0.000000  -0.000000   0.000001   0.000000   0.000000  -0.000000
    40  C   -0.000000  -0.000000  -0.000000   0.000000   0.000000  -0.000000
    41  H   -0.000000  -0.000000   0.000000  -0.000000   0.000000  -0.000000
    42  H   -0.000000  -0.000000   0.000000   0.000000  -0.000000  -0.000000
    43  H    0.000000   0.000000  -0.000000  -0.000000   0.000000   0.000000
              25         26         27         28         29         30
     1  N    0.000029   0.000004   0.000005  -0.000164  -0.000000  -0.000000
     2  C   -0.000028   0.000000   0.000001  -0.000257  -0.000000   0.000000
     3  C   -0.000033  -0.000000  -0.000000   0.000033   0.000000   0.000000
     4  C   -0.000000  -0.000000   0.000000   0.000000  -0.000000   0.000000
     5  C    0.000668  -0.000001  -0.000053   0.002740   0.000001   0.000000
     6  C   -0.000001  -0.000000  -0.000000   0.000000   0.000000  -0.000000
     7  C   -0.000000  -0.000000   0.000000  -0.000000  -0.000000   0.000000
     8  C    0.000000   0.000000  -0.000000   0.000000   0.000000   0.000000
     9  C    0.003887  -0.000043   0.000217  -0.011290   0.000005  -0.000000
    10  C   -0.000438   0.000289   0.000386   0.000331  -0.000048   0.000003
    11  H    0.000000   0.000000  -0.000000  -0.000000  -0.000000  -0.000000
    12  H    0.000000   0.000000   0.000000  -0.000000   0.000000  -0.000000
    13  H    0.000000  -0.000000  -0.000000  -0.000000   0.000000   0.000000
    14  H   -0.000000   0.000000   0.000000  -0.000000  -0.000000  -0.000000
    15  H   -0.012877   0.000009   0.001588  -0.020313  -0.000168   0.000000
    16  N    0.021780  -0.055782  -0.000766  -0.000055   0.005740  -0.009486
    17  N   -0.063183   0.008761   0.007053  -0.012852  -0.001176   0.000006
    18  C    0.105400   0.163440  -0.188779   0.022510   0.182643  -0.093225
    19  C   -0.000054  -0.001581  -0.000016   0.000016   0.000019   0.002379
    20  C    0.000051  -0.000115   0.000346  -0.000891   0.000410  -0.000410
    21  C    0.040786   0.108426   0.171132  -0.107976  -0.194042   0.018683
    22  H   -0.000007   0.000379  -0.000003  -0.000001  -0.000001  -0.000116
    23  H   -0.000127   0.003323   0.000007  -0.000000   0.000414   0.002457
    24  H   -0.000029  -0.000177   0.000003  -0.000001   0.000001  -0.000105
    25  C    5.379818  -0.154823   0.207283   0.474621   0.152658  -0.003743
    26  C   -0.154823   5.191290   0.120266  -0.002883   0.232232   0.461643
    27  C    0.207283   0.120266   5.154171  -0.077183   0.178648   0.017885
    28  H    0.474621  -0.002883  -0.077183   0.769855   0.018911   0.000000
    29  C    0.152658   0.232232   0.178648   0.018911   5.135520  -0.074658
    30  H   -0.003743   0.461643   0.017885   0.000000  -0.074658   0.724782
    31  H   -0.074001   0.016859   0.449845  -0.018789  -0.082838  -0.000256
    32  H    0.016808  -0.072474  -0.075147  -0.000280   0.444316  -0.014418
    33  C    0.000008  -0.000000  -0.000003   0.000429   0.000000   0.000000
    34  C   -0.000005   0.000000  -0.000001  -0.000033   0.000000   0.000000
    35  C   -0.000004   0.000000  -0.000001  -0.000032   0.000000   0.000000
    36  C   -0.000000   0.000000   0.000000   0.000004  -0.000000  -0.000000
    37  H   -0.000000  -0.000000  -0.000000  -0.000012   0.000000   0.000000
    38  C   -0.000000   0.000000   0.000000   0.000003  -0.000000  -0.000000
    39  H   -0.000000   0.000000  -0.000000  -0.000012   0.000000   0.000000
    40  C    0.000000   0.000000   0.000000   0.000001   0.000000   0.000000
    41  H   -0.000000   0.000000  -0.000000   0.000000  -0.000000   0.000000
    42  H   -0.000000  -0.000000  -0.000000   0.000000  -0.000000   0.000000
    43  H   -0.000000  -0.000000   0.000000   0.000000   0.000000  -0.000000
              31         32         33         34         35         36
     1  N    0.000000   0.000000  -0.000458  -0.000002  -0.000000   0.000000
     2  C    0.000000   0.000000  -0.074804  -0.011220  -0.011551   0.000674
     3  C   -0.000000  -0.000000   0.018782  -0.000611  -0.000608   0.000027
     4  C    0.000000  -0.000000  -0.022007   0.000481   0.000499  -0.000352
     5  C   -0.000001   0.000000   0.295295  -0.058244  -0.058953   0.011740
     6  C   -0.000000  -0.000000  -0.000427   0.000018   0.000019  -0.000001
     7  C    0.000000   0.000000  -0.001550   0.000224   0.000227  -0.000019
     8  C   -0.000000   0.000000   0.000211  -0.000029  -0.000030   0.000001
     9  C    0.000003   0.000000  -0.085412  -0.008562  -0.008335   0.000656
    10  C   -0.000010   0.000000   0.008713   0.000359   0.000376   0.000012
    11  H    0.000000   0.000000   0.019152  -0.000839  -0.000761   0.000504
    12  H   -0.000000  -0.000000   0.000008   0.000000   0.000000  -0.000000
    13  H   -0.000000  -0.000000  -0.000020   0.000010   0.000011  -0.000001
    14  H    0.000000   0.000000  -0.000001  -0.000000  -0.000000   0.000000
    15  H    0.000306   0.000001  -0.012520   0.001234   0.001173  -0.000182
    16  N    0.000006  -0.000042  -0.000000   0.000000   0.000000   0.000000
    17  N   -0.000038   0.000005  -0.000202   0.000001  -0.000000  -0.000000
    18  C   -0.002815   0.014967   0.000000  -0.000000   0.000000  -0.000000
    19  C   -0.000000  -0.000009   0.000000  -0.000000  -0.000000   0.000000
    20  C    0.000006   0.000004   0.000009  -0.000000  -0.000000   0.000000
    21  C    0.020212  -0.002126  -0.000008   0.000001   0.000000  -0.000000
    22  H   -0.000000  -0.000000  -0.000000   0.000000  -0.000000  -0.000000
    23  H   -0.000000   0.000007  -0.000000  -0.000000   0.000000  -0.000000
    24  H   -0.000000  -0.000000   0.000000  -0.000000   0.000000   0.000000
    25  C   -0.074001   0.016808   0.000008  -0.000005  -0.000004  -0.000000
    26  C    0.016859  -0.072474  -0.000000   0.000000   0.000000   0.000000
    27  C    0.449845  -0.075147  -0.000003  -0.000001  -0.000001   0.000000
    28  H   -0.018789  -0.000280   0.000429  -0.000033  -0.000032   0.000004
    29  C   -0.082838   0.444316   0.000000   0.000000   0.000000  -0.000000
    30  H   -0.000256  -0.014418   0.000000   0.000000   0.000000  -0.000000
    31  H    0.724023  -0.013573  -0.000001  -0.000000  -0.000000   0.000000
    32  H   -0.013573   0.713426  -0.000000  -0.000000   0.000000  -0.000000
    33  C   -0.000001  -0.000000   5.497688   0.225334   0.224971   0.142361
    34  C   -0.000000  -0.000000   0.225334   5.096768   0.103509   0.243751
    35  C   -0.000000   0.000000   0.224971   0.103509   5.097933  -0.167292
    36  C    0.000000  -0.000000   0.142361   0.243751  -0.167292   5.091073
    37  H    0.000000   0.000000  -0.077686   0.450445   0.015927  -0.070199
    38  C    0.000000  -0.000000   0.142546  -0.167357   0.243571   0.130065
    39  H    0.000000   0.000000  -0.077808   0.015896   0.450552  -0.002452
    40  C   -0.000000  -0.000000  -0.190663   0.127219   0.127302   0.220886
    41  H    0.000000   0.000000   0.017650  -0.074903  -0.002370   0.446513
    42  H   -0.000000   0.000000   0.017658  -0.002369  -0.074858   0.015667
[...]
 00000265,0.00000363,-0.00000185,-0.00000150,0.00000079,-0.00000575,-0.
 00000041,0.00000620,-0.00000202,-0.00000018,0.00000185,0.01227037,-0.0
 1161545,-0.00449896,0.00459569,0.00312470,0.00163130,0.11099206,-0.077
 10269,-0.12432207,-0.00049637,0.00062652,-0.00056021,0.00068432,-0.000
 53310,-0.00025768,-0.00316030,0.00455845,0.00649160,-0.12199007,0.0800
 1648,0.12243187,-0.00012856,-0.00004045,-0.00017730,0.00001228,-0.0002
 8503,-0.00036843,0.00011356,0.00020363,-0.00002463,-0.00050462,0.00013
 450,-0.00003986,-0.00126493,0.00011839,0.00037589,-0.00007335,0.000016
 27,-0.00001232,0.00009785,0.00005217,0.00003639,0.00000829,0.00006803,
 0.00008131,-0.00004952,-0.00016529,-0.00029352,0.00003827,-0.00036327,
 0.00039630,0.00009518,0.00028310,0.00005540,0.00000183,-0.00000012,0.0
 0001502,0.00000680,-0.00000314,-0.00005448,-0.00000136,0.00002021,-0.0
 0000569,0.00029495,0.00006332,-0.00024766,0.00002560,0.00000531,-0.000
 00569,0.00004557,0.00003470,0.00003047,0.00000235,0.00001128,0.0000074
 6,-0.00000189,-0.00000311,-0.00000513,-0.00000874,-0.00002748,-0.00000
 512,-0.00002407,0.00000752,0.00000216,0.00000211,0.00000071,0.00000110
 ,0.00000058,0.00000135,0.00000081,-0.00000091,-0.00000003,-0.00000055,
 0.00000270,-0.00000688,-0.00000716,0.00000130,-0.00000035,0.00000026,0
 .00000083,0.00000480,0.00000494,-0.00000750,-0.00001159,0.00001005,0.0
 0000504,-0.00000205,-0.00000094,0.00000033,0.00000098,-0.00000051,-0.0
 0000028,0.00000025,-0.00000313,0.00000175,0.00000125,-0.00000051,-0.04
 789398,0.00080530,0.03468501,0.03317793,-0.06040922,-0.00671796,0.0190
 5123,0.06452107,-0.02286541,-0.18992696,-0.03281887,0.11438545,0.00392
 461,0.00194017,0.00259143,-0.21371202,0.06343047,0.11556322,0.00405455
 ,0.00041778,0.00268209,0.45793883,-0.00002767,-0.00014860,-0.00002991,
 -0.00044221,0.00001135,0.00021324,-0.00008118,0.00004972,-0.00001647,0
 .00008844,-0.00022233,-0.00002538,-0.00033697,-0.00045385,-0.00054167,
 0.00005526,0.00001448,0.00001274,-0.00001077,0.00011324,-0.00000477,-0
 .00001050,-0.00004233,-0.00002702,0.00052847,-0.00038578,-0.00010169,0
 .00020532,0.00029482,0.00026226,-0.00001744,-0.00008440,0.00004115,0.0
 0000760,-0.00000746,-0.00000758,0.00002729,-0.00000959,0.00003370,0.00
 001171,-0.00000248,0.00000373,0.00004554,-0.00000657,-0.00004192,-0.00
 012467,-0.00002472,0.00002045,-0.00012872,-0.00016803,-0.00004757,-0.0
 0001551,-0.00005040,-0.00002659,0.00000579,0.00002519,0.00001998,0.000
 04015,0.00010792,0.00004495,0.00013163,-0.00003460,-0.00005684,-0.0000
 0815,-0.00000461,-0.00000517,-0.00000437,-0.00000737,-0.00000163,0.000
 00425,0.00000156,0.00000130,-0.00000879,0.00003271,0.00002650,-0.00000
 108,0.00000317,0.00000032,0.00000492,-0.00001809,-0.00002253,0.0000340
 4,-0.00000243,-0.00002377,-0.00002691,0.00000496,0.00000627,-0.0000029
 6,-0.00000212,0.00000102,-0.00001064,-0.00000099,0.00001388,-0.0000062
 0,-0.00000348,0.00000177,0.00115813,0.00183337,-0.00273695,-0.01800607
 ,-0.02020003,0.02309723,0.02200095,-0.02759696,-0.01191531,-0.08959559
 ,-0.17649623,0.10339111,0.00140515,-0.00487369,0.00127684,0.11984825,-
 0.18987759,-0.07999849,0.00087334,-0.00464967,0.00203733,-0.06413956,0
 .74451232,0.00010856,0.00008319,0.00011887,0.00016193,0.00041510,0.000
 17973,-0.00012846,-0.00014581,0.00009638,0.00060332,-0.00004632,0.0002
 6324,0.00038361,-0.00016155,-0.00112363,0.00007244,-0.00001091,0.00001
 390,-0.00012841,-0.00009840,-0.00004078,-0.00000075,-0.00007043,-0.000
 09923,-0.00000718,0.00019961,0.00042814,-0.00017553,0.00019522,-0.0003
 7970,-0.00010498,-0.00044774,0.00000652,-0.00000839,0.00000422,-0.0000
 0564,-0.00000943,0.00000382,0.00005670,-0.00000127,-0.00002508,0.00000
 414,-0.00034215,-0.00004200,0.00020195,0.00001766,0.00000239,-0.000000
 96,0.00000463,0.00000937,-0.00001155,0.00000163,0.00000502,0.00000303,
 -0.00000135,-0.00000308,-0.00000336,-0.00000700,-0.00001189,-0.0000068
 8,-0.00001652,0.00000632,0.00001497,0.00000165,0.00000093,0.00000074,0
 .00000054,0.00000078,0.00000073,-0.00000055,0.00000017,-0.00000029,-0.
 00000649,-0.00000007,-0.00000442,0.00000093,-0.00000026,0.00000106,-0.
 00000147,-0.00000285,0.00000390,0.00000052,-0.00000334,0.00000982,0.00
 000528,-0.00000034,0.00000178,0.00000049,0.00000078,-0.00000089,0.0000
 0193,0.00000118,-0.00000423,0.00000027,0.00000113,-0.00000162,0.035310
 99,-0.00289573,-0.03860187,-0.01695490,0.06065192,0.01081057,-0.013575
 06,-0.04926287,0.03285081,0.12687823,0.05248293,-0.19357612,0.00247801
 ,0.00081270,0.00449033,0.10197616,-0.02900821,-0.15465962,0.00267927,0
 .00240796,0.00419696,-0.26499584,-0.07685066,0.39683697,-0.00002104,0.
 00005258,-0.00001050,0.00007446,0.00004337,0.00004131,-0.00000119,0.00
 000393,0.00000528,-0.00000304,-0.00003922,-0.00002057,-0.00003410,-0.0
 0018454,0.00015590,0.00000610,-0.00000027,-0.00000391,-0.00001112,0.00
 000971,0.00000101,-0.00000651,-0.00001179,0.00000601,0.00000239,0.0000
 9187,-0.00008695,-0.00002937,-0.00011166,0.00001083,0.00000232,0.00001
 379,-0.00000273,-0.00000042,0.00000190,-0.00000244,-0.00000516,-0.0000
 0034,-0.00000133,-0.00000376,0.00000256,-0.00000127,0.00000511,-0.0000
 4846,-0.00000600,0.00002792,0.00001086,-0.00000105,0.00002244,0.000043
 12,0.00001125,0.00000534,0.00000610,0.00000355,-0.00000447,-0.00001212
 ,-0.00000616,-0.00001279,-0.00002306,-0.00001320,-0.00002029,0.0000059
 6,0.00000893,0.00000219,0.00000100,0.00000135,0.00000240,0.00000267,-0
 .00000073,-0.00000159,-0.00000083,0.00000034,-0.00000056,-0.00000375,-
 0.00001206,0.00000008,0.00000033,-0.00000059,-0.00000350,0.00000775,-0
 .00000016,0.00000020,-0.00000314,0.00001283,0.00000150,0.00000041,-0.0
 0000243,0.00000101,0.00000082,0.00000119,0.00000031,-0.00000326,0.0000
 0345,0.00000242,-0.00000051,0.00000076,0.00405627,0.00067830,0.0024376
 7,0.00275160,-0.00124761,0.00212406,-0.00009217,-0.00071328,-0.0004793
 7,-0.19090749,0.10777057,0.11065287,-0.00154987,-0.00038546,-0.0024342
 2,0.00175085,-0.00186069,0.00510575,-0.00045226,-0.00006908,-0.0004618
 8,-0.00687134,0.01162060,0.00791525,0.19308216,-0.00005512,-0.00008472
 ,-0.00002014,-0.00010317,-0.00036554,0.00003507,0.00007842,0.00003159,
 0.00008514,-0.00002010,-0.00001931,-0.00002046,0.00102720,0.00005164,-
 0.00064009,-0.00001497,-0.00002469,-0.00001029,0.00002120,-0.00000475,
 0.00000297,0.00000525,0.00001449,0.00000083,-0.00003350,-0.00014535,0.
 00005615,0.00013243,0.00017637,0.00005488,-0.00001346,0.00000206,-0.00
 000337,0.00000783,-0.00000846,0.00000338,0.00000942,-0.00000096,0.0000
 0163,0.00000580,-0.00000276,0.00000194,0.00000864,-0.00000144,-0.00004
 021,-0.00008288,-0.00000198,0.00002412,-0.00009944,-0.00009244,-0.0000
 1562,-0.00000799,-0.00004212,-0.00002502,-0.00000290,0.00000605,0.0000
 0763,0.00002160,0.00006095,0.00002845,0.00011996,-0.00001776,-0.000042
 64,-0.00000187,-0.00000199,-0.00000330,-0.00000061,-0.00000379,-0.0000
 0084,0.00000150,0.00000182,0.00000096,-0.00002518,0.00001188,0.0000084
 2,0.00000310,0.00000649,0.00000230,0.00000335,-0.00000797,-0.00001530,
 0.00003180,-0.00001150,-0.00001279,-0.00002223,0.00000520,0.00000604,-
 0.00000100,0.00000068,0.00000140,-0.00001503,-0.00000426,0.00001519,-0
 .00000233,-0.00000185,0.00000141,0.00030620,-0.00473301,0.00201706,0.0
 2136723,-0.00948695,-0.01582648,-0.00071468,-0.00063357,0.00063475,0.1
 0765990,-0.13570896,-0.07473451,-0.00080717,0.00101562,-0.00053476,-0.
 00134941,-0.00038187,0.00281934,-0.00005859,-0.00000293,-0.00016904,-0
 .01115822,0.01088145,0.00859505,-0.11559861,0.13860696,-0.00004250,-0.
 00000008,-0.00000736,0.00002984,-0.00001120,-0.00003084,0.00000429,0.0
 0002913,-0.00000037,-0.00001298,-0.00003116,-0.00000314,-0.00017431,0.
 00013479,0.00027757,0.00000888,-0.00000322,-0.00000054,-0.00001674,0.0
 0000829,0.00000371,-0.00000796,-0.00001015,0.00000819,0.00001689,-0.00
 004257,-0.00010465,0.00004991,-0.00000202,0.00002515,-0.00001658,0.000
 02272,-0.00002728,0.00000071,-0.00000126,-0.00000394,-0.00000099,0.000
 00145,-0.00000373,0.00000089,-0.00000132,-0.00000157,0.00003193,-0.000
 04962,0.00000060,-0.00002284,-0.00000371,0.00000384,-0.00002665,-0.000
 02358,-0.00000686,-0.00000219,-0.00001109,-0.00000671,0.00000249,0.000
 00294,0.00000469,0.00000803,0.00001872,0.00000587,0.00001666,-0.000010
 05,-0.00000826,-0.00000196,-0.00000075,-0.00000125,-0.00000046,-0.0000
 0101,-0.00000062,0.00000073,0.00000003,0.00000027,0.00000977,0.0000095
 2,0.00000174,-0.00000136,-0.00000054,-0.00000235,-0.00000509,0.0000033
 0,-0.00000516,0.00000156,0.00000474,0.00000158,-0.00000427,0.00000218,
 -0.00000203,-0.00000012,-0.00000165,0.00000071,0.00000311,-0.00000099,
 0.00000643,-0.00000124,-0.00000205,0.00000232,0.00269282,0.00215551,0.
 00427559,-0.00284780,0.00432562,0.00633182,-0.00051470,0.00057193,-0.0
 0049115,0.11076702,-0.07470995,-0.12222069,-0.00237896,-0.00085293,-0.
 00210483,0.00500389,0.00310985,0.00187482,-0.00047181,-0.00017712,-0.0
 0053392,0.01272353,-0.01165872,-0.00391167,-0.12270890,0.07831354,0.11
 878176,-0.00002358,-0.00003179,-0.00001584,0.00002599,-0.00005154,-0.0
 0000178,0.00001824,0.00001158,0.00000157,-0.00003700,0.00003973,-0.000
 04104,0.00017513,0.00027161,-0.00008300,-0.00001644,-0.00000264,-0.000
 00292,0.00001542,-0.00002992,0.00000141,0.00000662,0.00002168,0.000005
 13,0.00000211,0.00003371,0.00000094,0.00003433,0.00007058,0.00006215,0
 .00000285,0.00001227,-0.00001054,-0.00000018,-0.00000213,0.00000058,-0
 .00000261,0.00000322,-0.00000481,0.00000223,-0.00000255,0.00000135,-0.
 00000187,0.00002280,-0.00002415,-0.00002287,-0.00001165,-0.00000081,-0
 .00002064,-0.00003365,-0.00002097,-0.00000433,-0.00000420,-0.00000080,
 0.00000529,0.00000960,0.00000769,0.00000929,0.00002642,0.00000620,0.00
 001213,-0.00000972,-0.00000575,-0.00000363,-0.00000108,-0.00000110,-0.
 00000180,-0.00000194,-0.00000062,0.00000166,-0.00000026,0.00000040,0.0
 0000366,0.00000601,0.00000602,-0.00000179,-0.00000068,-0.00000111,0.00
 000121,-0.00000215,-0.00000215,-0.00000020,0.00000201,-0.00000491,-0.0
 0000187,-0.00000005,-0.00000064,-0.00000087,-0.00000172,0.00000005,0.0
 0000194,0.00000086,-0.00000015,-0.00000160,-0.00000055,0.00000078,0.00
 378466,0.00154382,0.00258958,-0.00031310,0.00051527,-0.00057822,0.0057
 8200,0.00380416,-0.00184169,0.00095101,0.00369322,0.00455433,-0.000414
 59,-0.00015477,-0.00044982,-0.15646730,-0.07999547,0.12422993,-0.00161
 615,-0.00078482,-0.00235309,-0.00681192,-0.01141313,0.01318415,-0.0004
 4104,-0.00050539,0.00055433,0.15662780,-0.00001320,-0.00008988,0.00002
 037,-0.00003037,-0.00008829,-0.00008876,0.00000680,0.00003400,-0.00001
 242,-0.00000460,-0.00004031,-0.00000213,-0.00093968,0.00017716,0.00080
 696,-0.00000600,0.00000250,-0.00000202,0.00003359,-0.00000953,-0.00000
 957,0.00001885,0.00001315,0.00000989,0.00006938,-0.00037324,0.00001680
 ,0.00003542,0.00013543,-0.00009630,-0.00004674,0.00001780,0.00002018,0
 .00000364,-0.00000566,0.00000058,0.00001765,-0.00000451,0.00000880,0.0
 0000539,-0.00000182,0.00000400,-0.00001149,0.00002129,0.00002839,-0.00
 005171,-0.00001697,-0.00000022,-0.00004300,-0.00010158,-0.00001222,-0.
 00000637,-0.00001383,-0.00000548,0.00000513,0.00001668,0.00001103,0.00
 001857,0.00004529,0.00002448,0.00004495,-0.00001515,-0.00002175,-0.000
 00496,-0.00000240,-0.00000216,-0.00000289,-0.00000359,-0.00000071,0.00
 000241,0.00000011,0.00000056,-0.00000775,0.00000817,0.00001308,-0.0000
 0259,0.00000083,0.00000091,0.00000567,-0.00000584,-0.00000463,0.000004
 15,-0.00000595,-0.00001139,-0.00000770,-0.00000133,0.00000008,-0.00000
 179,-0.00000153,-0.00000006,-0.00000126,0.00000082,0.00000213,-0.00000
 267,-0.00000057,0.00000040,0.00192560,-0.00487486,0.00121845,0.0006331
 3,-0.00081357,-0.00061059,-0.01866663,-0.00795010,0.01996945,0.0031874
 4,-0.00074511,-0.00103124,-0.00016220,-0.00000249,-0.00008396,-0.07960
 648,-0.11841005,0.09021186,-0.00040561,0.00102631,-0.00082297,0.010997
 89,0.01089360,-0.01134048,0.00051907,0.00036093,-0.00049777,0.08350132
 ,0.12023285,-0.00002277,0.00003142,-0.00002020,0.00008413,0.00001888,-
 0.00003956,0.00001963,-0.00001620,-0.00000314,-0.00007365,0.00008424,-
 0.00005188,0.00018528,-0.00002283,0.00007887,-0.00002773,-0.00000323,-
 0.00000484,0.00002687,-0.00003459,0.00000410,0.00000297,0.00002608,0.0
 0001051,-0.00001862,0.00014725,-0.00007220,-0.00002425,-0.00005002,0.0
 0004471,0.00004406,0.00002809,0.00000152,-0.00000191,0.00000147,0.0000
 0055,-0.00001337,0.00000669,-0.00001178,-0.00000270,0.00000108,-0.0000
 0041,-0.00001328,0.00001068,-0.00003264,0.00001818,0.00000862,0.000001
 48,0.00000898,0.00003326,0.00000561,0.00000325,0.00000265,0.00000127,-
 0.00000373,-0.00000983,-0.00000458,-0.00000935,-0.00001247,-0.00001080
 ,-0.00000834,0.00000384,0.00000632,0.00000162,0.00000076,0.00000099,0.
 00000195,0.00000188,-0.00000077,-0.00000119,-0.00000068,0.00000042,-0.
 00000171,-0.00000407,-0.00000633,0.00000057,0.00000051,-0.00000047,-0.
 00000185,0.00000436,0.00000064,-0.00000029,-0.00000033,0.00000528,0.00
 000082,0.00000075,-0.00000080,0.00000081,0.00000074,0.00000093,-0.0000
 0097,-0.00000164,0.00000123,0.00000175,-0.00000018,0.00000028,0.002394
 60,0.00101843,0.00466591,-0.00060750,-0.00072820,-0.00010771,0.0034746
 0,-0.00015185,0.00157744,0.00471546,-0.00125965,0.00289784,-0.00042127
 ,-0.00007121,-0.00054222,0.12458542,0.09011044,-0.17385899,-0.00248255
 ,-0.00055431,-0.00204708,0.00742638,0.00905643,-0.00405611,0.00035278,
 0.00038996,-0.00030780,-0.13711895,-0.09747930,0.17373714,0.00009505,-
 0.00000446,0.00001497,-0.00006938,0.00010245,-0.00002006,-0.00007387,-
 0.00007947,0.00002285,0.00004799,0.00001465,-0.00000272,-0.00032154,-0
 .00016062,-0.00046895,0.00001929,0.00000563,-0.00000656,0.00000531,0.0
 0002770,-0.00000284,-0.00001261,-0.00001274,-0.00000237,0.00001899,-0.
 00014809,-0.00003845,-0.00005671,0.00011391,0.00001386,0.00002935,-0.0
 0000106,0.00002591,-0.00000173,0.00000139,-0.00000097,-0.00000466,0.00
 000192,0.00000288,-0.00000068,0.00000169,0.00000053,-0.00000078,0.0000
 0789,0.00001541,-0.00000364,-0.00000286,-0.00000192,0.00000034,-0.0000
 1214,-0.00001076,0.00000208,-0.00000110,-0.00000064,0.00000102,0.00000
 016,0.00000159,0.00000032,0.00000679,0.00000105,-0.00000353,-0.0000021
 8,0.00000166,-0.00000093,-0.00000030,-0.00000025,-0.00000003,-0.000000
 09,-0.00000057,0.00000006,-0.00000047,0.00000018,0.00000892,0.00000689
 ,-0.00000039,-0.00000222,-0.00000095,-0.00000105,-0.00000015,-0.000001
 52,-0.00000372,0.00000585,0.00000864,0.00000014,-0.00000131,0.00000063
 ,-0.00000121,0.,-0.00000081,0.00000047,0.00000167,-0.00000035,0.000001
 83,-0.00000085,-0.00000141,0.00000075,-0.00100965,-0.00010906,0.000082
 08,0.00101607,-0.00087953,0.00561899,0.00033790,0.00247381,0.00542396,
 0.00605642,-0.01872443,0.00301378,0.00013044,-0.00080351,0.00013367,0.
 00308090,0.02109842,-0.00332578,-0.00000658,0.00092034,-0.00016567,-0.
 05162238,0.02632228,0.00467829,-0.00132401,-0.00011698,-0.00266687,-0.
 00125820,-0.00101036,-0.00249417,0.04491744,0.00000977,-0.00005126,0.0
 0001249,-0.00002448,-0.00001121,-0.00000747,-0.00001625,0.00001251,0.0
 0000985,0.00003467,0.00000678,0.00003688,-0.00008494,0.00005868,-0.000
 10853,0.00001826,-0.00000308,0.00000129,-0.00002096,0.00000050,0.00000
 301,-0.00000471,-0.00001096,-0.00000416,-0.00001272,-0.00011890,-0.000
 00814,0.00006303,0.00014192,-0.00000892,-0.00002368,-0.00001367,-0.000
 03310,0.00000018,-0.00000298,0.00000051,0.00000517,0.00000120,0.000001
 26,0.00000455,-0.00000553,0.00000063,0.00001042,0.00001879,0.00002263,
 -0.00004874,-0.00001729,0.00000246,-0.00004554,-0.00006737,-0.00002239
 ,-0.00000673,-0.00001318,-0.00000718,0.00000795,0.00001702,0.00001181,
 0.00002064,0.00004318,0.00001842,0.00003036,-0.00001615,-0.00001388,-0
 .00000467,-0.00000175,-0.00000242,-0.00000324,-0.00000385,0.00000007,0
 .00000258,0.00000064,0.,0.00000697,0.00001262,0.00001108,-0.00000238,-
 0.00000075,-0.00000107,0.00000245,-0.00000803,-0.00000625,0.00000478,0
 .00000402,-0.00001013,-0.00000541,0.00000092,0.00000080,-0.00000142,-0
 .00000236,-0.00000054,0.00000157,0.00000179,0.00000162,-0.00000388,-0.
 00000141,0.00000096,-0.00011048,0.00074306,-0.00029156,-0.00128654,0.0
 0079652,0.00256679,0.00291472,0.00040021,-0.00116111,0.00404216,-0.008
 26720,-0.00066474,0.00016626,-0.00046914,-0.00002893,-0.00169691,-0.00
 974935,0.00477092,-0.00007867,-0.00053038,0.00020751,0.02629424,-0.343
 40544,0.04454821,-0.00056961,0.00055673,-0.00060978,-0.00054807,0.0005
 9129,-0.00058789,-0.02904072,0.35936287,0.00005729,0.00001202,0.000013
 13,-0.00004733,0.00015242,0.00001542,-0.00006360,-0.00005475,0.0000135
 4,0.00007458,0.00002715,0.00003288,-0.00048629,-0.00015565,-0.00045265
 ,0.00002678,-0.00000320,-0.00000400,-0.00002445,0.00002758,0.00000183,
 -0.00002110,-0.00002095,-0.00001106,0.00001878,-0.00015860,0.00001735,
 -0.00006009,0.00007901,0.00000552,0.00001096,-0.00002054,-0.00001624,-
 0.00000197,0.00000189,-0.00000144,-0.00000578,0.00000221,0.00000423,-0
 .00000054,-0.00000215,0.00000012,-0.00003327,-0.00001295,-0.00001159,-
 0.00000274,0.00000224,0.00000216,-0.00000962,-0.00001054,-0.00001074,-
 0.00000170,-0.00000463,-0.00000142,-0.00000174,-0.00000304,0.00000028,
 -0.00000314,0.00000412,-0.00000073,0.00002000,-0.00000100,-0.00000437,
 -0.00000018,-0.00000004,-0.00000004,0.00000063,0.00000028,-0.00000075,
 -0.00000005,-0.00000011,0.00000054,-0.00001048,-0.00000487,-0.00000914
 ,0.00000179,0.00000168,-0.00000020,-0.00000222,0.00000756,0.00000396,0
 .00000018,-0.00000918,0.00000743,-0.00000072,0.00000038,-0.00000023,0.
 00000018,0.00000016,0.00000072,-0.00000141,-0.00000126,0.00000134,0.00
 000148,0.00000067,0.00000074,0.00033632,-0.00018892,-0.00109933,0.0056
 2247,0.00212245,0.00164985,0.00519054,-0.00086384,0.00252977,-0.002002
 05,0.01951297,0.00217137,-0.00007234,0.00088476,-0.00004156,0.00175657
 ,-0.01535477,0.00662923,0.00005367,-0.00067098,0.00015137,0.00475718,0
 .04457845,-0.05410266,-0.00259592,-0.00099273,-0.00181996,-0.00264174,
 -0.00023231,-0.00186273,-0.00983893,-0.04865095,0.04619804\\0.00000628
 ,0.00000236,0.00000043,-0.00000083,0.00000338,0.00000240,-0.00000250,-
 0.00000835,-0.00000280,0.00001094,0.00000132,-0.00000071,-0.00001078,-
 0.00000004,-0.00000726,-0.00000103,-0.00000187,-0.00000186,-0.00000047
 ,-0.00000169,-0.00000253,-0.00000088,0.00000189,-0.00000404,0.00000056
 ,-0.00000146,0.00000571,-0.00000049,0.00000801,0.00001075,-0.00000030,
 -0.00000614,0.00000311,0.00000047,-0.00000040,-0.00000084,0.00000118,-
 0.00000282,-0.00000350,0.00000004,-0.00000199,-0.00000230,-0.00000507,
 -0.00000081,-0.00000338,-0.00001043,-0.00000397,0.00000451,0.00001131,
 -0.00001823,-0.00002929,0.00001354,-0.00000793,0.00000821,0.00000103,0
 .00000245,0.00000301,-0.00000167,0.00001736,0.00000604,-0.00000670,0.0
 0000866,0.00000649,-0.00000187,0.00000053,-0.00000077,-0.00000388,0.00
 000123,0.00000130,-0.00000186,0.00000142,0.00000067,0.00000264,0.00000
 123,-0.00000115,-0.00001022,0.00000729,-0.00000495,-0.00000180,-0.0000
 0084,-0.00000123,0.00000213,0.00000149,0.00000203,0.00000072,-0.000002
 44,0.00000601,-0.00000003,0.00000003,0.00000052,0.00000253,0.00000103,
 0.00000357,-0.00000003,0.00000180,0.00000237,0.00002369,0.00000110,-0.
 00000636,-0.00001174,0.00001449,0.00000180,-0.00001192,-0.00001741,0.0
 0000773,-0.00000168,-0.00001592,0.00000731,0.00000028,-0.00000383,-0.0
 0000184,-0.00000692,0.00001732,0.00000388,-0.00000182,0.00000339,-0.00
 000354,0.00001471,-0.00000062,-0.00001025,0.00000180,0.00000133,0.0000
 0124,0.00000106,-0.00000246,-0.00000143,0.00000003,0.00000013,0.000000
 93\\\@


 KNOWING HOW CONTENTED, FREE, AND JOYFUL IS LIFE IN
 THE REALMS OF SCIENCE, ONE FERVENTLY WISHES THAT
 MANY WOULD ENTER HER PORTALS.
   --  DMITRI IVANOVICH MENDELEEV
 "FIRST PRINCIPLES OF CHEMISTRY", LONGMANS, GREEN,
 AND CO.  LONDON, 1891
 Job cpu time:       0 days  5 hours 17 minutes  7.4 seconds.
 Elapsed time:       0 days  0 hours  5 minutes  0.4 seconds.
 File lengths (MBytes):  RWF=    959 Int=      0 D2E=      0 Chk=     18 Scr=      1
 Normal termination of Gaussian 16 at Tue Dec 16 13:01:43 2025.
