 Entering Gaussian System, Link 0=/project/xlzhang/shared/bin/g16/g16
 Input=/scratch/s1/xlzhang/lewen/OTf_opt/OTf_opt.com
 Output=/scratch/s1/xlzhang/lewen/OTf_opt/OTf_opt.log
 Initial command:
 /project/xlzhang/shared/bin/g16/l1.exe "/lustre/scratch/xlzhang/lewen/OTf_opt/Gau-1338713.inp" -scrdir="/lustre/scratch/xlzhang/lewen/OTf_opt/"
 Entering Link 1 = /project/xlzhang/shared/bin/g16/l1.exe PID=   1338714.
  
 Copyright (c) 1988-2017, Gaussian, Inc.  All Rights Reserved.
  
 This is part of the Gaussian(R) 16 program.  It is based on
 the Gaussian(R) 09 system (copyright 2009, Gaussian, Inc.),
 the Gaussian(R) 03 system (copyright 2003, Gaussian, Inc.),
 the Gaussian(R) 98 system (copyright 1998, Gaussian, Inc.),
 the Gaussian(R) 94 system (copyright 1995, Gaussian, Inc.),
 the Gaussian 92(TM) system (copyright 1992, Gaussian, Inc.),
 the Gaussian 90(TM) system (copyright 1990, Gaussian, Inc.),
 the Gaussian 88(TM) system (copyright 1988, Gaussian, Inc.),
 the Gaussian 86(TM) system (copyright 1986, Carnegie Mellon
 University), and the Gaussian 82(TM) system (copyright 1983,
 Carnegie Mellon University). Gaussian is a federally registered
 trademark of Gaussian, Inc.
  
 This software contains proprietary and confidential information,
 including trade secrets, belonging to Gaussian, Inc.
  
 This software is provided under written license and may be
 used, copied, transmitted, or stored only in accord with that
 written license.
  
 The following legend is applicable only to US Government
 contracts under FAR:
  
                    RESTRICTED RIGHTS LEGEND
  
 Use, reproduction and disclosure by the US Government is
 subject to restrictions as set forth in subparagraphs (a)
 and (c) of the Commercial Computer Software - Restricted
 Rights clause in FAR 52.227-19.
  
 Gaussian, Inc.
 340 Quinnipiac St., Bldg. 40, Wallingford CT 06492
  
  
 ---------------------------------------------------------------
 Warning -- This program may not be used in any manner that
 competes with the business of Gaussian, Inc. or will provide
 assistance to any competitor of Gaussian, Inc.  The licensee
 of this program is prohibited from giving any competitor of
 Gaussian, Inc. access to this program.  By using this program,
 the user acknowledges that Gaussian, Inc. is engaged in the
 business of creating and licensing software in the field of
 computational chemistry and represents and warrants to the
 licensee that it is not a competitor of Gaussian, Inc. and that
 it will not use this program in any manner prohibited above.
 ---------------------------------------------------------------
  

 Cite this work as:
 Gaussian 16, Revision B.01,
 M. J. Frisch, G. W. Trucks, H. B. Schlegel, G. E. Scuseria, 
 M. A. Robb, J. R. Cheeseman, G. Scalmani, V. Barone, 
 G. A. Petersson, H. Nakatsuji, X. Li, M. Caricato, A. V. Marenich, 
 J. Bloino, B. G. Janesko, R. Gomperts, B. Mennucci, H. P. Hratchian, 
 J. V. Ortiz, A. F. Izmaylov, J. L. Sonnenberg, D. Williams-Young, 
 F. Ding, F. Lipparini, F. Egidi, J. Goings, B. Peng, A. Petrone, 
 T. Henderson, D. Ranasinghe, V. G. Zakrzewski, J. Gao, N. Rega, 
 G. Zheng, W. Liang, M. Hada, M. Ehara, K. Toyota, R. Fukuda, 
 J. Hasegawa, M. Ishida, T. Nakajima, Y. Honda, O. Kitao, H. Nakai, 
 T. Vreven, K. Throssell, J. A. Montgomery, Jr., J. E. Peralta, 
 F. Ogliaro, M. J. Bearpark, J. J. Heyd, E. N. Brothers, K. N. Kudin, 
 V. N. Staroverov, T. A. Keith, R. Kobayashi, J. Normand, 
 K. Raghavachari, A. P. Rendell, J. C. Burant, S. S. Iyengar, 
 J. Tomasi, M. Cossi, J. M. Millam, M. Klene, C. Adamo, R. Cammi, 
 J. W. Ochterski, R. L. Martin, K. Morokuma, O. Farkas, 
 J. B. Foresman, and D. J. Fox, Gaussian, Inc., Wallingford CT, 2016.
 
 ******************************************
 Gaussian 16:  ES64L-G16RevB.01 20-Dec-2017
                16-Dec-2025 
 ******************************************
 %chk=OTf_opt.chk
 %nprocshared=64
 Will use up to   64 processors via shared memory.
 %mem=180GB
 -----------------------
 # opt freq mn15 def2svp
 -----------------------
 1/18=20,19=15,26=3,38=1/1,3;
 2/9=110,12=2,17=6,18=5,40=1/2;
 3/5=43,7=101,11=2,25=1,30=1,71=1,74=-73/1,2,3;
 4//1;
 5/5=2,38=5/2;
 6/7=2,8=2,9=2,10=2,28=1/1;
 7//1,2,3,16;
 1/18=20,19=15,26=3/3(2);
 2/9=110/2;
 99//99;
 2/9=110/2;
 3/5=43,7=101,11=2,25=1,30=1,71=1,74=-73/1,2,3;
 4/5=5,16=3,69=1/1;
 5/5=2,38=5/2;
 7//1,2,3,16;
 1/18=20,19=15,26=3/3(-5);
 2/9=110/2;
 6/7=2,8=2,9=2,10=2,19=2,28=1/1;
 99/9=1/99;
 ----------------------------------
 Gaussian job with default settings
 ----------------------------------
 Symbolic Z-matrix:
 Charge =  0 Multiplicity = 1
 O                     0.75327   5.4576   -0.53387 
 S                    -0.50749   5.06794  -1.16782 
 O                    -1.57737   6.06691  -1.12525 
 C                    -0.05369   5.06601  -2.95882 
 F                     0.93143   4.1989   -3.21854 
 F                    -1.09128   4.72696  -3.73207 
 F                     0.36397   6.2701   -3.36514 
 O                    -0.92556   3.675    -0.95648 
 H                    -1.18902   3.55486  -0.04119 
 

 GradGradGradGradGradGradGradGradGradGradGradGradGradGradGradGradGradGrad
 Berny optimization.
 Initialization pass.
                           ----------------------------
                           !    Initial Parameters    !
                           ! (Angstroms and Degrees)  !
 --------------------------                            --------------------------
 ! Name  Definition              Value          Derivative Info.                !
 --------------------------------------------------------------------------------
 ! R1    R(1,2)                  1.464          estimate D2E/DX2                !
 ! R2    R(2,3)                  1.4644         estimate D2E/DX2                !
 ! R3    R(2,4)                  1.8476         estimate D2E/DX2                !
 ! R4    R(2,8)                  1.4696         estimate D2E/DX2                !
 ! R5    R(4,5)                  1.3378         estimate D2E/DX2                !
 ! R6    R(4,6)                  1.3377         estimate D2E/DX2                !
 ! R7    R(4,7)                  1.3377         estimate D2E/DX2                !
 ! R8    R(8,9)                  0.96           estimate D2E/DX2                !
 ! A1    A(1,2,3)              115.7875         estimate D2E/DX2                !
 ! A2    A(1,2,4)              102.0356         estimate D2E/DX2                !
 ! A3    A(1,2,8)              115.7848         estimate D2E/DX2                !
 ! A4    A(3,2,4)              102.0251         estimate D2E/DX2                !
 ! A5    A(3,2,8)              115.758          estimate D2E/DX2                !
 ! A6    A(4,2,8)              102.0218         estimate D2E/DX2                !
 ! A7    A(2,4,5)              111.6988         estimate D2E/DX2                !
 ! A8    A(2,4,6)              111.7211         estimate D2E/DX2                !
 ! A9    A(2,4,7)              111.7277         estimate D2E/DX2                !
 ! A10   A(5,4,6)              107.1367         estimate D2E/DX2                !
 ! A11   A(5,4,7)              107.1298         estimate D2E/DX2                !
 ! A12   A(6,4,7)              107.1423         estimate D2E/DX2                !
 ! A13   A(2,8,9)              109.5            estimate D2E/DX2                !
 ! D1    D(1,2,4,5)             59.9782         estimate D2E/DX2                !
 ! D2    D(1,2,4,6)            179.9706         estimate D2E/DX2                !
 ! D3    D(1,2,4,7)            -60.01           estimate D2E/DX2                !
 ! D4    D(3,2,4,5)            179.9919         estimate D2E/DX2                !
 ! D5    D(3,2,4,6)            -60.0157         estimate D2E/DX2                !
 ! D6    D(3,2,4,7)             60.0038         estimate D2E/DX2                !
 ! D7    D(8,2,4,5)            -60.0314         estimate D2E/DX2                !
 ! D8    D(8,2,4,6)             59.961          estimate D2E/DX2                !
 ! D9    D(8,2,4,7)            179.9804         estimate D2E/DX2                !
 ! D10   D(1,2,8,9)             70.1362         estimate D2E/DX2                !
 ! D11   D(3,2,8,9)            -70.1764         estimate D2E/DX2                !
 ! D12   D(4,2,8,9)            179.9915         estimate D2E/DX2                !
 --------------------------------------------------------------------------------
 Trust Radius=3.00D-01 FncErr=1.00D-07 GrdErr=1.00D-06 EigMax=2.50D+02 EigMin=1.00D-04
 Number of steps in this run=     43 maximum allowed number of steps=    100.
 GradGradGradGradGradGradGradGradGradGradGradGradGradGradGradGradGradGrad

                          Input orientation:                          
 ---------------------------------------------------------------------
 Center     Atomic      Atomic             Coordinates (Angstroms)
 Number     Number       Type             X           Y           Z
 ---------------------------------------------------------------------
      1          8           0        0.753271    5.457598   -0.533874
      2         16           0       -0.507490    5.067944   -1.167817
      3          8           0       -1.577373    6.066908   -1.125251
      4          6           0       -0.053689    5.066013   -2.958818
      5          9           0        0.931434    4.198899   -3.218541
      6          9           0       -1.091275    4.726960   -3.732069
      7          9           0        0.363972    6.270099   -3.365138
      8          8           0       -0.925557    3.675004   -0.956478
      9          1           0       -1.189022    3.554857   -0.041190
 ---------------------------------------------------------------------
                    Distance matrix (angstroms):
                    1          2          3          4          5
     1  O    0.000000
     2  S    1.463979   0.000000
     3  O    2.480502   1.464374   0.000000
     4  C    2.585513   1.847599   2.585608   0.000000
     5  F    2.970438   2.651643   3.763699   1.337838   0.000000
     6  F    3.763593   2.651879   2.971069   1.337706   2.152652
     7  F    2.971157   2.651951   2.971061   1.337670   2.152527
     8  O    2.484894   1.469600   2.484864   2.589290   2.973182
     9  H    2.763270   2.005793   2.763404   3.476366   3.873846
                    6          7          8          9
     6  F    0.000000
     7  F    2.152594   0.000000
     8  O    2.972874   3.768163   0.000000
     9  H    3.873753   4.564314   0.960000   0.000000
 Stoichiometry    CHF3O3S
 Framework group  C1[X(CHF3O3S)]
 Deg. of freedom    21
 Full point group                 C1      NOp   1
 Largest Abelian subgroup         C1      NOp   1
 Largest concise Abelian subgroup C1      NOp   1
                         Standard orientation:                         
 ---------------------------------------------------------------------
 Center     Atomic      Atomic             Coordinates (Angstroms)
 Number     Number       Type             X           Y           Z
 ---------------------------------------------------------------------
      1          8           0        1.153963   -0.798573    1.239894
      2         16           0        0.886151   -0.067498    0.000120
      3          8           0        1.154147   -0.797680   -1.240608
      4          6           0       -0.958996    0.027656   -0.000117
      5          9           0       -1.421143    0.673066    1.076767
      6          9           0       -1.421223    0.674593   -1.075884
      7          9           0       -1.517536   -1.187824   -0.000809
      8          8           0        1.265866    1.352199    0.000396
      9          1           0        2.222872    1.427955    0.000673
 ---------------------------------------------------------------------
 Rotational constants (GHZ):           2.6736191           1.5652610           1.5528885
 Standard basis: def2SVP (5D, 7F)
 There are   129 symmetry adapted cartesian basis functions of A   symmetry.
 There are   121 symmetry adapted basis functions of A   symmetry.
   121 basis functions,   219 primitive gaussians,   129 cartesian basis functions
    37 alpha electrons       37 beta electrons
       nuclear repulsion energy       569.9036004597 Hartrees.
 NAtoms=    9 NActive=    9 NUniq=    9 SFac= 1.00D+00 NAtFMM=   60 NAOKFM=F Big=F
 Integral buffers will be    131072 words long.
 Raffenetti 2 integral format.
 Two-electron integral symmetry is turned on.
 One-electron integrals computed using PRISM.
   1 Symmetry operations used in ECPInt.
 ECPInt:  NShTT=    1431 NPrTT=    5895 LenC2=    1413 LenP2D=    4428.
 LDataN:  DoStor=T MaxTD1= 4 Len=   56
 NBasis=   121 RedAO= T EigKep=  4.83D-03  NBF=   121
 NBsUse=   121 1.00D-06 EigRej= -1.00D+00 NBFU=   121
 ExpMin= 1.22D-01 ExpMax= 9.18D+03 ExpMxC= 1.38D+03 IAcc=3 IRadAn=         5 AccDes= 0.00D+00
 Harris functional with IExCor= 1009 and IRadAn=       5 diagonalized for initial guess.
 HarFok:  IExCor= 1009 AccDes= 0.00D+00 IRadAn=         5 IDoV= 1 UseB2=F ITyADJ=14
 ICtDFT=  3500011 ScaDFX=  1.000000  1.000000  1.000000  1.000000
 FoFCou: FMM=F IPFlag=           0 FMFlag=      100000 FMFlg1=           0
         NFxFlg=           0 DoJE=T BraDBF=F KetDBF=T FulRan=T
         wScrn=  0.000000 ICntrl=       500 IOpCl=  0 I1Cent=   200000004 NGrid=           0
         NMat0=    1 NMatS0=      1 NMatT0=    0 NMatD0=    1 NMtDS0=    0 NMtDT0=    0
 Petite list used in FoFCou.
 Keep R1 ints in memory in canonical form, NReq=88458494.
 Requested convergence on RMS density matrix=1.00D-08 within 128 cycles.
 Requested convergence on MAX density matrix=1.00D-06.
 Requested convergence on             energy=1.00D-06.
 No special actions if energy rises.
 Integral accuracy reduced to 1.0D-05 until final iterations.
 Initial convergence to 1.0D-05 achieved.  Increase integral accuracy.
 SCF Done:  E(RMN15) =  -960.763149442     A.U. after   15 cycles
            NFock= 15  Conv=0.33D-08     -V/T= 2.0050

 **********************************************************************

            Population analysis using the SCF Density.

 **********************************************************************

 Orbital symmetries:
       Occupied  (A) (A) (A) (A) (A) (A) (A) (A) (A) (A) (A) (A)
                 (A) (A) (A) (A) (A) (A) (A) (A) (A) (A) (A) (A)
                 (A) (A) (A) (A) (A) (A) (A) (A) (A) (A) (A) (A)
                 (A)
       Virtual   (A) (A) (A) (A) (A) (A) (A) (A) (A) (A) (A) (A)
                 (A) (A) (A) (A) (A) (A) (A) (A) (A) (A) (A) (A)
                 (A) (A) (A) (A) (A) (A) (A) (A) (A) (A) (A) (A)
                 (A) (A) (A) (A) (A) (A) (A) (A) (A) (A) (A) (A)
                 (A) (A) (A) (A) (A) (A) (A) (A) (A) (A) (A) (A)
                 (A) (A) (A) (A) (A) (A) (A) (A) (A) (A) (A) (A)
                 (A) (A) (A) (A) (A) (A) (A) (A) (A) (A) (A) (A)
 The electronic state is 1-A.
 Alpha  occ. eigenvalues --  -88.07896 -24.33658 -24.33566 -24.33554 -18.95519
 Alpha  occ. eigenvalues --  -18.83519 -18.83504 -10.33865  -7.98101  -6.17802
 Alpha  occ. eigenvalues --   -6.17420  -6.17322  -1.36908  -1.27840  -1.26718
 Alpha  occ. eigenvalues --   -1.26639  -1.13169  -1.05959  -0.83651  -0.75984
 Alpha  occ. eigenvalues --   -0.69871  -0.66830  -0.66732  -0.62513  -0.58491
 Alpha  occ. eigenvalues --   -0.56653  -0.54655  -0.54507  -0.51157  -0.50853
 Alpha  occ. eigenvalues --   -0.50439  -0.48496  -0.47936  -0.43315  -0.39190
 Alpha  occ. eigenvalues --   -0.37952  -0.36240
 Alpha virt. eigenvalues --    0.02738   0.03982   0.09657   0.11015   0.12316
 Alpha virt. eigenvalues --    0.23257   0.24477   0.25142   0.35228   0.42932
 Alpha virt. eigenvalues --    0.44215   0.47265   0.52115   0.57009   0.62341
 Alpha virt. eigenvalues --    0.62742   0.66927   0.67374   0.69573   0.85779
 Alpha virt. eigenvalues --    0.86339   0.91111   0.93295   0.95780   0.99125
 Alpha virt. eigenvalues --    1.03348   1.06867   1.08611   1.08726   1.10735
 Alpha virt. eigenvalues --    1.12754   1.15414   1.16142   1.16161   1.24181
 Alpha virt. eigenvalues --    1.24828   1.33166   1.38084   1.42020   1.42093
 Alpha virt. eigenvalues --    1.42374   1.42964   1.44234   1.55918   1.57278
 Alpha virt. eigenvalues --    1.63123   1.64114   1.86500   1.87393   1.88059
 Alpha virt. eigenvalues --    1.98927   2.00515   2.02615   2.13321   2.48748
 Alpha virt. eigenvalues --    2.60543   2.62040   2.62734   2.66119   2.70318
 Alpha virt. eigenvalues --    2.77118   2.80540   2.82363   2.92223   2.96347
 Alpha virt. eigenvalues --    2.98876   3.03441   3.03563   3.03804   3.04062
 Alpha virt. eigenvalues --    3.04445   3.04723   3.12181   3.13129   3.13243
 Alpha virt. eigenvalues --    3.29520   3.36282   3.39236   3.48143   3.48409
 Alpha virt. eigenvalues --    3.55299   3.61901   3.79673   3.79739
          Condensed to atoms (all electrons):
               1          2          3          4          5          6
     1  O    8.089735   0.433262  -0.048374  -0.025255   0.000390   0.000463
     2  S    0.433262  14.043969   0.433212   0.238428  -0.038707  -0.038706
     3  O   -0.048374   0.433212   8.090164  -0.025248   0.000463   0.000388
     4  C   -0.025255   0.238428  -0.025248   4.358633   0.342750   0.342850
     5  F    0.000390  -0.038707   0.000463   0.342750   8.925977  -0.045131
     6  F    0.000463  -0.038706   0.000388   0.342850  -0.045131   8.925688
     7  F    0.000212  -0.038118   0.000212   0.369686  -0.045171  -0.045156
     8  O   -0.037561   0.182393  -0.037583  -0.021627   0.001155   0.001157
     9  H    0.001004   0.009936   0.001005   0.003079  -0.000227  -0.000227
               7          8          9
     1  O    0.000212  -0.037561   0.001004
     2  S   -0.038118   0.182393   0.009936
     3  O    0.000212  -0.037583   0.001005
     4  C    0.369686  -0.021627   0.003079
     5  F   -0.045171   0.001155  -0.000227
     6  F   -0.045156   0.001157  -0.000227
     7  F    8.886633   0.000289  -0.000025
     8  O    0.000289   7.779066   0.321707
     9  H   -0.000025   0.321707   0.426281
 Mulliken charges:
               1
     1  O   -0.413876
     2  S    0.774331
     3  O   -0.414239
     4  C    0.416703
     5  F   -0.141499
     6  F   -0.141328
     7  F   -0.128562
     8  O   -0.188998
     9  H    0.237468
 Sum of Mulliken charges =  -0.00000
 Mulliken charges with hydrogens summed into heavy atoms:
               1
     1  O   -0.413876
     2  S    0.774331
     3  O   -0.414239
     4  C    0.416703
     5  F   -0.141499
     6  F   -0.141328
     7  F   -0.128562
     8  O    0.048470
 Electronic spatial extent (au):  <R**2>=            849.9982
 Charge=              0.0000 electrons
 Dipole moment (field-independent basis, Debye):
    X=              2.0968    Y=              3.4818    Z=              0.0033  Tot=              4.0644
 Quadrupole moment (field-independent basis, Debye-Ang):
   XX=            -42.3356   YY=            -49.4847   ZZ=            -54.7641
   XY=              7.6985   XZ=              0.0085   YZ=              0.0010
 Traceless Quadrupole moment (field-independent basis, Debye-Ang):
   XX=              6.5259   YY=             -0.6233   ZZ=             -5.9026
   XY=              7.6985   XZ=              0.0085   YZ=              0.0010
 Octapole moment (field-independent basis, Debye-Ang**2):
  XXX=              9.4599  YYY=              6.1914  ZZZ=              0.0090  XYY=              0.2325
  XXY=             16.9171  XXZ=              0.0122  XZZ=            -10.1431  YZZ=              4.8780
  YYZ=              0.0023  XYZ=              0.0040
 Hexadecapole moment (field-independent basis, Debye-Ang**3):
 XXXX=           -392.9189 YYYY=           -203.6880 ZZZZ=           -212.1424 XXXY=             40.5604
 XXXZ=              0.0328 YYYX=             13.7676 YYYZ=              0.0028 ZZZX=              0.0192
 ZZZY=             -0.0026 XXYY=            -96.7306 XXZZ=           -119.4329 YYZZ=            -71.5118
 XXYZ=              0.0076 YYXZ=              0.0030 ZZXY=              8.3634
 N-N= 5.699036004597D+02 E-N=-3.417472911107D+03  KE= 9.559605081312D+02
   1 Symmetry operations used in ECPInt.
 ECPInt:  NShTT=    1431 NPrTT=    5895 LenC2=    1413 LenP2D=    4428.
 LDataN:  DoStor=T MaxTD1= 5 Len=  102
 Calling FoFJK, ICntrl=      2127 FMM=F ISym2X=0 I1Cent= 0 IOpClX= 0 NMat=1 NMatS=1 NMatT=0.
 ***** Axes restored to original set *****
 -------------------------------------------------------------------
 Center     Atomic                   Forces (Hartrees/Bohr)
 Number     Number              X              Y              Z
 -------------------------------------------------------------------
      1        8          -0.023007433   -0.026697803    0.000141551
      2       16           0.056142645    0.182649024   -0.034890179
      3        8           0.005577259   -0.034340605    0.007299421
      4        6           0.007893771   -0.011725727   -0.042752401
      5        9          -0.008100929    0.005455100    0.011534941
      6        9           0.003499076    0.002424609    0.014475084
      7        9          -0.009547553   -0.014978623    0.022104272
      8        8          -0.024955205   -0.091551114    0.004108317
      9        1          -0.007501631   -0.011234860    0.017978994
 -------------------------------------------------------------------
 Cartesian Forces:  Max     0.182649024 RMS     0.044326461

 GradGradGradGradGradGradGradGradGradGradGradGradGradGradGradGradGradGrad
 Berny optimization.
 FormGI is forming the generalized inverse of G from B-inverse, IUseBI=4.
 Internal  Forces:  Max     0.109833870 RMS     0.024043245
 Search for a local minimum.
 Step number   1 out of a maximum of   43
 All quantities printed in internal units (Hartrees-Bohrs-Radians)
 Mixed Optimization -- RFO/linear search
 Second derivative matrix not updated -- first step.
 ITU=  0
     Eigenvalues ---    0.00230   0.04344   0.08191   0.08197   0.10344
     Eigenvalues ---    0.10676   0.14797   0.16000   0.20406   0.22699
     Eigenvalues ---    0.25000   0.25000   0.25000   0.25000   0.55473
     Eigenvalues ---    0.57692   0.57722   0.57730   0.87694   0.89797
     Eigenvalues ---    0.89959
 RFO step:  Lambda=-3.80121708D-02 EMin= 2.30000000D-03
 Linear search not attempted -- first point.
 Iteration  1 RMS(Cart)=  0.05681905 RMS(Int)=  0.00537911
 Iteration  2 RMS(Cart)=  0.00478055 RMS(Int)=  0.00356331
 Iteration  3 RMS(Cart)=  0.00002054 RMS(Int)=  0.00356329
 Iteration  4 RMS(Cart)=  0.00000030 RMS(Int)=  0.00356329
 Variable       Old X    -DE/DX   Delta X   Delta X   Delta X     New X
                                 (Linear)    (Quad)   (Total)
    R1        2.76652  -0.02686   0.00000  -0.02865  -0.02865   2.73787
    R2        2.76727  -0.02729   0.00000  -0.02916  -0.02916   2.73811
    R3        3.49146  -0.00671   0.00000  -0.02534  -0.02534   3.46612
    R4        2.77714   0.10983   0.00000   0.12004   0.12004   2.89718
    R5        2.52815  -0.01174   0.00000  -0.01909  -0.01909   2.50906
    R6        2.52790  -0.01170   0.00000  -0.01901  -0.01901   2.50889
    R7        2.52783  -0.02318   0.00000  -0.03767  -0.03767   2.49016
    R8        1.81414   0.02061   0.00000   0.03476   0.03476   1.84890
    A1        2.02087   0.00866   0.00000   0.08243   0.06771   2.08859
    A2        1.78086   0.02052   0.00000   0.09751   0.09147   1.87233
    A3        2.02083  -0.01293   0.00000  -0.08616  -0.08492   1.93590
    A4        1.78067   0.02052   0.00000   0.09759   0.09155   1.87222
    A5        2.02036  -0.01288   0.00000  -0.08585  -0.08461   1.93575
    A6        1.78062  -0.01578   0.00000  -0.06319  -0.06123   1.71938
    A7        1.94951  -0.00882   0.00000  -0.02819  -0.02907   1.92044
    A8        1.94990  -0.00884   0.00000  -0.02837  -0.02927   1.92064
    A9        1.95002  -0.02365   0.00000  -0.08686  -0.08865   1.86137
   A10        1.86989   0.01186   0.00000   0.05000   0.04991   1.91980
   A11        1.86977   0.01636   0.00000   0.05247   0.05065   1.92042
   A12        1.86999   0.01635   0.00000   0.05230   0.05046   1.92045
   A13        1.91114   0.01634   0.00000   0.08252   0.08252   1.99365
    D1        1.04682  -0.01378   0.00000  -0.09327  -0.09698   0.94983
    D2        3.14108  -0.01079   0.00000  -0.06835  -0.07303   3.06804
    D3       -1.04737  -0.01231   0.00000  -0.08102  -0.08521  -1.13258
    D4        3.14145   0.01079   0.00000   0.06837   0.07304  -3.06869
    D5       -1.04747   0.01378   0.00000   0.09329   0.09699  -0.95048
    D6        1.04726   0.01226   0.00000   0.08062   0.08482   1.13208
    D7       -1.04775  -0.00147   0.00000  -0.01226  -0.01178  -1.05953
    D8        1.04652   0.00152   0.00000   0.01265   0.01217   1.05868
    D9        3.14125   0.00000   0.00000  -0.00001  -0.00001   3.14124
   D10        1.22411  -0.00973   0.00000  -0.04334  -0.04190   1.18221
   D11       -1.22481   0.00975   0.00000   0.04348   0.04204  -1.18277
   D12        3.14144  -0.00001   0.00000  -0.00006  -0.00005   3.14139
         Item               Value     Threshold  Converged?
 Maximum Force            0.109834     0.000450     NO 
 RMS     Force            0.024043     0.000300     NO 
 Maximum Displacement     0.181077     0.001800     NO 
 RMS     Displacement     0.055967     0.001200     NO 
 Predicted change in Energy=-2.200235D-02
 GradGradGradGradGradGradGradGradGradGradGradGradGradGradGradGradGradGrad

                          Input orientation:                          
 ---------------------------------------------------------------------
 Center     Atomic      Atomic             Coordinates (Angstroms)
 Number     Number       Type             X           Y           Z
 ---------------------------------------------------------------------
      1          8           0        0.754645    5.449775   -0.495143
      2         16           0       -0.471223    5.163765   -1.212447
      3          8           0       -1.599281    6.065186   -1.092577
      4          6           0       -0.047480    5.055628   -2.993740
      5          9           0        0.925516    4.170977   -3.176912
      6          9           0       -1.118299    4.704613   -3.695722
      7          9           0        0.358337    6.255005   -3.358757
      8          8           0       -0.906785    3.710120   -0.994110
      9          1           0       -1.191160    3.509212   -0.079765
 ---------------------------------------------------------------------
                    Distance matrix (angstroms):
                    1          2          3          4          5
     1  O    0.000000
     2  S    1.448820   0.000000
     3  O    2.505320   1.448946   0.000000
     4  C    2.653628   1.834191   2.653623   0.000000
     5  F    2.975971   2.606843   3.782470   1.327735   0.000000
     6  F    3.782446   2.606949   2.976385   1.327646   2.175112
     7  F    3.000956   2.546688   3.000644   1.317737   2.167472
     8  O    2.456769   1.533124   2.456742   2.558773   2.886926
     9  H    2.779296   2.130452   2.779452   3.491512   3.809274
                    6          7          8          9
     6  F    0.000000
     7  F    2.167422   0.000000
     8  O    2.886601   3.697097   0.000000
     9  H    3.809126   4.548858   0.978396   0.000000
 Stoichiometry    CHF3O3S
 Framework group  C1[X(CHF3O3S)]
 Deg. of freedom    21
 Full point group                 C1      NOp   1
 Largest Abelian subgroup         C1      NOp   1
 Largest concise Abelian subgroup C1      NOp   1
                         Standard orientation:                         
 ---------------------------------------------------------------------
 Center     Atomic      Atomic             Coordinates (Angstroms)
 Number     Number       Type             X           Y           Z
 ---------------------------------------------------------------------
      1          8           0        1.225513   -0.726613    1.252840
      2         16           0        0.835545   -0.112141    0.000071
      3          8           0        1.225510   -0.727353   -1.252480
      4          6           0       -0.994538    0.010549   -0.000041
      5          9           0       -1.407565    0.650341    1.087596
      6          9           0       -1.407644    0.650382   -1.087516
      7          9           0       -1.455673   -1.223868   -0.000044
      8          8           0        1.163422    1.385512   -0.000471
      9          1           0        2.120866    1.586910   -0.000331
 ---------------------------------------------------------------------
 Rotational constants (GHZ):           2.6583143           1.5854899           1.5846690
 Standard basis: def2SVP (5D, 7F)
 There are   129 symmetry adapted cartesian basis functions of A   symmetry.
 There are   121 symmetry adapted basis functions of A   symmetry.
   121 basis functions,   219 primitive gaussians,   129 cartesian basis functions
    37 alpha electrons       37 beta electrons
       nuclear repulsion energy       571.5592301973 Hartrees.
 NAtoms=    9 NActive=    9 NUniq=    9 SFac= 1.00D+00 NAtFMM=   60 NAOKFM=F Big=F
 Integral buffers will be    131072 words long.
 Raffenetti 2 integral format.
 Two-electron integral symmetry is turned on.
 One-electron integrals computed using PRISM.
   1 Symmetry operations used in ECPInt.
 ECPInt:  NShTT=    1431 NPrTT=    5895 LenC2=    1410 LenP2D=    4422.
 LDataN:  DoStor=T MaxTD1= 4 Len=   56
 NBasis=   121 RedAO= T EigKep=  4.76D-03  NBF=   121
 NBsUse=   121 1.00D-06 EigRej= -1.00D+00 NBFU=   121
 Initial guess from the checkpoint file:  "OTf_opt.chk"
 B after Tr=    -0.000000    0.000000   -0.000000
         Rot=    0.999870    0.000328   -0.000010   -0.016149 Ang=   1.85 deg.
 ExpMin= 1.22D-01 ExpMax= 9.18D+03 ExpMxC= 1.38D+03 IAcc=3 IRadAn=         5 AccDes= 0.00D+00
 Harris functional with IExCor= 1009 and IRadAn=       5 diagonalized for initial guess.
 HarFok:  IExCor= 1009 AccDes= 0.00D+00 IRadAn=         5 IDoV= 1 UseB2=F ITyADJ=14
 ICtDFT=  3500011 ScaDFX=  1.000000  1.000000  1.000000  1.000000
 FoFCou: FMM=F IPFlag=           0 FMFlag=      100000 FMFlg1=           0
         NFxFlg=           0 DoJE=T BraDBF=F KetDBF=T FulRan=T
         wScrn=  0.000000 ICntrl=       500 IOpCl=  0 I1Cent=   200000004 NGrid=           0
         NMat0=    1 NMatS0=      1 NMatT0=    0 NMatD0=    1 NMtDS0=    0 NMtDT0=    0
 Petite list used in FoFCou.
 Keep R1 ints in memory in canonical form, NReq=88458494.
 Requested convergence on RMS density matrix=1.00D-08 within 128 cycles.
 Requested convergence on MAX density matrix=1.00D-06.
 Requested convergence on             energy=1.00D-06.
 No special actions if energy rises.
 Integral accuracy reduced to 1.0D-05 until final iterations.
 Initial convergence to 1.0D-05 achieved.  Increase integral accuracy.
 SCF Done:  E(RMN15) =  -960.785770598     A.U. after   13 cycles
            NFock= 13  Conv=0.58D-08     -V/T= 2.0051
   1 Symmetry operations used in ECPInt.
 ECPInt:  NShTT=    1431 NPrTT=    5895 LenC2=    1410 LenP2D=    4422.
 LDataN:  DoStor=T MaxTD1= 5 Len=  102
 Calling FoFJK, ICntrl=      2127 FMM=F ISym2X=0 I1Cent= 0 IOpClX= 0 NMat=1 NMatS=1 NMatT=0.
 ***** Axes restored to original set *****
 -------------------------------------------------------------------
 Center     Atomic                   Forces (Hartrees/Bohr)
 Number     Number              X              Y              Z
 -------------------------------------------------------------------
      1        8          -0.008931707   -0.006627020   -0.007765803
      2       16           0.013940199    0.066535949    0.012941396
      3        8           0.007386743   -0.010943070   -0.003664959
      4        6          -0.000593433   -0.009685409   -0.007395762
      5        9          -0.007686243    0.006412123    0.000458341
      6        9           0.008591231    0.002138449    0.004584789
      7        9          -0.001167620   -0.003809313    0.000679723
      8        8          -0.012948894   -0.046204739    0.003470107
      9        1           0.001409725    0.002183031   -0.003307832
 -------------------------------------------------------------------
 Cartesian Forces:  Max     0.066535949 RMS     0.017059673

 GradGradGradGradGradGradGradGradGradGradGradGradGradGradGradGradGradGrad
 Berny optimization.
 Using GEDIIS/GDIIS optimizer.
 FormGI is forming the generalized inverse of G from B-inverse, IUseBI=4.
 Internal  Forces:  Max     0.045036333 RMS     0.009283982
 Search for a local minimum.
 Step number   2 out of a maximum of   43
 All quantities printed in internal units (Hartrees-Bohrs-Radians)
 Mixed Optimization -- RFO/linear search
 Update second derivatives using D2CorX and points    1    2
 DE= -2.26D-02 DEPred=-2.20D-02 R= 1.03D+00
 TightC=F SS=  1.41D+00  RLast= 3.62D-01 DXNew= 5.0454D-01 1.0869D+00
 Trust test= 1.03D+00 RLast= 3.62D-01 DXMaxT set to 5.05D-01
 ITU=  1  0
 Use linear search instead of GDIIS.
     Eigenvalues ---    0.00230   0.04344   0.08708   0.09293   0.09792
     Eigenvalues ---    0.10645   0.15968   0.18488   0.20273   0.22785
     Eigenvalues ---    0.24546   0.25000   0.25000   0.27700   0.53039
     Eigenvalues ---    0.56440   0.57707   0.58552   0.67540   0.89640
     Eigenvalues ---    0.89904
 RFO step:  Lambda=-4.62966863D-03 EMin= 2.30000000D-03
 Quartic linear search produced a step of  0.28167.
 Iteration  1 RMS(Cart)=  0.04018720 RMS(Int)=  0.00152889
 Iteration  2 RMS(Cart)=  0.00199740 RMS(Int)=  0.00120230
 Iteration  3 RMS(Cart)=  0.00000140 RMS(Int)=  0.00120230
 Iteration  4 RMS(Cart)=  0.00000000 RMS(Int)=  0.00120230
 Variable       Old X    -DE/DX   Delta X   Delta X   Delta X     New X
                                 (Linear)    (Quad)   (Total)
    R1        2.73787  -0.01271  -0.00807  -0.01367  -0.02174   2.71613
    R2        2.73811  -0.01286  -0.00821  -0.01384  -0.02206   2.71605
    R3        3.46612   0.00172  -0.00714   0.01389   0.00675   3.47287
    R4        2.89718   0.04504   0.03381   0.04724   0.08106   2.97824
    R5        2.50906  -0.00997  -0.00538  -0.01902  -0.02440   2.48466
    R6        2.50889  -0.00992  -0.00535  -0.01891  -0.02427   2.48462
    R7        2.49016  -0.00402  -0.01061  -0.00297  -0.01359   2.47658
    R8        1.84890  -0.00395   0.00979  -0.01451  -0.00471   1.84419
    A1        2.08859   0.00367   0.01907   0.03899   0.05343   2.14202
    A2        1.87233   0.00077   0.02576  -0.01589   0.00695   1.87928
    A3        1.93590   0.00172  -0.02392   0.01584  -0.00830   1.92760
    A4        1.87222   0.00077   0.02579  -0.01582   0.00705   1.87927
    A5        1.93575   0.00173  -0.02383   0.01598  -0.00806   1.92769
    A6        1.71938  -0.01187  -0.01725  -0.06310  -0.08062   1.63876
    A7        1.92044   0.00112  -0.00819   0.01013   0.00167   1.92211
    A8        1.92064   0.00110  -0.00824   0.01002   0.00151   1.92214
    A9        1.86137   0.00056  -0.02497   0.01927  -0.00624   1.85513
   A10        1.91980  -0.00148   0.01406  -0.01808  -0.00406   1.91574
   A11        1.92042  -0.00062   0.01427  -0.01011   0.00360   1.92402
   A12        1.92045  -0.00061   0.01421  -0.01008   0.00357   1.92402
   A13        1.99365  -0.00269   0.02324  -0.03600  -0.01276   1.98089
    D1        0.94983  -0.00259  -0.02732  -0.00890  -0.03721   0.91262
    D2        3.06804  -0.00298  -0.02057  -0.01836  -0.04021   3.02783
    D3       -1.13258  -0.00279  -0.02400  -0.01364  -0.03878  -1.17136
    D4       -3.06869   0.00298   0.02057   0.01840   0.04026  -3.02843
    D5       -0.95048   0.00258   0.02732   0.00894   0.03726  -0.91322
    D6        1.13208   0.00278   0.02389   0.01366   0.03869   1.17078
    D7       -1.05953   0.00021  -0.00332   0.00484   0.00167  -1.05786
    D8        1.05868  -0.00019   0.00343  -0.00461  -0.00133   1.05735
    D9        3.14124   0.00001  -0.00000   0.00010   0.00010   3.14134
   D10        1.18221   0.00422  -0.01180   0.04258   0.03060   1.21281
   D11       -1.18277  -0.00421   0.01184  -0.04255  -0.03055  -1.21332
   D12        3.14139  -0.00000  -0.00001  -0.00005  -0.00006   3.14133
         Item               Value     Threshold  Converged?
 Maximum Force            0.045036     0.000450     NO 
 RMS     Force            0.009284     0.000300     NO 
 Maximum Displacement     0.111353     0.001800     NO 
 RMS     Displacement     0.041564     0.001200     NO 
 Predicted change in Energy=-3.385007D-03
 GradGradGradGradGradGradGradGradGradGradGradGradGradGradGradGradGradGrad

                          Input orientation:                          
 ---------------------------------------------------------------------
 Center     Atomic      Atomic             Coordinates (Angstroms)
 Number     Number       Type             X           Y           Z
 ---------------------------------------------------------------------
      1          8           0        0.765327    5.462962   -0.486670
      2         16           0       -0.461556    5.218621   -1.194434
      3          8           0       -1.605169    6.082718   -1.088404
      4          6           0       -0.052710    5.050544   -2.978243
      5          9           0        0.900959    4.160328   -3.141942
      6          9           0       -1.120152    4.688104   -3.654939
      7          9           0        0.356108    6.230957   -3.374511
      8          8           0       -0.894517    3.710995   -1.041340
      9          1           0       -1.184019    3.479053   -0.138691
 ---------------------------------------------------------------------
                    Distance matrix (angstroms):
                    1          2          3          4          5
     1  O    0.000000
     2  S    1.437315   0.000000
     3  O    2.522981   1.437274   0.000000
     4  C    2.654658   1.837764   2.654620   0.000000
     5  F    2.960696   2.601772   3.767397   1.314826   0.000000
     6  F    3.767409   2.601785   2.960962   1.314806   2.150954
     7  F    3.016108   2.538924   3.015770   1.310548   2.153707
     8  O    2.476313   1.576017   2.476351   2.500924   2.799672
     9  H    2.803022   2.159316   2.803283   3.436932   3.718977
                    6          7          8          9
     6  F    0.000000
     7  F    2.153690   0.000000
     8  O    2.799385   3.654854   0.000000
     9  H    3.718856   4.518352   0.975902   0.000000
 Stoichiometry    CHF3O3S
 Framework group  C1[X(CHF3O3S)]
 Deg. of freedom    21
 Full point group                 C1      NOp   1
 Largest Abelian subgroup         C1      NOp   1
 Largest concise Abelian subgroup C1      NOp   1
                         Standard orientation:                         
 ---------------------------------------------------------------------
 Center     Atomic      Atomic             Coordinates (Angstroms)
 Number     Number       Type             X           Y           Z
 ---------------------------------------------------------------------
      1          8           0        1.244735   -0.696738    1.261922
      2         16           0        0.847094   -0.135098    0.000052
      3          8           0        1.244653   -0.698397   -1.261059
      4          6           0       -0.986070   -0.005152    0.000009
      5          9           0       -1.394551    0.631815    1.075269
      6          9           0       -1.394589    0.631014   -1.075686
      7          9           0       -1.441723   -1.233939    0.000469
      8          8           0        1.065043    1.425775   -0.000922
      9          1           0        2.005233    1.687361   -0.000872
 ---------------------------------------------------------------------
 Rotational constants (GHZ):           2.6549240           1.6072252           1.6039467
 Standard basis: def2SVP (5D, 7F)
 There are   129 symmetry adapted cartesian basis functions of A   symmetry.
 There are   121 symmetry adapted basis functions of A   symmetry.
   121 basis functions,   219 primitive gaussians,   129 cartesian basis functions
    37 alpha electrons       37 beta electrons
       nuclear repulsion energy       573.2290290495 Hartrees.
 NAtoms=    9 NActive=    9 NUniq=    9 SFac= 1.00D+00 NAtFMM=   60 NAOKFM=F Big=F
 Integral buffers will be    131072 words long.
 Raffenetti 2 integral format.
 Two-electron integral symmetry is turned on.
 One-electron integrals computed using PRISM.
   1 Symmetry operations used in ECPInt.
 ECPInt:  NShTT=    1431 NPrTT=    5895 LenC2=    1412 LenP2D=    4430.
 LDataN:  DoStor=T MaxTD1= 4 Len=   56
 NBasis=   121 RedAO= T EigKep=  4.72D-03  NBF=   121
 NBsUse=   121 1.00D-06 EigRej= -1.00D+00 NBFU=   121
 Initial guess from the checkpoint file:  "OTf_opt.chk"
 B after Tr=     0.000000   -0.000000   -0.000000
         Rot=    0.999952    0.000183   -0.000007   -0.009762 Ang=   1.12 deg.
 ExpMin= 1.22D-01 ExpMax= 9.18D+03 ExpMxC= 1.38D+03 IAcc=3 IRadAn=         5 AccDes= 0.00D+00
 Harris functional with IExCor= 1009 and IRadAn=       5 diagonalized for initial guess.
 HarFok:  IExCor= 1009 AccDes= 0.00D+00 IRadAn=         5 IDoV= 1 UseB2=F ITyADJ=14
 ICtDFT=  3500011 ScaDFX=  1.000000  1.000000  1.000000  1.000000
 FoFCou: FMM=F IPFlag=           0 FMFlag=      100000 FMFlg1=           0
         NFxFlg=           0 DoJE=T BraDBF=F KetDBF=T FulRan=T
         wScrn=  0.000000 ICntrl=       500 IOpCl=  0 I1Cent=   200000004 NGrid=           0
         NMat0=    1 NMatS0=      1 NMatT0=    0 NMatD0=    1 NMtDS0=    0 NMtDT0=    0
 Petite list used in FoFCou.
 Keep R1 ints in memory in canonical form, NReq=88458494.
 Requested convergence on RMS density matrix=1.00D-08 within 128 cycles.
 Requested convergence on MAX density matrix=1.00D-06.
 Requested convergence on             energy=1.00D-06.
 No special actions if energy rises.
 Integral accuracy reduced to 1.0D-05 until final iterations.
 Initial convergence to 1.0D-05 achieved.  Increase integral accuracy.
 SCF Done:  E(RMN15) =  -960.789443342     A.U. after   13 cycles
            NFock= 13  Conv=0.38D-08     -V/T= 2.0050
   1 Symmetry operations used in ECPInt.
 ECPInt:  NShTT=    1431 NPrTT=    5895 LenC2=    1412 LenP2D=    4430.
 LDataN:  DoStor=T MaxTD1= 5 Len=  102
 Calling FoFJK, ICntrl=      2127 FMM=F ISym2X=0 I1Cent= 0 IOpClX= 0 NMat=1 NMatS=1 NMatT=0.
 ***** Axes restored to original set *****
 -------------------------------------------------------------------
 Center     Atomic                   Forces (Hartrees/Bohr)
 Number     Number              X              Y              Z
 -------------------------------------------------------------------
      1        8          -0.000636088    0.000916524    0.002025237
      2       16           0.004426626    0.012361853   -0.004493956
      3        8          -0.000041012    0.000774843    0.002190520
      4        6          -0.001711107   -0.003469089    0.003228549
      5        9           0.002249180   -0.001198455   -0.000084027
      6        9          -0.002251356   -0.000031009   -0.001230929
      7        9           0.002876858    0.006624610   -0.004515286
      8        8          -0.005693898   -0.017681251    0.004196820
      9        1           0.000780797    0.001701975   -0.001316929
 -------------------------------------------------------------------
 Cartesian Forces:  Max     0.017681251 RMS     0.005026877

 GradGradGradGradGradGradGradGradGradGradGradGradGradGradGradGradGradGrad
 Berny optimization.
 Using GEDIIS/GDIIS optimizer.
 FormGI is forming the generalized inverse of G from B-inverse, IUseBI=4.
 Internal  Forces:  Max     0.016915064 RMS     0.003668639
 Search for a local minimum.
 Step number   3 out of a maximum of   43
 All quantities printed in internal units (Hartrees-Bohrs-Radians)
 Mixed Optimization -- RFO/linear search
 Update second derivatives using D2CorX and points    1    2    3
 DE= -3.67D-03 DEPred=-3.39D-03 R= 1.09D+00
 TightC=F SS=  1.41D+00  RLast= 1.72D-01 DXNew= 8.4853D-01 5.1689D-01
 Trust test= 1.09D+00 RLast= 1.72D-01 DXMaxT set to 5.17D-01
 ITU=  1  1  0
 Use linear search instead of GDIIS.
     Eigenvalues ---    0.00230   0.04344   0.08689   0.09330   0.09698
     Eigenvalues ---    0.11324   0.16466   0.18982   0.19813   0.22611
     Eigenvalues ---    0.24514   0.25000   0.26165   0.27914   0.44750
     Eigenvalues ---    0.56435   0.57707   0.59133   0.62294   0.89875
     Eigenvalues ---    0.91132
 RFO step:  Lambda=-1.01453522D-03 EMin= 2.29999996D-03
 Quartic linear search produced a step of  0.08729.
 Iteration  1 RMS(Cart)=  0.01508589 RMS(Int)=  0.00013772
 Iteration  2 RMS(Cart)=  0.00009802 RMS(Int)=  0.00007563
 Iteration  3 RMS(Cart)=  0.00000000 RMS(Int)=  0.00007563
 Variable       Old X    -DE/DX   Delta X   Delta X   Delta X     New X
                                 (Linear)    (Quad)   (Total)
    R1        2.71613   0.00061  -0.00190  -0.00161  -0.00351   2.71262
    R2        2.71605   0.00066  -0.00193  -0.00158  -0.00351   2.71255
    R3        3.47287   0.00261   0.00059   0.01234   0.01293   3.48580
    R4        2.97824   0.01692   0.00708   0.03024   0.03731   3.01555
    R5        2.48466   0.00245  -0.00213   0.00239   0.00027   2.48493
    R6        2.48462   0.00247  -0.00212   0.00244   0.00032   2.48494
    R7        2.47658   0.00823  -0.00119   0.01357   0.01238   2.48896
    R8        1.84419  -0.00185  -0.00041  -0.00301  -0.00342   1.84077
    A1        2.14202  -0.00208   0.00466  -0.01264  -0.00826   2.13376
    A2        1.87928   0.00139   0.00061   0.01207   0.01255   1.89183
    A3        1.92760  -0.00122  -0.00072  -0.00819  -0.00908   1.91852
    A4        1.87927   0.00139   0.00062   0.01208   0.01256   1.89183
    A5        1.92769  -0.00123  -0.00070  -0.00823  -0.00910   1.91859
    A6        1.63876   0.00352  -0.00704   0.01422   0.00711   1.64588
    A7        1.92211  -0.00075   0.00015  -0.00419  -0.00405   1.91806
    A8        1.92214  -0.00075   0.00013  -0.00421  -0.00408   1.91806
    A9        1.85513   0.00394  -0.00054   0.01480   0.01426   1.86939
   A10        1.91574   0.00066  -0.00035   0.00310   0.00273   1.91847
   A11        1.92402  -0.00153   0.00031  -0.00467  -0.00435   1.91967
   A12        1.92402  -0.00153   0.00031  -0.00468  -0.00436   1.91966
   A13        1.98089  -0.00248  -0.00111  -0.01571  -0.01682   1.96407
    D1        0.91262   0.00037  -0.00325  -0.00001  -0.00328   0.90934
    D2        3.02783   0.00022  -0.00351  -0.00161  -0.00513   3.02271
    D3       -1.17136   0.00030  -0.00338  -0.00081  -0.00421  -1.17557
    D4       -3.02843  -0.00022   0.00351   0.00187   0.00540  -3.02303
    D5       -0.91322  -0.00037   0.00325   0.00027   0.00355  -0.90967
    D6        1.17078  -0.00029   0.00338   0.00107   0.00446   1.17524
    D7       -1.05786   0.00007   0.00015   0.00091   0.00105  -1.05681
    D8        1.05735  -0.00008  -0.00012  -0.00069  -0.00080   1.05655
    D9        3.14134  -0.00000   0.00001   0.00011   0.00012   3.14146
   D10        1.21281  -0.00274   0.00267  -0.01744  -0.01469   1.19812
   D11       -1.21332   0.00274  -0.00267   0.01739   0.01465  -1.19867
   D12        3.14133  -0.00000  -0.00001  -0.00003  -0.00003   3.14130
         Item               Value     Threshold  Converged?
 Maximum Force            0.016915     0.000450     NO 
 RMS     Force            0.003669     0.000300     NO 
 Maximum Displacement     0.050376     0.001800     NO 
 RMS     Displacement     0.015085     0.001200     NO 
 Predicted change in Energy=-5.309089D-04
 GradGradGradGradGradGradGradGradGradGradGradGradGradGradGradGradGradGrad

                          Input orientation:                          
 ---------------------------------------------------------------------
 Center     Atomic      Atomic             Coordinates (Angstroms)
 Number     Number       Type             X           Y           Z
 ---------------------------------------------------------------------
      1          8           0        0.756145    5.459387   -0.473165
      2         16           0       -0.460295    5.220999   -1.197035
      3          8           0       -1.605958    6.076827   -1.072775
      4          6           0       -0.049141    5.055107   -2.987568
      5          9           0        0.904313    4.163694   -3.147075
      6          9           0       -1.118929    4.692204   -3.660629
      7          9           0        0.364132    6.235314   -3.401169
      8          8           0       -0.900419    3.695875   -1.033483
      9          1           0       -1.185577    3.484874   -0.126277
 ---------------------------------------------------------------------
                    Distance matrix (angstroms):
                    1          2          3          4          5
     1  O    0.000000
     2  S    1.435459   0.000000
     3  O    2.514020   1.435418   0.000000
     4  C    2.670983   1.844607   2.670959   0.000000
     5  F    2.974991   2.604363   3.776806   1.314966   0.000000
     6  F    3.776824   2.604366   2.975125   1.314974   2.153269
     7  F    3.054332   2.562562   3.054143   1.317099   2.155915
     8  O    2.483573   1.595763   2.483598   2.527970   2.818366
     9  H    2.790934   2.164875   2.791200   3.456024   3.735460
                    6          7          8          9
     6  F    0.000000
     7  F    2.155917   0.000000
     8  O    2.818211   3.695102   0.000000
     9  H    3.735470   4.548784   0.974094   0.000000
 Stoichiometry    CHF3O3S
 Framework group  C1[X(CHF3O3S)]
 Deg. of freedom    21
 Full point group                 C1      NOp   1
 Largest Abelian subgroup         C1      NOp   1
 Largest concise Abelian subgroup C1      NOp   1
                         Standard orientation:                         
 ---------------------------------------------------------------------
 Center     Atomic      Atomic             Coordinates (Angstroms)
 Number     Number       Type             X           Y           Z
 ---------------------------------------------------------------------
      1          8           0        1.255064   -0.704031    1.257251
      2         16           0        0.844725   -0.145876    0.000020
      3          8           0        1.254995   -0.704969   -1.256769
      4          6           0       -0.994174   -0.000870    0.000014
      5          9           0       -1.392495    0.640714    1.076512
      6          9           0       -1.392522    0.640252   -1.076757
      7          9           0       -1.479385   -1.225337    0.000280
      8          8           0        1.089145    1.431057   -0.000526
      9          1           0        2.035434    1.662133   -0.000368
 ---------------------------------------------------------------------
 Rotational constants (GHZ):           2.6502214           1.5898252           1.5822933
 Standard basis: def2SVP (5D, 7F)
 There are   129 symmetry adapted cartesian basis functions of A   symmetry.
 There are   121 symmetry adapted basis functions of A   symmetry.
   121 basis functions,   219 primitive gaussians,   129 cartesian basis functions
    37 alpha electrons       37 beta electrons
       nuclear repulsion energy       571.1503611510 Hartrees.
 NAtoms=    9 NActive=    9 NUniq=    9 SFac= 1.00D+00 NAtFMM=   60 NAOKFM=F Big=F
 Integral buffers will be    131072 words long.
 Raffenetti 2 integral format.
 Two-electron integral symmetry is turned on.
 One-electron integrals computed using PRISM.
   1 Symmetry operations used in ECPInt.
 ECPInt:  NShTT=    1431 NPrTT=    5895 LenC2=    1410 LenP2D=    4421.
 LDataN:  DoStor=T MaxTD1= 4 Len=   56
 NBasis=   121 RedAO= T EigKep=  4.82D-03  NBF=   121
 NBsUse=   121 1.00D-06 EigRej= -1.00D+00 NBFU=   121
 Initial guess from the checkpoint file:  "OTf_opt.chk"
 B after Tr=     0.000000    0.000000    0.000000
         Rot=    0.999991   -0.000112    0.000003    0.004151 Ang=  -0.48 deg.
 ExpMin= 1.22D-01 ExpMax= 9.18D+03 ExpMxC= 1.38D+03 IAcc=3 IRadAn=         5 AccDes= 0.00D+00
 Harris functional with IExCor= 1009 and IRadAn=       5 diagonalized for initial guess.
 HarFok:  IExCor= 1009 AccDes= 0.00D+00 IRadAn=         5 IDoV= 1 UseB2=F ITyADJ=14
 ICtDFT=  3500011 ScaDFX=  1.000000  1.000000  1.000000  1.000000
 FoFCou: FMM=F IPFlag=           0 FMFlag=      100000 FMFlg1=           0
         NFxFlg=           0 DoJE=T BraDBF=F KetDBF=T FulRan=T
         wScrn=  0.000000 ICntrl=       500 IOpCl=  0 I1Cent=   200000004 NGrid=           0
         NMat0=    1 NMatS0=      1 NMatT0=    0 NMatD0=    1 NMtDS0=    0 NMtDT0=    0
 Petite list used in FoFCou.
 Keep R1 ints in memory in canonical form, NReq=88458494.
 Requested convergence on RMS density matrix=1.00D-08 within 128 cycles.
 Requested convergence on MAX density matrix=1.00D-06.
 Requested convergence on             energy=1.00D-06.
 No special actions if energy rises.
 Integral accuracy reduced to 1.0D-05 until final iterations.
 Initial convergence to 1.0D-05 achieved.  Increase integral accuracy.
 SCF Done:  E(RMN15) =  -960.790006770     A.U. after   12 cycles
            NFock= 12  Conv=0.34D-08     -V/T= 2.0051
   1 Symmetry operations used in ECPInt.
 ECPInt:  NShTT=    1431 NPrTT=    5895 LenC2=    1410 LenP2D=    4421.
 LDataN:  DoStor=T MaxTD1= 5 Len=  102
 Calling FoFJK, ICntrl=      2127 FMM=F ISym2X=0 I1Cent= 0 IOpClX= 0 NMat=1 NMatS=1 NMatT=0.
 ***** Axes restored to original set *****
 -------------------------------------------------------------------
 Center     Atomic                   Forces (Hartrees/Bohr)
 Number     Number              X              Y              Z
 -------------------------------------------------------------------
      1        8           0.002619592    0.001243448    0.000552860
      2       16          -0.000213231    0.000090272    0.001148595
      3        8          -0.001722777    0.002394383   -0.000535422
      4        6          -0.000279168   -0.000480642    0.000586391
      5        9           0.001114665   -0.000577246    0.000415357
      6        9          -0.001302610    0.000056360   -0.000197800
      7        9           0.000335816    0.001042855   -0.000248531
      8        8          -0.000876661   -0.005350591   -0.002079998
      9        1           0.000324373    0.001581160    0.000358547
 -------------------------------------------------------------------
 Cartesian Forces:  Max     0.005350591 RMS     0.001502276

 GradGradGradGradGradGradGradGradGradGradGradGradGradGradGradGradGradGrad
 Berny optimization.
 Using GEDIIS/GDIIS optimizer.
 FormGI is forming the generalized inverse of G from B-inverse, IUseBI=4.
 Internal  Forces:  Max     0.003581125 RMS     0.001285142
 Search for a local minimum.
 Step number   4 out of a maximum of   43
 All quantities printed in internal units (Hartrees-Bohrs-Radians)
 Mixed Optimization -- RFO/linear search
 Update second derivatives using D2CorX and points    1    2    3    4
 DE= -5.63D-04 DEPred=-5.31D-04 R= 1.06D+00
 TightC=F SS=  1.41D+00  RLast= 5.88D-02 DXNew= 8.6930D-01 1.7652D-01
 Trust test= 1.06D+00 RLast= 5.88D-02 DXMaxT set to 5.17D-01
 ITU=  1  1  1  0
 Use linear search instead of GDIIS.
     Eigenvalues ---    0.00230   0.04344   0.08782   0.09226   0.09437
     Eigenvalues ---    0.11212   0.14716   0.19882   0.21373   0.22683
     Eigenvalues ---    0.23592   0.25000   0.27013   0.27720   0.42651
     Eigenvalues ---    0.56121   0.57707   0.58895   0.60176   0.89875
     Eigenvalues ---    0.91474
 RFO step:  Lambda=-1.89627166D-04 EMin= 2.29999965D-03
 Quartic linear search produced a step of  0.08246.
 Iteration  1 RMS(Cart)=  0.00654048 RMS(Int)=  0.00004106
 Iteration  2 RMS(Cart)=  0.00005431 RMS(Int)=  0.00001434
 Iteration  3 RMS(Cart)=  0.00000000 RMS(Int)=  0.00001434
 Variable       Old X    -DE/DX   Delta X   Delta X   Delta X     New X
                                 (Linear)    (Quad)   (Total)
    R1        2.71262   0.00270  -0.00029   0.00217   0.00188   2.71450
    R2        2.71255   0.00276  -0.00029   0.00222   0.00193   2.71448
    R3        3.48580  -0.00057   0.00107  -0.00194  -0.00088   3.48492
    R4        3.01555   0.00358   0.00308   0.01148   0.01456   3.03011
    R5        2.48493   0.00115   0.00002   0.00165   0.00167   2.48660
    R6        2.48494   0.00114   0.00003   0.00165   0.00167   2.48661
    R7        2.48896   0.00112   0.00102   0.00252   0.00354   2.49249
    R8        1.84077  -0.00010  -0.00028   0.00019  -0.00009   1.84068
    A1        2.13376   0.00012  -0.00068   0.00043  -0.00029   2.13346
    A2        1.89183  -0.00067   0.00103  -0.00283  -0.00179   1.89003
    A3        1.91852   0.00122  -0.00075   0.00571   0.00493   1.92345
    A4        1.89183  -0.00067   0.00104  -0.00284  -0.00180   1.89003
    A5        1.91859   0.00121  -0.00075   0.00567   0.00489   1.92348
    A6        1.64588  -0.00179   0.00059  -0.00901  -0.00842   1.63745
    A7        1.91806  -0.00071  -0.00033  -0.00391  -0.00425   1.91382
    A8        1.91806  -0.00071  -0.00034  -0.00391  -0.00425   1.91381
    A9        1.86939  -0.00004   0.00118  -0.00155  -0.00038   1.86901
   A10        1.91847   0.00093   0.00023   0.00687   0.00709   1.92556
   A11        1.91967   0.00025  -0.00036   0.00111   0.00075   1.92042
   A12        1.91966   0.00025  -0.00036   0.00111   0.00074   1.92041
   A13        1.96407  -0.00303  -0.00139  -0.02041  -0.02180   1.94227
    D1        0.90934   0.00033  -0.00027   0.00034   0.00007   0.90942
    D2        3.02271   0.00058  -0.00042   0.00386   0.00344   3.02615
    D3       -1.17557   0.00046  -0.00035   0.00210   0.00175  -1.17382
    D4       -3.02303  -0.00058   0.00045  -0.00360  -0.00316  -3.02619
    D5       -0.90967  -0.00033   0.00029  -0.00008   0.00021  -0.90946
    D6        1.17524  -0.00045   0.00037  -0.00185  -0.00148   1.17376
    D7       -1.05681  -0.00013   0.00009  -0.00165  -0.00156  -1.05837
    D8        1.05655   0.00012  -0.00007   0.00187   0.00181   1.05836
    D9        3.14146  -0.00000   0.00001   0.00011   0.00012   3.14158
   D10        1.19812   0.00121  -0.00121   0.00556   0.00438   1.20250
   D11       -1.19867  -0.00121   0.00121  -0.00562  -0.00445  -1.20312
   D12        3.14130  -0.00000  -0.00000  -0.00002  -0.00003   3.14128
         Item               Value     Threshold  Converged?
 Maximum Force            0.003581     0.000450     NO 
 RMS     Force            0.001285     0.000300     NO 
 Maximum Displacement     0.017791     0.001800     NO 
 RMS     Displacement     0.006566     0.001200     NO 
 Predicted change in Energy=-9.774186D-05
 GradGradGradGradGradGradGradGradGradGradGradGradGradGradGradGradGradGrad

                          Input orientation:                          
 ---------------------------------------------------------------------
 Center     Atomic      Atomic             Coordinates (Angstroms)
 Number     Number       Type             X           Y           Z
 ---------------------------------------------------------------------
      1          8           0        0.758052    5.462540   -0.474378
      2         16           0       -0.460511    5.221458   -1.195752
      3          8           0       -1.605548    6.080246   -1.074369
      4          6           0       -0.049930    5.053826   -2.985776
      5          9           0        0.905409    4.162037   -3.139077
      6          9           0       -1.124164    4.692397   -3.654265
      7          9           0        0.364145    6.235379   -3.400696
      8          8           0       -0.900287    3.687072   -1.042897
      9          1           0       -1.182894    3.489327   -0.131965
 ---------------------------------------------------------------------
                    Distance matrix (angstroms):
                    1          2          3          4          5
     1  O    0.000000
     2  S    1.436453   0.000000
     3  O    2.515583   1.436441   0.000000
     4  C    2.669645   1.844143   2.669637   0.000000
     5  F    2.968779   2.600889   3.774580   1.315850   0.000000
     6  F    3.774591   2.600889   2.968791   1.315860   2.160061
     7  F    3.052176   2.563176   3.052139   1.318971   2.158740
     8  O    2.495113   1.603468   2.495129   2.523073   2.807151
     9  H    2.788923   2.157257   2.789198   3.446085   3.722401
                    6          7          8          9
     6  F    0.000000
     7  F    2.158739   0.000000
     8  O    2.807141   3.694844   0.000000
     9  H    3.722556   4.540786   0.974047   0.000000
 Stoichiometry    CHF3O3S
 Framework group  C1[X(CHF3O3S)]
 Deg. of freedom    21
 Full point group                 C1      NOp   1
 Largest Abelian subgroup         C1      NOp   1
 Largest concise Abelian subgroup C1      NOp   1
                         Standard orientation:                         
 ---------------------------------------------------------------------
 Center     Atomic      Atomic             Coordinates (Angstroms)
 Number     Number       Type             X           Y           Z
 ---------------------------------------------------------------------
      1          8           0        1.253224   -0.706756    1.257988
      2         16           0        0.845286   -0.145943    0.000024
      3          8           0        1.253176   -0.707532   -1.257595
      4          6           0       -0.993137   -0.000804    0.000014
      5          9           0       -1.386491    0.640027    1.079860
      6          9           0       -1.386521    0.639408   -1.080201
      7          9           0       -1.478690   -1.227150    0.000365
      8          8           0        1.077677    1.440595   -0.000448
      9          1           0        2.026947    1.658894   -0.000243
 ---------------------------------------------------------------------
 Rotational constants (GHZ):           2.6372758           1.5943581           1.5855202
 Standard basis: def2SVP (5D, 7F)
 There are   129 symmetry adapted cartesian basis functions of A   symmetry.
 There are   121 symmetry adapted basis functions of A   symmetry.
   121 basis functions,   219 primitive gaussians,   129 cartesian basis functions
    37 alpha electrons       37 beta electrons
       nuclear repulsion energy       570.8987519493 Hartrees.
 NAtoms=    9 NActive=    9 NUniq=    9 SFac= 1.00D+00 NAtFMM=   60 NAOKFM=F Big=F
 Integral buffers will be    131072 words long.
 Raffenetti 2 integral format.
 Two-electron integral symmetry is turned on.
 One-electron integrals computed using PRISM.
   1 Symmetry operations used in ECPInt.
 ECPInt:  NShTT=    1431 NPrTT=    5895 LenC2=    1410 LenP2D=    4425.
 LDataN:  DoStor=T MaxTD1= 4 Len=   56
 NBasis=   121 RedAO= T EigKep=  4.85D-03  NBF=   121
 NBsUse=   121 1.00D-06 EigRej= -1.00D+00 NBFU=   121
 Initial guess from the checkpoint file:  "OTf_opt.chk"
 B after Tr=     0.000000   -0.000000   -0.000000
         Rot=    1.000000   -0.000002    0.000001   -0.000409 Ang=  -0.05 deg.
 Keep R1 ints in memory in canonical form, NReq=88458494.
 Requested convergence on RMS density matrix=1.00D-08 within 128 cycles.
 Requested convergence on MAX density matrix=1.00D-06.
 Requested convergence on             energy=1.00D-06.
 No special actions if energy rises.
 SCF Done:  E(RMN15) =  -960.790096452     A.U. after   10 cycles
            NFock= 10  Conv=0.37D-08     -V/T= 2.0051
   1 Symmetry operations used in ECPInt.
 ECPInt:  NShTT=    1431 NPrTT=    5895 LenC2=    1410 LenP2D=    4425.
 LDataN:  DoStor=T MaxTD1= 5 Len=  102
 Calling FoFJK, ICntrl=      2127 FMM=F ISym2X=0 I1Cent= 0 IOpClX= 0 NMat=1 NMatS=1 NMatT=0.
 ***** Axes restored to original set *****
 -------------------------------------------------------------------
 Center     Atomic                   Forces (Hartrees/Bohr)
 Number     Number              X              Y              Z
 -------------------------------------------------------------------
      1        8           0.000926096    0.000119623    0.000689690
      2       16          -0.000022522   -0.001264633   -0.001159648
      3        8          -0.000972844    0.000619805    0.000209854
      4        6          -0.000067874    0.001093428    0.001363464
      5        9          -0.000408535    0.000157348   -0.000639346
      6        9           0.000677087   -0.000124335   -0.000362035
      7        9          -0.000148443   -0.000841689   -0.000277817
      8        8           0.000073687   -0.000041974   -0.000344875
      9        1          -0.000056653    0.000282425    0.000520714
 -------------------------------------------------------------------
 Cartesian Forces:  Max     0.001363464 RMS     0.000644618

 GradGradGradGradGradGradGradGradGradGradGradGradGradGradGradGradGradGrad
 Berny optimization.
 Using GEDIIS/GDIIS optimizer.
 FormGI is forming the generalized inverse of G from B-inverse, IUseBI=4.
 Internal  Forces:  Max     0.001163599 RMS     0.000527954
 Search for a local minimum.
 Step number   5 out of a maximum of   43
 All quantities printed in internal units (Hartrees-Bohrs-Radians)
 Mixed Optimization -- En-DIIS/RFO-DIIS
 Update second derivatives using D2CorX and points    1    2    3    4    5
 DE= -8.97D-05 DEPred=-9.77D-05 R= 9.18D-01
 TightC=F SS=  1.41D+00  RLast= 3.16D-02 DXNew= 8.6930D-01 9.4799D-02
 Trust test= 9.18D-01 RLast= 3.16D-02 DXMaxT set to 5.17D-01
 ITU=  1  1  1  1  0
 Use linear search instead of GDIIS.
     Eigenvalues ---    0.00230   0.04344   0.08722   0.08939   0.09269
     Eigenvalues ---    0.11274   0.12441   0.19830   0.21873   0.22969
     Eigenvalues ---    0.25000   0.25181   0.27186   0.32865   0.39355
     Eigenvalues ---    0.56599   0.57707   0.59150   0.62306   0.87343
     Eigenvalues ---    0.89882
 RFO step:  Lambda=-2.42506233D-05 EMin= 2.29999662D-03
 Quartic linear search produced a step of -0.07583.
 Iteration  1 RMS(Cart)=  0.00331519 RMS(Int)=  0.00000951
 Iteration  2 RMS(Cart)=  0.00000917 RMS(Int)=  0.00000158
 Iteration  3 RMS(Cart)=  0.00000000 RMS(Int)=  0.00000158
 Variable       Old X    -DE/DX   Delta X   Delta X   Delta X     New X
                                 (Linear)    (Quad)   (Total)
    R1        2.71450   0.00115  -0.00014   0.00169   0.00155   2.71606
    R2        2.71448   0.00116  -0.00015   0.00172   0.00157   2.71605
    R3        3.48492  -0.00010   0.00007  -0.00081  -0.00075   3.48418
    R4        3.03011  -0.00022  -0.00110   0.00147   0.00036   3.03048
    R5        2.48660  -0.00033  -0.00013  -0.00011  -0.00024   2.48636
    R6        2.48661  -0.00034  -0.00013  -0.00012  -0.00025   2.48637
    R7        2.49249  -0.00071  -0.00027  -0.00061  -0.00088   2.49161
    R8        1.84068   0.00045   0.00001   0.00078   0.00079   1.84147
    A1        2.13346   0.00002   0.00002  -0.00038  -0.00036   2.13311
    A2        1.89003  -0.00003   0.00014  -0.00000   0.00014   1.89017
    A3        1.92345  -0.00031  -0.00037  -0.00050  -0.00087   1.92258
    A4        1.89003  -0.00003   0.00014  -0.00001   0.00013   1.89016
    A5        1.92348  -0.00031  -0.00037  -0.00052  -0.00089   1.92260
    A6        1.63745   0.00091   0.00064   0.00207   0.00271   1.64016
    A7        1.91382   0.00083   0.00032   0.00214   0.00246   1.91627
    A8        1.91381   0.00084   0.00032   0.00214   0.00246   1.91627
    A9        1.86901   0.00072   0.00003   0.00272   0.00275   1.87176
   A10        1.92556  -0.00100  -0.00054  -0.00314  -0.00368   1.92188
   A11        1.92042  -0.00066  -0.00006  -0.00183  -0.00189   1.91852
   A12        1.92041  -0.00066  -0.00006  -0.00182  -0.00189   1.91852
   A13        1.94227  -0.00072   0.00165  -0.00783  -0.00618   1.93610
    D1        0.90942   0.00010  -0.00001   0.00084   0.00083   0.91025
    D2        3.02615  -0.00008  -0.00026  -0.00032  -0.00059   3.02556
    D3       -1.17382   0.00001  -0.00013   0.00026   0.00013  -1.17369
    D4       -3.02619   0.00008   0.00024   0.00033   0.00057  -3.02562
    D5       -0.90946  -0.00010  -0.00002  -0.00083  -0.00085  -0.91031
    D6        1.17376  -0.00001   0.00011  -0.00024  -0.00013   1.17363
    D7       -1.05837   0.00009   0.00012   0.00058   0.00070  -1.05767
    D8        1.05836  -0.00009  -0.00014  -0.00059  -0.00072   1.05764
    D9        3.14158   0.00000  -0.00001   0.00000  -0.00001   3.14157
   D10        1.20250  -0.00029  -0.00033  -0.00078  -0.00111   1.20138
   D11       -1.20312   0.00028   0.00034   0.00073   0.00107  -1.20205
   D12        3.14128  -0.00000   0.00000  -0.00002  -0.00002   3.14126
         Item               Value     Threshold  Converged?
 Maximum Force            0.001164     0.000450     NO 
 RMS     Force            0.000528     0.000300     NO 
 Maximum Displacement     0.009100     0.001800     NO 
 RMS     Displacement     0.003315     0.001200     NO 
 Predicted change in Energy=-1.273854D-05
 GradGradGradGradGradGradGradGradGradGradGradGradGradGradGradGradGradGrad

                          Input orientation:                          
 ---------------------------------------------------------------------
 Center     Atomic      Atomic             Coordinates (Angstroms)
 Number     Number       Type             X           Y           Z
 ---------------------------------------------------------------------
      1          8           0        0.757764    5.460307   -0.473029
      2         16           0       -0.461001    5.219525   -1.195797
      3          8           0       -1.606963    6.078317   -1.073307
      4          6           0       -0.049749    5.054770   -2.985526
      5          9           0        0.905220    4.163509   -3.143054
      6          9           0       -1.121555    4.693132   -3.657530
      7          9           0        0.364388    6.235342   -3.401694
      8          8           0       -0.901208    3.685235   -1.041200
      9          1           0       -1.182626    3.494142   -0.128038
 ---------------------------------------------------------------------
                    Distance matrix (angstroms):
                    1          2          3          4          5
     1  O    0.000000
     2  S    1.437274   0.000000
     3  O    2.516784   1.437274   0.000000
     4  C    2.670053   1.843747   2.670046   0.000000
     5  F    2.971946   2.602602   3.776428   1.315723   0.000000
     6  F    3.776433   2.602605   2.971963   1.315728   2.157083
     7  F    3.054915   2.564983   3.054877   1.318506   2.156823
     8  O    2.495172   1.603661   2.495188   2.526066   2.812422
     9  H    2.783871   2.153555   2.784162   3.447348   3.727932
                    6          7          8          9
     6  F    0.000000
     7  F    2.156825   0.000000
     8  O    2.812400   3.698204   0.000000
     9  H    3.728086   4.541394   0.974463   0.000000
 Stoichiometry    CHF3O3S
 Framework group  C1[X(CHF3O3S)]
 Deg. of freedom    21
 Full point group                 C1      NOp   1
 Largest Abelian subgroup         C1      NOp   1
 Largest concise Abelian subgroup C1      NOp   1
                         Standard orientation:                         
 ---------------------------------------------------------------------
 Center     Atomic      Atomic             Coordinates (Angstroms)
 Number     Number       Type             X           Y           Z
 ---------------------------------------------------------------------
      1          8           0        1.253990   -0.707146    1.258581
      2         16           0        0.845594   -0.145888    0.000027
      3          8           0        1.253944   -0.707905   -1.258203
      4          6           0       -0.992449   -0.000966    0.000010
      5          9           0       -1.388850    0.640217    1.078379
      6          9           0       -1.388876    0.639629   -1.078704
      7          9           0       -1.481074   -1.225589    0.000348
      8          8           0        1.082152    1.440229   -0.000440
      9          1           0        2.033709    1.650269   -0.000213
 ---------------------------------------------------------------------
 Rotational constants (GHZ):           2.6395406           1.5915916           1.5828679
 Standard basis: def2SVP (5D, 7F)
 There are   129 symmetry adapted cartesian basis functions of A   symmetry.
 There are   121 symmetry adapted basis functions of A   symmetry.
   121 basis functions,   219 primitive gaussians,   129 cartesian basis functions
    37 alpha electrons       37 beta electrons
       nuclear repulsion energy       570.7247540440 Hartrees.
 NAtoms=    9 NActive=    9 NUniq=    9 SFac= 1.00D+00 NAtFMM=   60 NAOKFM=F Big=F
 Integral buffers will be    131072 words long.
 Raffenetti 2 integral format.
 Two-electron integral symmetry is turned on.
 One-electron integrals computed using PRISM.
   1 Symmetry operations used in ECPInt.
 ECPInt:  NShTT=    1431 NPrTT=    5895 LenC2=    1410 LenP2D=    4423.
 LDataN:  DoStor=T MaxTD1= 4 Len=   56
 NBasis=   121 RedAO= T EigKep=  4.85D-03  NBF=   121
 NBsUse=   121 1.00D-06 EigRej= -1.00D+00 NBFU=   121
 Initial guess from the checkpoint file:  "OTf_opt.chk"
 B after Tr=     0.000000    0.000000    0.000000
         Rot=    1.000000   -0.000005    0.000001    0.000330 Ang=  -0.04 deg.
 Keep R1 ints in memory in canonical form, NReq=88458494.
 Requested convergence on RMS density matrix=1.00D-08 within 128 cycles.
 Requested convergence on MAX density matrix=1.00D-06.
 Requested convergence on             energy=1.00D-06.
 No special actions if energy rises.
 SCF Done:  E(RMN15) =  -960.790108526     A.U. after    9 cycles
            NFock=  9  Conv=0.42D-08     -V/T= 2.0051
   1 Symmetry operations used in ECPInt.
 ECPInt:  NShTT=    1431 NPrTT=    5895 LenC2=    1410 LenP2D=    4423.
 LDataN:  DoStor=T MaxTD1= 5 Len=  102
 Calling FoFJK, ICntrl=      2127 FMM=F ISym2X=0 I1Cent= 0 IOpClX= 0 NMat=1 NMatS=1 NMatT=0.
 ***** Axes restored to original set *****
 -------------------------------------------------------------------
 Center     Atomic                   Forces (Hartrees/Bohr)
 Number     Number              X              Y              Z
 -------------------------------------------------------------------
      1        8           0.000007072   -0.000021339   -0.000055380
      2       16          -0.000077629   -0.000354782   -0.000071727
      3        8           0.000012823   -0.000024023   -0.000056148
      4        6           0.000205286    0.000469218   -0.000338151
      5        9           0.000044240   -0.000152660    0.000142300
      6        9          -0.000165427   -0.000096464    0.000089880
      7        9          -0.000105308   -0.000130363    0.000281091
      8        8           0.000108484    0.000258943   -0.000167555
      9        1          -0.000029540    0.000051471    0.000175690
 -------------------------------------------------------------------
 Cartesian Forces:  Max     0.000469218 RMS     0.000178450

 GradGradGradGradGradGradGradGradGradGradGradGradGradGradGradGradGradGrad
 Berny optimization.
 Using GEDIIS/GDIIS optimizer.
 FormGI is forming the generalized inverse of G from B-inverse, IUseBI=4.
 Internal  Forces:  Max     0.000315391 RMS     0.000145732
 Search for a local minimum.
 Step number   6 out of a maximum of   43
 All quantities printed in internal units (Hartrees-Bohrs-Radians)
 Mixed Optimization -- En-DIIS/RFO-DIIS
 Swapping is turned off.
 Update second derivatives using D2CorX and points    1    2    3    4    5
                                                      6
 DE= -1.21D-05 DEPred=-1.27D-05 R= 9.48D-01
 TightC=F SS=  1.41D+00  RLast= 1.00D-02 DXNew= 8.6930D-01 3.0019D-02
 Trust test= 9.48D-01 RLast= 1.00D-02 DXMaxT set to 5.17D-01
 ITU=  1  1  1  1  1  0
     Eigenvalues ---    0.00230   0.04344   0.08688   0.09222   0.09289
     Eigenvalues ---    0.11255   0.11338   0.19845   0.21350   0.22808
     Eigenvalues ---    0.25000   0.25269   0.28721   0.35075   0.43176
     Eigenvalues ---    0.56587   0.57707   0.59940   0.62881   0.87452
     Eigenvalues ---    0.89881
 En-DIIS/RFO-DIIS/Sim-DIIS IScMMF=       -3 using points:     6    5
 RFO step:  Lambda=-2.16489677D-06.
 DidBck=F Rises=F RFO-DIIS coefs:    1.05773   -0.05773
 Iteration  1 RMS(Cart)=  0.00106693 RMS(Int)=  0.00000075
 Iteration  2 RMS(Cart)=  0.00000094 RMS(Int)=  0.00000020
 Variable       Old X    -DE/DX   Delta X   Delta X   Delta X     New X
                                 (Linear)    (Quad)   (Total)
    R1        2.71606  -0.00003   0.00009   0.00001   0.00010   2.71615
    R2        2.71605  -0.00003   0.00009   0.00000   0.00010   2.71615
    R3        3.48418  -0.00018  -0.00004  -0.00072  -0.00076   3.48342
    R4        3.03048  -0.00032   0.00002  -0.00082  -0.00080   3.02968
    R5        2.48636   0.00012  -0.00001   0.00019   0.00018   2.48654
    R6        2.48637   0.00011  -0.00001   0.00019   0.00018   2.48654
    R7        2.49161  -0.00024  -0.00005  -0.00041  -0.00046   2.49116
    R8        1.84147   0.00016   0.00005   0.00024   0.00029   1.84175
    A1        2.13311   0.00008  -0.00002   0.00004   0.00002   2.13313
    A2        1.89017  -0.00009   0.00001  -0.00052  -0.00052   1.88965
    A3        1.92258  -0.00005  -0.00005  -0.00000  -0.00005   1.92252
    A4        1.89016  -0.00009   0.00001  -0.00053  -0.00052   1.88964
    A5        1.92260  -0.00005  -0.00005  -0.00000  -0.00005   1.92254
    A6        1.64016   0.00024   0.00016   0.00129   0.00144   1.64161
    A7        1.91627  -0.00020   0.00014  -0.00064  -0.00050   1.91577
    A8        1.91627  -0.00020   0.00014  -0.00064  -0.00050   1.91577
    A9        1.87176  -0.00031   0.00016  -0.00087  -0.00071   1.87105
   A10        1.92188   0.00017  -0.00021   0.00017  -0.00004   1.92185
   A11        1.91852   0.00026  -0.00011   0.00098   0.00087   1.91939
   A12        1.91852   0.00026  -0.00011   0.00098   0.00087   1.91939
   A13        1.93610  -0.00016  -0.00036  -0.00070  -0.00105   1.93504
    D1        0.91025   0.00004   0.00005   0.00068   0.00073   0.91098
    D2        3.02556  -0.00000  -0.00003   0.00008   0.00004   3.02561
    D3       -1.17369   0.00002   0.00001   0.00038   0.00039  -1.17330
    D4       -3.02562   0.00000   0.00003  -0.00009  -0.00006  -3.02567
    D5       -0.91031  -0.00004  -0.00005  -0.00069  -0.00074  -0.91105
    D6        1.17363  -0.00002  -0.00001  -0.00039  -0.00040   1.17323
    D7       -1.05767   0.00002   0.00004   0.00030   0.00034  -1.05734
    D8        1.05764  -0.00002  -0.00004  -0.00031  -0.00035   1.05729
    D9        3.14157   0.00000  -0.00000  -0.00000  -0.00000   3.14157
   D10        1.20138   0.00001  -0.00006   0.00001  -0.00005   1.20133
   D11       -1.20205  -0.00001   0.00006  -0.00005   0.00001  -1.20203
   D12        3.14126  -0.00000  -0.00000  -0.00002  -0.00002   3.14125
         Item               Value     Threshold  Converged?
 Maximum Force            0.000315     0.000450     YES
 RMS     Force            0.000146     0.000300     YES
 Maximum Displacement     0.002789     0.001800     NO 
 RMS     Displacement     0.001067     0.001200     YES
 Predicted change in Energy=-1.082393D-06
 GradGradGradGradGradGradGradGradGradGradGradGradGradGradGradGradGradGrad

                          Input orientation:                          
 ---------------------------------------------------------------------
 Center     Atomic      Atomic             Coordinates (Angstroms)
 Number     Number       Type             X           Y           Z
 ---------------------------------------------------------------------
      1          8           0        0.757880    5.459610   -0.473981
      2         16           0       -0.461085    5.218590   -1.196435
      3          8           0       -1.606942    6.077656   -1.074290
[...]
 Vib (Bot)    6  0.563720D+00         -0.248937         -0.573198
 Vib (Bot)    7  0.363017D+00         -0.440072         -1.013304
 Vib (Bot)    8  0.335255D+00         -0.474625         -1.092865
 Vib (Bot)    9  0.267210D+00         -0.573147         -1.319720
 Vib (Bot)   10  0.267106D+00         -0.573317         -1.320111
 Vib (Bot)   11  0.256410D+00         -0.591065         -1.360977
 Vib (V=0)       0.515900D+02          1.712566          3.943328
 Vib (V=0)    1  0.532769D+01          0.726539          1.672919
 Vib (V=0)    2  0.176899D+01          0.247725          0.570409
 Vib (V=0)    3  0.170169D+01          0.230881          0.531623
 Vib (V=0)    4  0.129958D+01          0.113803          0.262040
 Vib (V=0)    5  0.125811D+01          0.099718          0.229608
 Vib (V=0)    6  0.125351D+01          0.098128          0.225949
 Vib (V=0)    7  0.111788D+01          0.048397          0.111438
 Vib (V=0)    8  0.110199D+01          0.042179          0.097120
 Vib (V=0)    9  0.106692D+01          0.028133          0.064778
 Vib (V=0)   10  0.106687D+01          0.028113          0.064732
 Vib (V=0)   11  0.106191D+01          0.026089          0.060072
 Electronic      0.100000D+01          0.000000          0.000000
 Translational   0.721799D+08          7.858416         18.094672
 Rotational      0.336420D+06          5.526882         12.726116
 ***** Axes restored to original set *****
 -------------------------------------------------------------------
 Center     Atomic                   Forces (Hartrees/Bohr)
 Number     Number              X              Y              Z
 -------------------------------------------------------------------
      1        8          -0.000035277   -0.000028903   -0.000028750
      2       16          -0.000002280    0.000040153    0.000044098
      3        8           0.000028237   -0.000046027   -0.000014107
      4        6           0.000031786    0.000095155   -0.000029789
      5        9           0.000048993   -0.000012671   -0.000002906
      6        9          -0.000041277    0.000011400   -0.000025612
      7        9          -0.000049661   -0.000125186    0.000066503
      8        8           0.000024097    0.000051224   -0.000049573
      9        1          -0.000004618    0.000014856    0.000040137
 -------------------------------------------------------------------
 Cartesian Forces:  Max     0.000125186 RMS     0.000045408
 FormGI is forming the generalized inverse of G from B-inverse, IUseBI=4.

 GradGradGradGradGradGradGradGradGradGradGradGradGradGradGradGradGradGrad
 Berny optimization.
 Internal  Forces:  Max     0.000147654 RMS     0.000036823
 Search for a local minimum.
 Step number   1 out of a maximum of    2
 All quantities printed in internal units (Hartrees-Bohrs-Radians)
 Second derivative matrix not updated -- analytic derivatives used.
 ITU=  0
     Eigenvalues ---   -0.00262   0.00128   0.08667   0.09068   0.10483
     Eigenvalues ---    0.10869   0.11756   0.12444   0.17248   0.19278
     Eigenvalues ---    0.21220   0.21799   0.27533   0.34226   0.39496
     Eigenvalues ---    0.44900   0.44912   0.52563   0.61001   0.73732
     Eigenvalues ---    0.74359
 Eigenvalue     1 is  -2.62D-03 should be greater than     0.000000 Eigenvector:
                          D10       D11       D12       D2        D1
   1                    0.57777   0.57776   0.56822   0.03548   0.03547
                          D5        D4        D3        D6        A3
   1                    0.03547   0.03546   0.03511   0.03510   0.02011
 Angle between quadratic step and forces=  51.19 degrees.
 Linear search not attempted -- first point.
 Iteration  1 RMS(Cart)=  0.00027815 RMS(Int)=  0.00000005
 Iteration  2 RMS(Cart)=  0.00000006 RMS(Int)=  0.00000001
 Variable       Old X    -DE/DX   Delta X   Delta X   Delta X     New X
                                 (Linear)    (Quad)   (Total)
    R1        2.71615  -0.00005   0.00000  -0.00006  -0.00006   2.71609
    R2        2.71615  -0.00005   0.00000  -0.00007  -0.00007   2.71608
    R3        3.48342  -0.00001   0.00000  -0.00005  -0.00005   3.48337
    R4        3.02968  -0.00007   0.00000  -0.00016  -0.00016   3.02952
    R5        2.48654   0.00004   0.00000   0.00009   0.00009   2.48663
    R6        2.48654   0.00004   0.00000   0.00009   0.00009   2.48663
    R7        2.49116  -0.00015   0.00000  -0.00028  -0.00028   2.49088
    R8        1.84175   0.00004   0.00000   0.00008   0.00008   1.84183
    A1        2.13313   0.00002   0.00000   0.00013   0.00013   2.13326
    A2        1.88965  -0.00001   0.00000  -0.00005  -0.00005   1.88960
    A3        1.92252  -0.00001   0.00000  -0.00010  -0.00010   1.92243
    A4        1.88964  -0.00001   0.00000  -0.00007  -0.00007   1.88957
    A5        1.92254  -0.00001   0.00000  -0.00007  -0.00007   1.92248
    A6        1.64161   0.00001   0.00000   0.00017   0.00017   1.64178
    A7        1.91577   0.00001   0.00000   0.00010   0.00010   1.91587
    A8        1.91577   0.00001   0.00000   0.00010   0.00010   1.91587
    A9        1.87105  -0.00005   0.00000  -0.00028  -0.00028   1.87077
   A10        1.92185   0.00002   0.00000   0.00009   0.00008   1.92193
   A11        1.91939   0.00001   0.00000  -0.00001  -0.00001   1.91938
   A12        1.91939   0.00001   0.00000  -0.00001  -0.00001   1.91938
   A13        1.93504  -0.00004   0.00000  -0.00030  -0.00030   1.93474
    D1        0.91098  -0.00003   0.00000  -0.00015  -0.00015   0.91083
    D2        3.02561   0.00001   0.00000   0.00008   0.00008   3.02569
    D3       -1.17330  -0.00001   0.00000  -0.00003  -0.00003  -1.17333
    D4       -3.02567  -0.00001   0.00000  -0.00008  -0.00008  -3.02575
    D5       -0.91105   0.00003   0.00000   0.00016   0.00016  -0.91089
    D6        1.17323   0.00001   0.00000   0.00004   0.00004   1.17327
    D7       -1.05734  -0.00002   0.00000  -0.00010  -0.00010  -1.05744
    D8        1.05729   0.00002   0.00000   0.00013   0.00013   1.05742
    D9        3.14157   0.00000   0.00000   0.00002   0.00002   3.14158
   D10        1.20133   0.00000   0.00000  -0.00034  -0.00034   1.20099
   D11       -1.20203  -0.00000   0.00000  -0.00037  -0.00037  -1.20240
   D12        3.14125  -0.00000   0.00000  -0.00035  -0.00035   3.14090
         Item               Value     Threshold  Converged?
 Maximum Force            0.000148     0.000450     YES
 RMS     Force            0.000037     0.000300     YES
 Maximum Displacement     0.000769     0.001800     YES
 RMS     Displacement     0.000278     0.001200     YES
 Predicted change in Energy=-6.254912D-08
 Optimization completed.
    -- Stationary point found.
                           ----------------------------
                           !   Optimized Parameters   !
                           ! (Angstroms and Degrees)  !
 --------------------------                            --------------------------
 ! Name  Definition              Value          Derivative Info.                !
 --------------------------------------------------------------------------------
 ! R1    R(1,2)                  1.4373         -DE/DX =    0.0                 !
 ! R2    R(2,3)                  1.4373         -DE/DX =   -0.0001              !
 ! R3    R(2,4)                  1.8433         -DE/DX =    0.0                 !
 ! R4    R(2,8)                  1.6032         -DE/DX =   -0.0001              !
 ! R5    R(4,5)                  1.3158         -DE/DX =    0.0                 !
 ! R6    R(4,6)                  1.3158         -DE/DX =    0.0                 !
 ! R7    R(4,7)                  1.3183         -DE/DX =   -0.0001              !
 ! R8    R(8,9)                  0.9746         -DE/DX =    0.0                 !
 ! A1    A(1,2,3)              122.2194         -DE/DX =    0.0                 !
 ! A2    A(1,2,4)              108.2691         -DE/DX =    0.0                 !
 ! A3    A(1,2,8)              110.1525         -DE/DX =    0.0                 !
 ! A4    A(3,2,4)              108.2684         -DE/DX =    0.0                 !
 ! A5    A(3,2,8)              110.1537         -DE/DX =    0.0                 !
 ! A6    A(4,2,8)               94.0573         -DE/DX =    0.0                 !
 ! A7    A(2,4,5)              109.7655         -DE/DX =    0.0                 !
 ! A8    A(2,4,6)              109.7656         -DE/DX =    0.0                 !
 ! A9    A(2,4,7)              107.2031         -DE/DX =   -0.0001              !
 ! A10   A(5,4,6)              110.1136         -DE/DX =    0.0                 !
 ! A11   A(5,4,7)              109.9729         -DE/DX =    0.0                 !
 ! A12   A(6,4,7)              109.9729         -DE/DX =    0.0                 !
 ! A13   A(2,8,9)              110.8699         -DE/DX =    0.0                 !
 ! D1    D(1,2,4,5)             52.1954         -DE/DX =    0.0                 !
 ! D2    D(1,2,4,6)            173.3544         -DE/DX =    0.0                 !
 ! D3    D(1,2,4,7)            -67.2251         -DE/DX =    0.0                 !
 ! D4    D(3,2,4,5)           -173.3584         -DE/DX =    0.0                 !
 ! D5    D(3,2,4,6)            -52.1994         -DE/DX =    0.0                 !
 ! D6    D(3,2,4,7)             67.2212         -DE/DX =    0.0                 !
 ! D7    D(8,2,4,5)            -60.5809         -DE/DX =    0.0                 !
 ! D8    D(8,2,4,6)             60.5781         -DE/DX =    0.0                 !
 ! D9    D(8,2,4,7)            179.9986         -DE/DX =    0.0                 !
 ! D10   D(1,2,8,9)             68.8312         -DE/DX =    0.0                 !
 ! D11   D(3,2,8,9)            -68.8714         -DE/DX =    0.0                 !
 ! D12   D(4,2,8,9)            179.9801         -DE/DX =    0.0                 !
 --------------------------------------------------------------------------------
 GradGradGradGradGradGradGradGradGradGradGradGradGradGradGradGradGradGrad


 ----------------------------------------------------------------------

 Electric dipole moment (input orientation):
 (Debye = 10**-18 statcoulomb cm , SI units = C m)
                  (au)            (Debye)         (10**-30 SI)
   Tot        0.913937D+00      0.232300D+01      0.774868D+01
   x         -0.275479D+00     -0.700199D+00     -0.233561D+01
   y         -0.843910D+00     -0.214501D+01     -0.715497D+01
   z          0.217273D+00      0.552254D+00      0.184212D+01

 Dipole polarizability, Alpha (input orientation).
 (esu units = cm**3 , SI units = C**2 m**2 J**-1)
 Alpha(0;0):
               (au)            (10**-24 esu)      (10**-40 SI)
   iso        0.344640D+02      0.510703D+01      0.568234D+01
   aniso      0.244125D+01      0.361756D+00      0.402507D+00
   xx         0.345789D+02      0.512406D+01      0.570129D+01
   yx        -0.201541D+00     -0.298653D-01     -0.332296D-01
   yy         0.332069D+02      0.492076D+01      0.547508D+01
   zx        -0.421294D+00     -0.624294D-01     -0.694621D-01
   zy        -0.565266D+00     -0.837638D-01     -0.931998D-01
   zz         0.356061D+02      0.527628D+01      0.587065D+01

 ----------------------------------------------------------------------

 Dipole orientation:
     8         -1.26291282          2.06094007        -10.17128033
    16         -3.70643050          1.17657743         -9.38095535
     8         -6.00831598          2.38172945        -10.17241010
     6         -3.93566278         -2.21675573        -10.13391033
     9         -1.97435597         -3.42123563         -9.19296684
     9         -6.04160752         -3.14630033         -9.19379050
     9         -3.94898697         -2.42130610        -12.61662089
     8         -3.73705005          0.73369062         -6.38397937
     1         -3.62831809          2.33620762         -5.48277351

 Electric dipole moment (dipole orientation):
 (Debye = 10**-18 statcoulomb cm , SI units = C m)
                  (au)            (Debye)         (10**-30 SI)
   Tot        0.913937D+00      0.232300D+01      0.774868D+01
   x          0.000000D+00      0.000000D+00      0.000000D+00
   y          0.000000D+00      0.000000D+00      0.000000D+00
   z          0.913937D+00      0.232300D+01      0.774868D+01

 Dipole polarizability, Alpha (dipole orientation).
 (esu units = cm**3 , SI units = C**2 m**2 J**-1)
 Alpha(0;0):
               (au)            (10**-24 esu)      (10**-40 SI)
   iso        0.344640D+02      0.510703D+01      0.568234D+01
   aniso      0.244125D+01      0.361756D+00      0.402507D+00
   xx         0.345281D+02      0.511654D+01      0.569292D+01
   yx         0.460472D-01      0.682349D-02      0.759215D-02
   yy         0.352002D+02      0.521614D+01      0.580374D+01
   zx         0.805300D-01      0.119333D-01      0.132776D-01
   zy         0.117664D+01      0.174360D+00      0.194002D+00
   zz         0.336635D+02      0.498842D+01      0.555036D+01

 ----------------------------------------------------------------------
 1\1\GINC-CHPC-CN075\Freq\RMN15\def2SVP\C1H1F3O3S1\B166370\16-Dec-2025\
 0\\#N Geom=AllCheck Guess=TCheck SCRF=Check GenChk RMN15/def2SVP Freq\
 \Gaussian job with default settings\\0,1\O,0.7578802535,5.4596098499,-
 0.47398061\S,-0.4610849383,5.2185902308,-1.1964353681\O,-1.6069421842,
 6.0776556621,-1.0742902801\C,-0.0495972408,5.0550833753,-2.9858109715\
 F,0.9053386811,4.1636107573,-3.1431454594\F,-1.1215557008,4.6932609632
 ,-3.657653824\F,0.3642143928,6.2361196974,-3.4002186892\O,-0.901430076
 7,3.684898486,-1.0406985713\H,-1.1825526164,3.4954521179,-0.1269412465
 \\Version=ES64L-G16RevB.01\State=1-A\HF=-960.7901097\RMSD=4.433e-09\RM
 SF=4.541e-05\ZeroPoint=0.0392483\Thermal=0.0465264\Dipole=-0.2754794,-
 0.84391,0.2172734\DipoleDeriv=-0.9041352,-0.1209913,-0.2698347,-0.0346
 341,-0.6029753,-0.034348,-0.197101,-0.0893832,-0.8278743,2.156685,0.02
 26162,0.1009679,0.0444169,2.2830217,-0.0654822,0.1234358,0.0205149,1.7
 112639,-0.904335,0.290631,0.1381375,0.1979928,-0.7713051,-0.081959,0.0
 588968,-0.0518103,-0.6593188,1.5554183,0.0177815,-0.0615658,0.0289762,
 1.5886436,-0.0590779,-0.0500217,-0.0149394,1.7168366,-0.6340101,0.3203
 439,0.1809271,0.328288,-0.5546703,-0.131579,0.1752664,-0.1223371,-0.46
 40155,-0.6373702,-0.1339059,-0.2947855,-0.1374655,-0.31403,-0.1257166,
 -0.2846202,-0.1176905,-0.7012905,-0.342713,-0.1881782,0.1307987,-0.189
 0823,-0.7437803,0.2472232,0.1298601,0.2436444,-0.5211124,-0.6641307,-0
 .2364998,0.0910481,-0.2587583,-1.2440744,0.3350883,0.0681737,0.2474497
 ,-0.5929292,0.3745907,0.0282027,-0.0156934,0.0202663,0.3591701,-0.0841
 489,-0.0238899,-0.1154485,0.3384401\Polar=34.5788826,-0.2015408,33.206
 9045,-0.4212943,-0.5652662,35.6060913\Quadrupole=-2.6506533,-0.1595098
 ,2.8101631,2.0653263,-2.8230558,-4.2817062\PG=C01 [X(C1H1F3O3S1)]\NIma
 g=1\\0.54241048,0.09500949,0.08387993,0.29324028,0.06354126,0.22563447
 ,-0.51951541,-0.08448832,-0.26361676,1.14659091,-0.07891513,-0.0972130
 2,-0.05072620,-0.15031633,0.70598824,-0.26397601,-0.05090497,-0.259952
 05,0.16105587,0.05592594,0.64991555,-0.01535016,0.02464825,0.00077003,
 -0.47975684,0.28832898,0.05228099,0.48898606,-0.00771843,0.01420638,-0
 .00494702,0.29339172,-0.29466054,-0.03500105,-0.32173906,0.30535774,-0
 .02110113,0.00898448,0.02197944,0.05139462,-0.03719390,-0.10227237,-0.
 04454421,0.04248395,0.05758905,-0.01426568,-0.00486972,-0.02939915,-0.
 02561679,0.00142655,0.03547239,-0.00918989,0.00774109,0.01077360,0.627
 42140,-0.00097389,0.00025584,-0.00379459,0.00552388,-0.01787654,-0.022
 69239,0.01067738,-0.00643058,-0.01099749,-0.00146540,0.62665175,0.0104
 7192,0.00004210,0.01380136,0.03969307,-0.00654184,-0.18008912,-0.02206
 371,0.01208427,0.01541317,0.02097853,-0.00090937,0.54954090,0.00723690
 ,-0.00219981,0.00451258,-0.01890572,0.02246854,-0.00610133,-0.00275498
 ,0.00135881,0.00761364,-0.22604249,0.13773037,0.04273459,0.29542247,-0
 .00439176,0.00258519,-0.00153981,0.01758545,-0.01607570,0.00474940,0.0
 0241136,-0.00059240,-0.00575807,0.13579527,-0.20117567,-0.03802201,-0.
 19918805,0.26933703,-0.00307159,0.00200268,-0.00164115,0.02105915,-0.0
 2251536,0.00452207,0.00641855,-0.00346469,-0.00846328,0.04665856,-0.04
 309127,-0.09455007,-0.03127422,0.03183187,0.07161545,0.00194938,-0.000
 17982,-0.00428552,-0.01893902,-0.00614318,-0.00331009,0.00719033,-0.00
 151768,-0.00003382,-0.24351025,-0.05919445,-0.12422621,-0.07080677,0.0
 1509145,-0.02943873,0.35101317,-0.00022505,0.00017769,-0.00300557,-0.0
 1085390,-0.00116460,-0.00320176,0.00112481,0.00096828,0.00104526,-0.05
 929159,-0.09754398,-0.04507319,0.02920001,0.01344062,0.01492465,0.0913
 2778,0.11370895,-0.00205300,-0.00132834,-0.01393731,-0.04034701,-0.013
 73479,-0.01035343,0.00801424,-0.00072442,0.00002153,-0.13024397,-0.048
 01234,-0.18071122,-0.01329873,0.00712580,0.01351334,0.17282335,0.05593
 164,0.17164915,0.00383129,0.00254521,0.00408232,-0.00149500,-0.0159560
 9,0.00009328,0.00039921,0.00179516,-0.00026029,-0.10687945,-0.07929990
 ,0.03832835,0.01515232,0.03309836,-0.01083533,-0.03070290,-0.05389844,
 0.00106515,0.12102303,0.00471477,0.00440057,0.00356020,-0.00710244,-0.
 02477704,-0.00030475,-0.00421688,0.00716582,0.00219971,-0.07744774,-0.
 28137519,0.09412468,0.01570668,-0.07461016,0.01621723,-0.04346754,-0.0
 3328284,-0.00495511,0.11367346,0.40351488,-0.00311772,-0.00368292,-0.0
 0286394,0.00920817,0.03457459,0.00201884,0.00298321,-0.00569610,-0.002
 19669,0.04023711,0.10142553,-0.13052734,-0.00561616,0.00373604,0.01647
 973,-0.01132037,-0.01989827,0.02100733,-0.03693022,-0.11678200,0.10721
 103,-0.00494374,-0.03274143,-0.00151452,-0.08526340,-0.05312230,0.0120
 2390,0.01380442,0.02474382,-0.00447030,-0.00238943,-0.01133340,-0.0059
 1925,0.00054894,-0.00042258,0.00092894,0.00382942,0.00217108,0.0041691
 8,-0.00125671,-0.00181254,0.00436158,0.11833592,-0.00922499,-0.0100735
 7,-0.00006766,-0.04787552,-0.23817649,0.01372359,-0.00394605,-0.027754
 22,0.00329045,-0.00032371,-0.01649271,-0.01473884,-0.00532205,0.006170
 36,0.00444593,0.00365809,0.00292102,0.00609781,-0.00140557,-0.00049949
 ,0.00468951,0.09937539,0.32222265,-0.00741915,-0.01604960,0.01869167,0
 .01744134,0.03444030,-0.10161944,-0.00389777,-0.00112797,0.01763017,0.
 00542032,0.02865610,0.00722342,0.00206008,-0.00222218,-0.00199061,-0.0
 0047672,-0.00068344,-0.00202321,0.00478440,0.00629676,-0.01204282,-0.1
 5070587,-0.11562863,0.52954738,-0.00135307,0.00227617,-0.00378926,0.00
 290128,-0.00777104,0.01246100,-0.00332816,0.00194458,0.00062788,0.0004
 7259,-0.00166459,0.00000271,0.00014933,0.00002051,-0.00044532,-0.00002
 336,0.00044530,-0.00012922,-0.00007180,-0.00004776,0.00019439,-0.04266
 542,-0.03493559,0.13279337,0.04391861,0.00172499,0.00178098,-0.0030206
 1,-0.01586453,-0.01604431,0.03770600,0.00271121,0.00173952,-0.00405440
 ,-0.00156475,-0.00601292,-0.00096579,0.00024552,0.00092072,-0.00035104
 ,0.00042536,0.00077487,-0.00040026,-0.00055218,-0.00053655,0.00163361,
 -0.02685802,-0.03831756,0.06631866,0.03973242,0.05569526,-0.00297360,-
 0.00260469,-0.00171249,0.00411155,0.00577126,-0.00217003,0.00003865,-0
 .00360697,0.00029899,0.00010261,-0.00058419,-0.00010109,-0.00063044,0.
 00009896,0.00051452,0.00026811,-0.00003932,0.00083384,-0.00032767,-0.0
 0035672,0.00091387,0.14112634,0.09818785,-0.45541656,-0.14171555,-0.09
 686617,0.45683896\\0.00003528,0.00002890,0.00002875,0.00000228,-0.0000
 4015,-0.00004410,-0.00002824,0.00004603,0.00001411,-0.00003179,-0.0000
 9515,0.00002979,-0.00004899,0.00001267,0.00000291,0.00004128,-0.000011
 40,0.00002561,0.00004966,0.00012519,-0.00006650,-0.00002410,-0.0000512
 2,0.00004957,0.00000462,-0.00001486,-0.00004014\\\@


 A MAN IS NEVER SO BRILLIANT AS WHEN HE TAKES THE WORDS RIGHT OUT
 OF YOUR MOUTH. -- ARNOT SHEPPARD, JR.
 Job cpu time:       0 days  0 hours  7 minutes  2.4 seconds.
 Elapsed time:       0 days  0 hours  0 minutes  6.9 seconds.
 File lengths (MBytes):  RWF=     25 Int=      0 D2E=      0 Chk=      2 Scr=      1
 Normal termination of Gaussian 16 at Tue Dec 16 12:46:28 2025.
