9
OTf_opt.xyz    Empirical formula: CHF3O3S    Energy(Hartree): -960.790110    
O        1.2526570000   -0.7075640000    1.2586500000
S        0.8450180000   -0.1457710000    0.0000290000
O        1.2526020000   -0.7083860000   -1.2582400000
C       -0.9926170000   -0.0007950000    0.0000100000
F       -1.3883580000    0.6409020000    1.0784310000
F       -1.3883880000    0.6402720000   -1.0787770000
F       -1.4803400000   -1.2255190000    0.0003740000
O        1.0838770000    1.4395720000   -0.0004770000
H        2.0361130000    1.6472240000   -0.0002400000
