 Entering Gaussian System, Link 0=/home/gaussian/programs/g16/g16
 Input=/home/gaussian/scratch/pop1_ketone_model_opt_radical_anion_r1s50_gas/pop1_ketone_model_opt_radical_anion_r1s50_gas.com
 Output=/home/gaussian/scratch/pop1_ketone_model_opt_radical_anion_r1s50_gas/pop1_ketone_model_opt_radical_anion_r1s50_gas.log
 Initial command:
 /home/gaussian/programs/g16/l1.exe "/home/gaussian/scratch/pop1_ketone_model_opt_radical_anion_r1s50_gas/Gau-110016.inp" -scrdir="/home/gaussian/scratch/pop1_ketone_model_opt_radical_anion_r1s50_gas/"
 Entering Link 1 = /home/gaussian/programs/g16/l1.exe PID=    110018.

 Copyright (c) 1988-2017, Gaussian, Inc.  All Rights Reserved.

 This is part of the Gaussian(R) 16 program.  It is based on
 the Gaussian(R) 09 system (copyright 2009, Gaussian, Inc.),
 the Gaussian(R) 03 system (copyright 2003, Gaussian, Inc.),
 the Gaussian(R) 98 system (copyright 1998, Gaussian, Inc.),
 the Gaussian(R) 94 system (copyright 1995, Gaussian, Inc.),
 the Gaussian 92(TM) system (copyright 1992, Gaussian, Inc.),
 the Gaussian 90(TM) system (copyright 1990, Gaussian, Inc.),
 the Gaussian 88(TM) system (copyright 1988, Gaussian, Inc.),
 the Gaussian 86(TM) system (copyright 1986, Carnegie Mellon
 University), and the Gaussian 82(TM) system (copyright 1983,
 Carnegie Mellon University). Gaussian is a federally registered
 trademark of Gaussian, Inc.

 This software contains proprietary and confidential information,
 including trade secrets, belonging to Gaussian, Inc.

 This software is provided under written license and may be
 used, copied, transmitted, or stored only in accord with that
 written license.

 The following legend is applicable only to US Government
 contracts under FAR:

                    RESTRICTED RIGHTS LEGEND

 Use, reproduction and disclosure by the US Government is
 subject to restrictions as set forth in subparagraphs (a)
 and (c) of the Commercial Computer Software - Restricted
 Rights clause in FAR 52.227-19.

 Gaussian, Inc.
 340 Quinnipiac St., Bldg. 40, Wallingford CT 06492


 ---------------------------------------------------------------
 Warning -- This program may not be used in any manner that
 competes with the business of Gaussian, Inc. or will provide
 assistance to any competitor of Gaussian, Inc.  The licensee
 of this program is prohibited from giving any competitor of
 Gaussian, Inc. access to this program.  By using this program,
 the user acknowledges that Gaussian, Inc. is engaged in the
 business of creating and licensing software in the field of
 computational chemistry and represents and warrants to the
 licensee that it is not a competitor of Gaussian, Inc. and that
 it will not use this program in any manner prohibited above.
 ---------------------------------------------------------------


 Cite this work as:
 Gaussian 16, Revision B.01,
 M. J. Frisch, G. W. Trucks, H. B. Schlegel, G. E. Scuseria,
 M. A. Robb, J. R. Cheeseman, G. Scalmani, V. Barone,
 G. A. Petersson, H. Nakatsuji, X. Li, M. Caricato, A. V. Marenich,
 J. Bloino, B. G. Janesko, R. Gomperts, B. Mennucci, H. P. Hratchian,
 J. V. Ortiz, A. F. Izmaylov, J. L. Sonnenberg, D. Williams-Young,
 F. Ding, F. Lipparini, F. Egidi, J. Goings, B. Peng, A. Petrone,
 T. Henderson, D. Ranasinghe, V. G. Zakrzewski, J. Gao, N. Rega,
 G. Zheng, W. Liang, M. Hada, M. Ehara, K. Toyota, R. Fukuda,
 J. Hasegawa, M. Ishida, T. Nakajima, Y. Honda, O. Kitao, H. Nakai,
 T. Vreven, K. Throssell, J. A. Montgomery, Jr., J. E. Peralta,
 F. Ogliaro, M. J. Bearpark, J. J. Heyd, E. N. Brothers, K. N. Kudin,
 V. N. Staroverov, T. A. Keith, R. Kobayashi, J. Normand,
 K. Raghavachari, A. P. Rendell, J. C. Burant, S. S. Iyengar,
 J. Tomasi, M. Cossi, J. M. Millam, M. Klene, C. Adamo, R. Cammi,
 J. W. Ochterski, R. L. Martin, K. Morokuma, O. Farkas,
 J. B. Foresman, and D. J. Fox, Gaussian, Inc., Wallingford CT, 2016.

 ******************************************
 Gaussian 16:  ES64L-G16RevB.01 20-Dec-2017
                 5-May-2024
 ******************************************
 %chk=pop1_ketone_model_opt_radical_anion_r1s50_gas.chk
 %nprocshared=64
 Will use up to   64 processors via shared memory.
 %mem=64GB
 ----------------------------------------------
 # cam-b3lyp gen TD(singlets,nstates=50,root=1)
 ----------------------------------------------
 1/38=1,172=1/1;
 2/12=2,17=6,18=5,40=1/2;
 3/5=7,11=9,25=1,30=1,74=-40/1,2,3,8;
 4//1;
 5/5=2,38=5/2;
 8/6=1,10=1,107=1,108=50/1;
 9/8=1,41=50,42=1,48=1,70=2/14;
 6/7=2,8=2,9=2,10=2/1;
 99/5=1,9=1/99;
 ------------
 Gaussian job
 ------------
 Symbolic Z-matrix:
 Charge = -1 Multiplicity = 2
 O                    -7.63162  -0.05698  -0.06024
 C                    -6.39889  -0.0425   -0.04121
 C                    -5.59863  -1.09068   0.59135
 C                    -5.60461   1.02569  -0.64794
 C                    -4.23318  -1.07211   0.59436
 C                    -4.23973   1.04039  -0.60992
 C                    -3.47681  -0.00772   0.00245
 H                    -3.68727  -1.85905   1.12012
 H                    -3.69753   1.8417   -1.1171
 H                     0.55081  -0.84588   0.78657
 C                    -2.04313   0.00477   0.01859
 C                    -1.35717   1.2546    0.1716
 C                    -1.33811  -1.22664  -0.11869
 C                    -1.89002   2.46423   0.66151
 N                    -0.02022   1.50361  -0.10401
 N                     0.00737  -1.45526   0.18443
 C                    -1.83698  -2.44214  -0.62914
 C                    -0.88956   3.42791   0.62979
 H                    -2.90621   2.57472   1.02891
 C                     0.28882   2.81048   0.15087
 H                     0.64627   0.87982  -0.54734
 C                     0.3372   -2.77078  -0.06304
 C                    -0.82924  -3.39181  -0.57634
 H                    -2.83741  -2.56057  -1.03588
 H                    -0.95273   4.46261   0.95597
 C                     1.56707   3.39855  -0.01392
 C                     1.59645  -3.38028   0.10626
 H                    -0.86683  -4.41983  -0.92661
 C                     2.78493   2.7394   -0.16072
 H                     1.59807   4.48536   0.07044
 C                     2.85545  -2.77387   0.18493
 H                     1.59944  -4.46844   0.04682
 N                     3.0068    1.39971  -0.1628
 C                     4.04936   3.47506  -0.24223
 N                     3.13885  -1.43565   0.08234
 C                     4.11519  -3.44039   0.29098
 C                     4.36579   1.24633  -0.19219
 C                     5.03057   2.5435   -0.26497
 H                     4.13796   4.56001  -0.26152
 C                     4.49936  -1.22074   0.07153
 H                     2.51587  -0.64553  -0.08044
 C                     5.11689  -2.48751   0.21583
 H                     4.22415  -4.51688   0.39743
 C                     5.07103   0.05159  -0.08516
 H                     6.10887   2.69051  -0.30418
 H                     6.19181  -2.64787   0.25353
 H                     6.16057   0.10295  -0.10134
 H                    -6.15266  -1.88591   1.09473
 H                    -6.16223   1.80926  -1.16545

                          Input orientation:
 ---------------------------------------------------------------------
 Center     Atomic      Atomic             Coordinates (Angstroms)
 Number     Number       Type             X           Y           Z
 ---------------------------------------------------------------------
      1          8           0       -7.631618   -0.056977   -0.060239
      2          6           0       -6.398892   -0.042500   -0.041214
      3          6           0       -5.598628   -1.090682    0.591347
      4          6           0       -5.604605    1.025686   -0.647935
      5          6           0       -4.233181   -1.072106    0.594358
      6          6           0       -4.239730    1.040393   -0.609922
      7          6           0       -3.476807   -0.007723    0.002454
      8          1           0       -3.687265   -1.859045    1.120116
      9          1           0       -3.697531    1.841695   -1.117102
     10          1           0        0.550812   -0.845881    0.786567
     11          6           0       -2.043129    0.004773    0.018589
     12          6           0       -1.357166    1.254601    0.171601
     13          6           0       -1.338113   -1.226638   -0.118692
     14          6           0       -1.890023    2.464234    0.661510
     15          7           0       -0.020220    1.503607   -0.104013
     16          7           0        0.007369   -1.455257    0.184427
     17          6           0       -1.836983   -2.442142   -0.629143
     18          6           0       -0.889559    3.427907    0.629788
     19          1           0       -2.906210    2.574722    1.028906
     20          6           0        0.288824    2.810475    0.150874
     21          1           0        0.646265    0.879819   -0.547335
     22          6           0        0.337199   -2.770781   -0.063040
     23          6           0       -0.829242   -3.391811   -0.576341
     24          1           0       -2.837407   -2.560572   -1.035884
     25          1           0       -0.952731    4.462610    0.955974
     26          6           0        1.567070    3.398551   -0.013916
     27          6           0        1.596452   -3.380283    0.106262
     28          1           0       -0.866831   -4.419830   -0.926611
     29          6           0        2.784930    2.739401   -0.160721
     30          1           0        1.598069    4.485358    0.070438
     31          6           0        2.855451   -2.773868    0.184929
     32          1           0        1.599440   -4.468441    0.046820
     33          7           0        3.006801    1.399706   -0.162797
     34          6           0        4.049357    3.475060   -0.242226
     35          7           0        3.138849   -1.435648    0.082344
     36          6           0        4.115189   -3.440386    0.290977
     37          6           0        4.365794    1.246332   -0.192185
     38          6           0        5.030575    2.543495   -0.264967
     39          1           0        4.137961    4.560006   -0.261515
     40          6           0        4.499355   -1.220740    0.071530
     41          1           0        2.515873   -0.645530   -0.080444
     42          6           0        5.116894   -2.487509    0.215833
     43          1           0        4.224150   -4.516882    0.397425
     44          6           0        5.071032    0.051594   -0.085161
     45          1           0        6.108868    2.690507   -0.304179
     46          1           0        6.191813   -2.647871    0.253525
     47          1           0        6.160574    0.102953   -0.101339
     48          1           0       -6.152659   -1.885907    1.094733
     49          1           0       -6.162227    1.809264   -1.165450
 ---------------------------------------------------------------------
                    Distance matrix (angstroms):
                    1          2          3          4          5
     1  O    0.000000
     2  C    1.232958   0.000000
     3  C    2.371953   1.462615   0.000000
     4  C    2.371988   1.462882   2.452523   0.000000
     5  C    3.606710   2.480795   1.365577   2.797289   0.000000
     6  C    3.607115   2.481545   2.798416   1.365483   2.431663
     7  C    4.155576   2.922618   2.453919   2.453256   1.433654
     8  H    4.494286   3.464310   2.126802   3.888942   1.092574
     9  H    4.494325   3.464834   3.889962   2.126716   3.421440
    10  H    8.263874   7.044787   6.157406   6.591640   4.793194
    11  C    5.589386   4.356430   3.764259   3.764390   2.507490
    12  C    6.414260   5.210255   4.864827   4.331833   3.723406
    13  C    6.401541   5.198045   4.321415   4.853454   2.985589
    14  C    6.312158   5.206480   5.137714   4.193112   4.242711
    15  N    7.769860   6.563676   6.191324   5.631129   4.987089
    16  N    7.769760   6.564067   5.632557   6.192104   4.277512
    17  C    6.292095   5.187963   4.179236   5.120660   3.019225
    18  C    7.620755   6.545740   6.526443   5.443795   5.606352
    19  H    5.517387   4.493755   4.569000   3.534493   3.905002
    20  C    8.426165   7.273370   7.076379   6.209354   5.976591
    21  H    8.344950   7.123276   6.646665   6.253381   5.377961
    22  C    8.418241   7.267662   6.203628   7.075330   4.919964
    23  C    7.593405   6.521138   5.422705   6.505651   4.282332
    24  H    5.495847   4.473727   3.526017   4.546332   2.611782
    25  H    8.128154   7.138002   7.249577   6.002075   6.444005
    26  C    9.826428   8.677449   8.477428   7.580593   7.348448
    27  C    9.809657   8.665337   7.566159   8.475647   6.288922
    28  H    8.096137   7.109757   5.981415   7.223421   4.985270
    29  C   10.785838   9.596658   9.247658   8.576625   8.021946
    30  H   10.287711   9.190503   9.118992   8.022712   8.072383
    31  C   10.836061   9.651651   8.629585   9.311435   7.301529
    32  H   10.231564   9.141664   7.969815   9.086604   6.771585
    33  N   10.738175   9.516396   8.990227   8.633166   7.687684
    34  C   12.204654  11.026311  10.706281   9.968100   9.485622
    35  N   10.859283   9.639742   8.759086   9.112599   7.398726
    36  C   12.229402  11.054496   9.998478  10.737865   8.683091
    37  C   12.068717  10.842617  10.264758   9.983248   8.940703
    38  C   12.928090  11.720501  11.265899  10.749766   9.981392
    39  H   12.644368  11.500298  11.289766  10.371033  10.125671
    40  C   12.187379  10.962333  10.112190  10.375648   8.749436
    41  H   10.164565   8.935224   8.154421   8.310064   6.796106
    42  C   12.981073  11.775291  10.812703  11.315440   9.464172
    43  H   12.675151  11.535230  10.404971  11.332134   9.134096
    44  C   12.703138  11.470394  10.751935  10.734747   9.396426
    45  H   14.014604  12.805567  12.335511  11.836184  11.041857
    46  H   14.067637  12.860820  11.897624  12.388024  10.548919
    47  H   13.793180  12.560452  11.839908  11.813960  10.483077
    48  H    2.620356   2.179256   1.092122   3.437241   2.144072
    49  H    2.619820   2.179208   3.437101   1.092135   3.888500
                    6          7          8          9         10
     6  C    0.000000
     7  C    1.433737   0.000000
     8  H    3.421256   2.172753   0.000000
     9  H    1.092381   2.173125   4.324434   0.000000
    10  H    5.334558   4.187966   4.370246   5.375448   0.000000
    11  C    2.508504   1.433823   2.718522   2.720500   2.835830
    12  C    2.994301   2.472843   4.002978   2.735460   2.903547
    13  C    3.714851   2.464638   2.730036   3.997292   2.128969
    14  C    3.027373   3.010450   4.704375   2.611149   4.114630
    15  N    4.274901   3.774049   5.123782   3.829265   2.576685
    16  N    4.989700   3.777294   3.832607   5.127393   1.014516
    17  C    4.231030   3.002388   2.612174   4.695849   3.202163
    18  C    4.296597   4.346372   6.001620   3.667751   4.512706
    19  H    2.611168   2.836936   4.502961   2.401847   4.869318
    20  C    4.921362   4.705767   6.209117   4.293871   3.720441
    21  H    4.889033   4.253201   5.390849   4.485354   2.183219
    22  C    5.981004   4.710140   4.292718   6.218121   2.114876
    23  C    5.592583   4.335511   3.660005   5.992419   3.200598
    24  H    3.887789   2.829137   2.421308   4.486242   4.212068
    25  H    4.996795   5.221498   6.889698   4.324438   5.519911
    26  C    6.295638   6.086351   7.519068   5.599718   4.437201
    27  C    7.356379   6.092856   5.591040   7.536042   2.824778
    28  H    6.425790   5.209782   4.324530   6.874289   4.209252
    29  C    7.241150   6.839786   8.042111   6.613837   4.329305
    30  H    6.812530   6.778404   8.323943   6.036769   5.480118
    31  C    8.094564   6.912478   6.672227   8.120362   3.064386
    32  H    8.054469   6.757829   5.992509   8.320483   3.843148
    33  N    7.269198   6.636666   7.554856   6.786319   3.460612
    34  C    8.647067   8.296553   9.495471   7.965398   5.654093
    35  N    7.813670   6.768475   6.917519   7.675659   2.746214
    36  C    9.523322   8.336955   8.004149   9.535285   4.436423
    37  C    8.618118   7.944616   8.730250   8.138006   4.459753
    38  C    9.397705   8.885706   9.864155   8.797641   5.715056
    39  H    9.093666   8.883610  10.215052   8.337636   6.571889
    40  C    9.052552   8.068168   8.278147   8.830645   4.030234
    41  H    6.982897   6.027096   6.433730   6.772543   2.157154
    42  C   10.033662   8.946875   8.872762   9.910238   4.885671
    43  H   10.175231   8.932707   8.377163  10.270264   5.207791
    44  C    9.377814   8.548494   9.044943   9.008721   4.690177
    45  H   10.483789   9.962913  10.894552   9.876578   6.677406
    46  H   11.098014  10.025748   9.948337  10.946869   5.945771
    47  H   10.454845   9.638575  10.115400  10.061671   5.758306
    48  H    3.889522   3.446858   2.465671   4.981454   6.790666
    49  H    2.143774   3.446291   4.980536   2.465383   7.478306
                   11         12         13         14         15
    11  C    0.000000
    12  C    1.433886   0.000000
    13  C    1.425576   2.498235   0.000000
    14  C    2.546711   1.409666   3.812592   0.000000
    15  N    2.520654   1.387585   3.031715   2.237184   0.000000
    16  N    2.522644   3.034049   1.398023   4.380652   2.973018
    17  C    2.539576   3.812784   1.409568   5.073571   4.375537
    18  C    3.663623   2.269769   4.735632   1.389460   2.235429
    19  H    2.893145   2.208445   4.269221   1.086197   3.280203
    20  C    3.650680   2.265051   4.360948   2.264510   1.366887
    21  H    2.884236   2.161265   2.925517   3.225590   1.014814
    22  C    3.657366   4.373743   2.279067   5.735056   4.289501
    23  C    3.655714   4.735743   2.270763   6.078717   4.984248
    24  H    2.885097   4.266694   2.206469   5.387704   5.032144
    25  H    4.684012   3.327181   5.802669   2.226821   3.278544
    26  C    4.955030   3.630715   5.462915   3.644261   2.473544
    27  C    4.971201   5.496388   3.646980   6.828044   5.148808
    28  H    4.674847   5.800488   3.327359   7.138584   6.039911
    29  C    5.551621   4.412712   5.721076   4.754678   3.065823
    30  H    5.773790   4.379662   6.425250   4.074444   3.397077
    31  C    5.634235   5.828798   4.480188   7.084092   5.162341
    32  H    5.768774   6.442849   4.377887   7.785639   6.189621
    33  N    5.242188   4.379165   5.077195   5.078542   3.029374
    34  C    7.016360   5.859367   7.151647   6.092187   4.524067
    35  N    5.378826   5.240187   4.486345   6.390154   4.318989
    36  C    7.061742   7.211368   5.899747   8.429971   6.457607
    37  C    6.531477   5.734517   6.217358   6.430189   4.394438
    38  C    7.520825   6.531085   7.402397   6.982787   5.159244
    39  H    7.683390   6.427263   7.968252   6.448320   5.163027
    40  C    6.656484   6.358944   5.840569   7.399410   5.280098
    41  H    4.606213   4.321395   3.897737   5.443624   3.324321
    42  C    7.583950   7.477887   6.585501   8.591581   6.513160
    43  H    7.737420   8.031943   6.483121   9.283794   7.383252
    44  C    7.115072   6.544836   6.535453   7.405041   5.294294
    45  H    8.589086   7.617733   8.416410   8.060150   6.246160
    46  H    8.654824   8.498417   7.671912   9.571632   7.480104
    47  H    8.205167   7.610335   7.615669   8.424352   6.337512
    48  H    4.649838   5.806179   5.008681   6.105856   7.108629
    49  H    4.650280   5.018363   5.795212   4.692387   6.240539
                   16         17         18         19         20
    16  N    0.000000
    17  C    2.244431   0.000000
    18  C    4.984789   6.077828   0.000000
    19  H    5.044087   5.390853   2.225781   0.000000
    20  C    4.275139   5.719918   1.413919   3.321861   0.000000
    21  H    2.529080   4.148330   3.199551   4.239966   2.083913
    22  C    1.378634   2.270582   6.356782   6.347161   5.585563
    23  C    2.242527   1.385713   6.925817   6.518445   6.344073
    24  H    3.286888   1.086422   6.513866   5.535281   6.326916
    25  H    6.044686   7.139335   1.086737   2.717631   2.217926
    26  C    5.102103   6.788209   2.539733   4.666520   1.416652
    27  C    2.497403   3.634475   7.266759   7.522454   6.327509
    28  H    3.284406   2.222821   8.000617   7.543664   7.400934
    29  C    5.042730   6.959158   3.821101   5.816477   2.516483
    30  H    6.150953   7.763971   2.760320   4.985752   2.127399
    31  C    3.138520   4.774065   7.258444   7.906734   6.146025
    32  H    3.410704   4.046210   8.299836   8.418522   7.396699
    33  N    4.155475   6.199961   4.463565   6.145284   3.078321
    34  C    6.389658   8.355357   5.015528   7.127854   3.838985
    35  N    3.133205   5.126222   6.338922   7.315858   5.114382
    36  C    4.563581   6.105036   8.505042   9.275026   7.330345
    37  C    5.141623   7.229814   5.749230   7.492511   4.380173
    38  C    6.436192   8.494266   6.052335   8.041619   4.767432
    39  H    7.310543   9.212230   5.229916   7.431479   4.248150
    40  C    4.499520   6.490912   7.138765   8.376425   5.829714
    41  H    2.649228   4.740911   5.356705   6.403098   4.117915
    42  C    5.212847   7.005173   8.440437   9.521422   7.168202
    43  H    5.215377   6.488122   9.451121  10.076291   8.320922
    44  C    5.289987   7.364462   6.887618   8.440599   5.525998
    45  H    7.392860   9.465001   7.098876   9.113844   5.839039
    46  H    6.298766   8.079789   9.338227  10.519064   8.040482
    47  H    6.353866   8.409340   7.829064   9.465393   6.470837
    48  H    6.241800   4.680407   7.493532   5.517334   8.027427
    49  H    7.109373   6.088498   5.800337   4.000346   6.659669
                   21         22         23         24         25
    21  H    0.000000
    22  C    3.695530   0.000000
    23  C    4.519379   1.417653   0.000000
    24  H    4.920461   3.326971   2.221456   0.000000
    25  H    4.201561   7.417834   8.003447   7.539535   0.000000
    26  C    2.734306   6.290918   7.222718   7.480306   2.902121
    27  C    4.413447   1.409210   2.519935   4.651401   8.290435
    28  H    5.524454   2.216936   1.086704   2.711448   9.080157
    29  C    2.860315   6.030177   7.129287   7.776008   4.264571
    30  H    3.779879   7.366082   8.268008   8.398960   2.700236
    31  C    4.331991   2.530433   3.812919   5.826192   8.213609
    32  H    5.464929   2.118342   2.728728   4.949528   9.332942
    33  N    2.447505   4.952746   6.151819   7.113427   5.129417
    34  C    4.290618   7.267926   8.430082   9.191641   5.237540
    35  N    3.459893   3.106921   4.472827   6.183165   7.231439
    36  C    5.603603   3.853168   5.020159   7.132547   9.411874
    37  C    3.754379   5.690646   6.974837   8.190876   6.320555
    38  C    4.697842   7.092960   8.346392   9.410152   6.401066
    39  H    5.081084   8.259880   9.381024   9.997902   5.235161
    40  C    4.431890   4.443453   5.790270   7.539867   7.925147
    41  H    2.457664   3.043619   4.356348   5.765228   6.260868
    42  C    5.648703   4.796196   6.066452   8.052517   9.257014
    43  H    6.543563   4.285940   5.267901   7.466399  10.379949
    44  C    4.525276   5.511394   6.849199   8.382762   7.538352
    45  H    5.760013   7.949590   9.230711  10.399282   7.388810
    46  H    6.621108   5.864454   7.108962   9.121240  10.104300
    47  H    5.586594   6.493960   7.829210   9.430345   8.409734
    48  H    7.521369   6.651443   5.779187   3.998199   8.207446
    49  H    6.899384   8.027120   7.472547   5.492420   6.219287
                   26         27         28         29         30
    26  C    0.000000
    27  C    6.779963   0.000000
    28  H    8.239173   2.866225   0.000000
    29  C    1.392556   6.239735   8.073199   0.000000
    30  H    1.090516   7.865723   9.293665   2.123779   0.000000
    31  C    6.308583   1.399645   4.219016   5.524544   7.368207
    32  H    7.867293   1.089784   2.651872   7.307629   8.953830
    33  N    2.467868   4.990969   7.032456   1.357945   3.400025
    34  C    2.493938   7.289301   9.325587   1.465132   2.669695
    35  N    5.084214   2.482170   5.095960   4.197067   6.118207
    36  C    7.304583   2.526216   5.221336   6.337459   8.318771
    37  C    3.535065   5.400360   7.747589   2.174713   4.268555
    38  C    3.576313   6.857270   9.149047   2.256583   3.957957
    39  H    2.831919   8.345221  10.301832   2.270563   2.562580
    40  C    5.472060   3.618242   6.326643   4.321563   6.401329
    41  H    4.154425   2.891205   5.138485   3.396556   5.214513
    42  C    6.877480   3.633533   6.390932   5.735890   7.811795
    43  H    8.359626   2.877747   5.261234   7.418661   9.383152
    44  C    4.846127   4.887446   7.480634   3.529345   5.634177
    45  H    4.605812   7.575279   9.980215   3.327392   4.869203
    46  H    7.617020   4.655691   7.372721   6.387578   8.486399
    47  H    5.654104   5.745193   8.397682   4.283615   6.328620
    48  H    9.420659   7.953550   6.200530  10.141506  10.085434
    49  H    7.974578   9.420496   8.179234   9.051312   8.301271
                   31         32         33         34         35
    31  C    0.000000
    32  H    2.113815   0.000000
    33  N    4.190768   6.038191   0.000000
    34  C    6.376282   8.317743   2.323860   0.000000
    35  N    1.371740   3.401305   2.848993   5.004940   0.000000
    36  C    1.429137   2.728645   4.986073   6.936284   2.239585
    37  C    4.311074   6.353619   1.367936   2.251636   2.962056
    38  C    5.762631   7.812627   2.326876   1.353189   4.419596
    39  H    7.458542   9.383603   3.358089   1.088729   6.088048
    40  C    2.264395   4.354042   3.024792   4.727735   1.377417
    41  H    2.171534   3.933280   2.104942   4.399660   1.019257
    42  C    2.279711   4.040438   4.439177   6.074675   2.244302
    43  H    2.226340   2.648466   6.066449   8.019404   3.281944
    44  C    3.600692   5.700885   2.466674   3.576116   2.444029
    45  H    6.378350   8.468098   3.362882   2.204756   5.098585
    46  H    3.339445   4.944400   5.167253   6.505857   3.289282
    47  H    4.391114   6.459376   3.410517   3.980979   3.395858
    48  H    9.097377   8.237879   9.811847  11.602093   9.357339
    49  H   10.205251  10.055976   9.232775  10.387669   9.929575
                   36         37         38         39         40
    36  C    0.000000
    37  C    4.718217   0.000000
    38  C    6.078967   1.459405   0.000000
    39  H    8.019479   3.322221   2.205241   0.000000
    40  C    2.263309   2.484719   3.816398   5.801599   0.000000
    41  H    3.241448   2.648365   4.065422   5.455416   2.070788
    42  C    1.384570   3.830431   5.054663   7.131174   1.416644
    43  H    1.087220   5.795027   7.137087   9.101183   3.323627
    44  C    3.639923   1.391479   2.498707   4.607331   1.403638
    45  H    6.474320   2.266383   1.088975   2.716859   4.246121
    46  H    2.223027   4.324098   5.344866   7.512461   2.221315
    47  H    4.110081   2.129977   2.694423   4.897136   2.131125
    48  H   10.415908  11.050110  12.105086  12.218268  10.721697
    49  H   11.632080  10.587888  11.252945  10.699418  11.152595
                   41         42         43         44         45
    41  H    0.000000
    42  C    3.200934   0.000000
    43  H    4.258396   2.224482   0.000000
    44  C    2.648555   2.557292   4.671303   0.000000
    45  H    4.908036   5.297761   7.482704   2.844105   0.000000
    46  H    4.199219   1.087468   2.717647   2.942443   5.368072
    47  H    3.720821   2.810758   5.034022   1.090872   2.596007
    48  H    8.835328  11.319771  10.727834  11.450646  13.162278
    49  H    9.083649  12.148612  12.261302  11.421144  12.332808
                   46         47         48         49
    46  H    0.000000
    47  H    2.773795   0.000000
    48  H   12.396540  12.530038   0.000000
    49  H   13.209915  12.485802   4.331606   0.000000
 Stoichiometry    C26H18N4O(1-,2)
 Framework group  C1[X(C26H18N4O)]
 Deg. of freedom   141
 Full point group                 C1      NOp   1
 Largest Abelian subgroup         C1      NOp   1
 Largest concise Abelian subgroup C1      NOp   1
                         Standard orientation:
 ---------------------------------------------------------------------
 Center     Atomic      Atomic             Coordinates (Angstroms)
 Number     Number       Type             X           Y           Z
 ---------------------------------------------------------------------
      1          8           0       -7.631618   -0.056977   -0.060239
      2          6           0       -6.398892   -0.042500   -0.041214
      3          6           0       -5.598628   -1.090682    0.591347
      4          6           0       -5.604605    1.025686   -0.647935
      5          6           0       -4.233181   -1.072106    0.594358
      6          6           0       -4.239730    1.040393   -0.609922
      7          6           0       -3.476807   -0.007723    0.002454
      8          1           0       -3.687265   -1.859045    1.120116
      9          1           0       -3.697531    1.841695   -1.117102
     10          1           0        0.550812   -0.845881    0.786567
     11          6           0       -2.043129    0.004773    0.018589
     12          6           0       -1.357166    1.254601    0.171601
     13          6           0       -1.338113   -1.226638   -0.118692
     14          6           0       -1.890023    2.464234    0.661510
     15          7           0       -0.020220    1.503607   -0.104013
     16          7           0        0.007369   -1.455257    0.184427
     17          6           0       -1.836983   -2.442142   -0.629143
     18          6           0       -0.889559    3.427907    0.629788
     19          1           0       -2.906210    2.574722    1.028906
     20          6           0        0.288824    2.810475    0.150874
     21          1           0        0.646265    0.879819   -0.547335
     22          6           0        0.337199   -2.770781   -0.063040
     23          6           0       -0.829242   -3.391811   -0.576341
     24          1           0       -2.837407   -2.560572   -1.035884
     25          1           0       -0.952731    4.462610    0.955974
     26          6           0        1.567070    3.398551   -0.013916
     27          6           0        1.596452   -3.380283    0.106262
     28          1           0       -0.866831   -4.419830   -0.926611
     29          6           0        2.784930    2.739401   -0.160721
     30          1           0        1.598069    4.485358    0.070438
     31          6           0        2.855451   -2.773868    0.184929
     32          1           0        1.599440   -4.468441    0.046820
     33          7           0        3.006801    1.399706   -0.162797
     34          6           0        4.049357    3.475060   -0.242226
     35          7           0        3.138849   -1.435648    0.082344
     36          6           0        4.115189   -3.440386    0.290977
     37          6           0        4.365794    1.246332   -0.192185
     38          6           0        5.030575    2.543495   -0.264967
     39          1           0        4.137961    4.560006   -0.261515
     40          6           0        4.499355   -1.220740    0.071530
     41          1           0        2.515873   -0.645530   -0.080444
     42          6           0        5.116894   -2.487509    0.215833
     43          1           0        4.224150   -4.516882    0.397425
     44          6           0        5.071032    0.051594   -0.085161
     45          1           0        6.108868    2.690507   -0.304179
     46          1           0        6.191813   -2.647871    0.253525
     47          1           0        6.160574    0.102953   -0.101339
     48          1           0       -6.152659   -1.885907    1.094733
     49          1           0       -6.162227    1.809264   -1.165450
 ---------------------------------------------------------------------
 Rotational constants (GHZ):           0.2564212           0.0902411           0.0677096
 General basis read from cards:  (5D, 7F)
 There are   829 symmetry adapted cartesian basis functions of A   symmetry.
 There are   767 symmetry adapted basis functions of A   symmetry.
   767 basis functions,  1175 primitive gaussians,   829 cartesian basis functions
   106 alpha electrons      105 beta electrons
       nuclear repulsion energy      2748.4286426873 Hartrees.
 NAtoms=   49 NActive=   49 NUniq=   49 SFac= 1.00D+00 NAtFMM=   60 NAOKFM=F Big=F
 Integral buffers will be    131072 words long.
 Raffenetti 2 integral format.
 Two-electron integral symmetry is turned on.
 One-electron integrals computed using PRISM.
 NBasis=   767 RedAO= T EigKep=  6.51D-06  NBF=   767
 NBsUse=   767 1.00D-06 EigRej= -1.00D+00 NBFU=   767
 ExpMin= 6.71D-02 ExpMax= 2.27D+03 ExpMxC= 3.41D+02 IAcc=3 IRadAn=         5 AccDes= 0.00D+00
 Harris functional with IExCor=20419 and IRadAn=       5 diagonalized for initial guess.
 HarFok:  IExCor=20419 AccDes= 0.00D+00 IRadAn=         5 IDoV= 1 UseB2=F ITyADJ=14
 ICtDFT=  3500011 ScaDFX=  1.000000  1.000000  1.000000  1.000000
 FoFCou: FMM=F IPFlag=           0 FMFlag=      100000 FMFlg1=           0
         NFxFlg=           0 DoJE=T BraDBF=F KetDBF=T FulRan=T
         wScrn=  0.000000 ICntrl=       500 IOpCl=  0 I1Cent=   200000004 NGrid=           0
         NMat0=    1 NMatS0=      1 NMatT0=    0 NMatD0=    1 NMtDS0=    0 NMtDT0=    0
 Petite list used in FoFCou.
 Initial guess <Sx>= 0.0000 <Sy>= 0.0000 <Sz>= 0.5000 <S**2>= 0.7500 S= 0.5000
 Requested convergence on RMS density matrix=1.00D-08 within 128 cycles.
 Requested convergence on MAX density matrix=1.00D-06.
 Requested convergence on             energy=1.00D-06.
 No special actions if energy rises.
 Integral accuracy reduced to 1.0D-05 until final iterations.
 Problem detected with inexpensive integrals.
 Switching to full accuracy and repeating last cycle.
 Restarting incremental Fock formation.
 SCF Done:  E(UCAM-B3LYP) =  -1294.31403947     A.U. after   32 cycles
            NFock= 32  Conv=0.61D-08     -V/T= 2.0112
 <Sx>= 0.0000 <Sy>= 0.0000 <Sz>= 0.5000 <S**2>= 0.8863 S= 0.5660
 <L.S>= 0.000000000000E+00
 Annihilation of the first spin contaminant:
 S**2 before annihilation     0.8863,   after     0.7630
 DoSCS=F DFT=T ScalE2(SS,OS)=  1.000000  1.000000
 ExpMin= 6.71D-02 ExpMax= 2.27D+03 ExpMxC= 3.41D+02 IAcc=3 IRadAn=         5 AccDes= 0.00D+00
 HarFok:  IExCor=  205 AccDes= 0.00D+00 IRadAn=         5 IDoV=-2 UseB2=F ITyADJ=14
 ICtDFT= 12500011 ScaDFX=  1.000000  1.000000  1.000000  1.000000
 GSVD:  LWork=       -1209 too small for GESVD, short by        5270 words or        5270 for optimal perf.
 Range of M.O.s used for correlation:    32   767
 NBasis=   767 NAE=   106 NBE=   105 NFC=    31 NFV=     0
 NROrb=    736 NOA=    75 NOB=    74 NVA=   661 NVB=   662

 **** Warning!!: The largest alpha MO coefficient is  0.54779960D+02


 **** Warning!!: The largest beta MO coefficient is  0.54596572D+02

 Ignoring spin specification with unrestricted ground state.
 Orbital symmetries:
 Alpha Orbitals:
       Occupied  (A) (A) (A) (A) (A) (A) (A) (A) (A) (A) (A) (A)
                 (A) (A) (A) (A) (A) (A) (A) (A) (A) (A) (A) (A)
                 (A) (A) (A) (A) (A) (A) (A) (A) (A) (A) (A) (A)
                 (A) (A) (A) (A) (A) (A) (A) (A) (A) (A) (A) (A)
                 (A) (A) (A) (A) (A) (A) (A) (A) (A) (A) (A) (A)
                 (A) (A) (A) (A) (A) (A) (A) (A) (A) (A) (A) (A)
                 (A) (A) (A) (A) (A) (A) (A) (A) (A) (A) (A) (A)
                 (A) (A) (A) (A) (A) (A) (A) (A) (A) (A) (A) (A)
                 (A) (A) (A) (A) (A) (A) (A) (A) (A) (A)
       Virtual   (A) (A) (A) (A) (A) (A) (A) (A) (A) (A) (A) (A)
                 (A) (A) (A) (A) (A) (A) (A) (A) (A) (A) (A) (A)
                 (A) (A) (A) (A) (A) (A) (A) (A) (A) (A) (A) (A)
                 (A) (A) (A) (A) (A) (A) (A) (A) (A) (A) (A) (A)
                 (A) (A) (A) (A) (A) (A) (A) (A) (A) (A) (A) (A)
                 (A) (A) (A) (A) (A) (A) (A) (A) (A) (A) (A) (A)
                 (A) (A) (A) (A) (A) (A) (A) (A) (A) (A) (A) (A)
                 (A) (A) (A) (A) (A) (A) (A) (A) (A) (A) (A) (A)
                 (A) (A) (A) (A) (A) (A) (A) (A) (A) (A) (A) (A)
                 (A) (A) (A) (A) (A) (A) (A) (A) (A) (A) (A) (A)
                 (A) (A) (A) (A) (A) (A) (A) (A) (A) (A) (A) (A)
                 (A) (A) (A) (A) (A) (A) (A) (A) (A) (A) (A) (A)
                 (A) (A) (A) (A) (A) (A) (A) (A) (A) (A) (A) (A)
                 (A) (A) (A) (A) (A) (A) (A) (A) (A) (A) (A) (A)
                 (A) (A) (A) (A) (A) (A) (A) (A) (A) (A) (A) (A)
                 (A) (A) (A) (A) (A) (A) (A) (A) (A) (A) (A) (A)
                 (A) (A) (A) (A) (A) (A) (A) (A) (A) (A) (A) (A)
                 (A) (A) (A) (A) (A) (A) (A) (A) (A) (A) (A) (A)
                 (A) (A) (A) (A) (A) (A) (A) (A) (A) (A) (A) (A)
                 (A) (A) (A) (A) (A) (A) (A) (A) (A) (A) (A) (A)
                 (A) (A) (A) (A) (A) (A) (A) (A) (A) (A) (A) (A)
                 (A) (A) (A) (A) (A) (A) (A) (A) (A) (A) (A) (A)
                 (A) (A) (A) (A) (A) (A) (A) (A) (A) (A) (A) (A)
                 (A) (A) (A) (A) (A) (A) (A) (A) (A) (A) (A) (A)
                 (A) (A) (A) (A) (A) (A) (A) (A) (A) (A) (A) (A)
                 (A) (A) (A) (A) (A) (A) (A) (A) (A) (A) (A) (A)
                 (A) (A) (A) (A) (A) (A) (A) (A) (A) (A) (A) (A)
                 (A) (A) (A) (A) (A) (A) (A) (A) (A) (A) (A) (A)
                 (A) (A) (A) (A) (A) (A) (A) (A) (A) (A) (A) (A)
                 (A) (A) (A) (A) (A) (A) (A) (A) (A) (A) (A) (A)
                 (A) (A) (A) (A) (A) (A) (A) (A) (A) (A) (A) (A)
                 (A) (A) (A) (A) (A) (A) (A) (A) (A) (A) (A) (A)
                 (A) (A) (A) (A) (A) (A) (A) (A) (A) (A) (A) (A)
                 (A) (A) (A) (A) (A) (A) (A) (A) (A) (A) (A) (A)
                 (A) (A) (A) (A) (A) (A) (A) (A) (A) (A) (A) (A)
                 (A) (A) (A) (A) (A) (A) (A) (A) (A) (A) (A) (A)
                 (A) (A) (A) (A) (A) (A) (A) (A) (A) (A) (A) (A)
                 (A) (A) (A) (A) (A) (A) (A) (A) (A) (A) (A) (A)
                 (A) (A) (A) (A) (A) (A) (A) (A) (A) (A) (A) (A)
                 (A) (A) (A) (A) (A) (A) (A) (A) (A) (A) (A) (A)
                 (A) (A) (A) (A) (A) (A) (A) (A) (A) (A) (A) (A)
                 (A) (A) (A) (A) (A) (A) (A) (A) (A) (A) (A) (A)
                 (A) (A) (A) (A) (A) (A) (A) (A) (A) (A) (A) (A)
                 (A) (A) (A) (A) (A) (A) (A) (A) (A) (A) (A) (A)
                 (A) (A) (A) (A) (A) (A) (A) (A) (A) (A) (A) (A)
                 (A) (A) (A) (A) (A) (A) (A) (A) (A) (A) (A) (A)
                 (A) (A) (A) (A) (A) (A) (A) (A) (A) (A) (A) (A)
                 (A) (A) (A) (A) (A) (A) (A) (A) (A) (A) (A) (A)
                 (A) (A) (A) (A) (A) (A) (A) (A) (A) (A) (A) (A)
                 (A) (A) (A) (A) (A) (A) (A) (A) (A) (A) (A) (A)
                 (A) (A) (A) (A) (A) (A) (A) (A) (A) (A) (A) (A)
                 (A) (A) (A) (A) (A) (A) (A) (A) (A) (A) (A) (A)
                 (A) (A) (A) (A) (A) (A) (A) (A) (A) (A) (A) (A)
                 (A) (A) (A) (A) (A) (A) (A) (A) (A) (A) (A) (A)
                 (A) (A) (A) (A) (A) (A) (A) (A) (A) (A) (A) (A)
                 (A)
 Beta  Orbitals:
       Occupied  (A) (A) (A) (A) (A) (A) (A) (A) (A) (A) (A) (A)
                 (A) (A) (A) (A) (A) (A) (A) (A) (A) (A) (A) (A)
                 (A) (A) (A) (A) (A) (A) (A) (A) (A) (A) (A) (A)
                 (A) (A) (A) (A) (A) (A) (A) (A) (A) (A) (A) (A)
                 (A) (A) (A) (A) (A) (A) (A) (A) (A) (A) (A) (A)
                 (A) (A) (A) (A) (A) (A) (A) (A) (A) (A) (A) (A)
                 (A) (A) (A) (A) (A) (A) (A) (A) (A) (A) (A) (A)
                 (A) (A) (A) (A) (A) (A) (A) (A) (A) (A) (A) (A)
                 (A) (A) (A) (A) (A) (A) (A) (A) (A)
       Virtual   (A) (A) (A) (A) (A) (A) (A) (A) (A) (A) (A) (A)
                 (A) (A) (A) (A) (A) (A) (A) (A) (A) (A) (A) (A)
                 (A) (A) (A) (A) (A) (A) (A) (A) (A) (A) (A) (A)
                 (A) (A) (A) (A) (A) (A) (A) (A) (A) (A) (A) (A)
                 (A) (A) (A) (A) (A) (A) (A) (A) (A) (A) (A) (A)
                 (A) (A) (A) (A) (A) (A) (A) (A) (A) (A) (A) (A)
                 (A) (A) (A) (A) (A) (A) (A) (A) (A) (A) (A) (A)
                 (A) (A) (A) (A) (A) (A) (A) (A) (A) (A) (A) (A)
                 (A) (A) (A) (A) (A) (A) (A) (A) (A) (A) (A) (A)
                 (A) (A) (A) (A) (A) (A) (A) (A) (A) (A) (A) (A)
                 (A) (A) (A) (A) (A) (A) (A) (A) (A) (A) (A) (A)
                 (A) (A) (A) (A) (A) (A) (A) (A) (A) (A) (A) (A)
                 (A) (A) (A) (A) (A) (A) (A) (A) (A) (A) (A) (A)
                 (A) (A) (A) (A) (A) (A) (A) (A) (A) (A) (A) (A)
                 (A) (A) (A) (A) (A) (A) (A) (A) (A) (A) (A) (A)
                 (A) (A) (A) (A) (A) (A) (A) (A) (A) (A) (A) (A)
                 (A) (A) (A) (A) (A) (A) (A) (A) (A) (A) (A) (A)
                 (A) (A) (A) (A) (A) (A) (A) (A) (A) (A) (A) (A)
                 (A) (A) (A) (A) (A) (A) (A) (A) (A) (A) (A) (A)
                 (A) (A) (A) (A) (A) (A) (A) (A) (A) (A) (A) (A)
                 (A) (A) (A) (A) (A) (A) (A) (A) (A) (A) (A) (A)
                 (A) (A) (A) (A) (A) (A) (A) (A) (A) (A) (A) (A)
                 (A) (A) (A) (A) (A) (A) (A) (A) (A) (A) (A) (A)
                 (A) (A) (A) (A) (A) (A) (A) (A) (A) (A) (A) (A)
                 (A) (A) (A) (A) (A) (A) (A) (A) (A) (A) (A) (A)
                 (A) (A) (A) (A) (A) (A) (A) (A) (A) (A) (A) (A)
                 (A) (A) (A) (A) (A) (A) (A) (A) (A) (A) (A) (A)
                 (A) (A) (A) (A) (A) (A) (A) (A) (A) (A) (A) (A)
                 (A) (A) (A) (A) (A) (A) (A) (A) (A) (A) (A) (A)
                 (A) (A) (A) (A) (A) (A) (A) (A) (A) (A) (A) (A)
                 (A) (A) (A) (A) (A) (A) (A) (A) (A) (A) (A) (A)
                 (A) (A) (A) (A) (A) (A) (A) (A) (A) (A) (A) (A)
                 (A) (A) (A) (A) (A) (A) (A) (A) (A) (A) (A) (A)
                 (A) (A) (A) (A) (A) (A) (A) (A) (A) (A) (A) (A)
                 (A) (A) (A) (A) (A) (A) (A) (A) (A) (A) (A) (A)
                 (A) (A) (A) (A) (A) (A) (A) (A) (A) (A) (A) (A)
                 (A) (A) (A) (A) (A) (A) (A) (A) (A) (A) (A) (A)
                 (A) (A) (A) (A) (A) (A) (A) (A) (A) (A) (A) (A)
                 (A) (A) (A) (A) (A) (A) (A) (A) (A) (A) (A) (A)
                 (A) (A) (A) (A) (A) (A) (A) (A) (A) (A) (A) (A)
                 (A) (A) (A) (A) (A) (A) (A) (A) (A) (A) (A) (A)
                 (A) (A) (A) (A) (A) (A) (A) (A) (A) (A) (A) (A)
                 (A) (A) (A) (A) (A) (A) (A) (A) (A) (A) (A) (A)
                 (A) (A) (A) (A) (A) (A) (A) (A) (A) (A) (A) (A)
                 (A) (A) (A) (A) (A) (A) (A) (A) (A) (A) (A) (A)
                 (A) (A) (A) (A) (A) (A) (A) (A) (A) (A) (A) (A)
                 (A) (A) (A) (A) (A) (A) (A) (A) (A) (A) (A) (A)
                 (A) (A) (A) (A) (A) (A) (A) (A) (A) (A) (A) (A)
                 (A) (A) (A) (A) (A) (A) (A) (A) (A) (A) (A) (A)
                 (A) (A) (A) (A) (A) (A) (A) (A) (A) (A) (A) (A)
                 (A) (A) (A) (A) (A) (A) (A) (A) (A) (A) (A) (A)
                 (A) (A) (A) (A) (A) (A) (A) (A) (A) (A) (A) (A)
                 (A) (A) (A) (A) (A) (A) (A) (A) (A) (A) (A) (A)
                 (A) (A) (A) (A) (A) (A) (A) (A) (A) (A) (A) (A)
                 (A) (A) (A) (A) (A) (A) (A) (A) (A) (A) (A) (A)
                 (A) (A)
   200 initial guesses have been made.
 Convergence on wavefunction:    0.001000000000000
 Iteration     1 Dimension   200 NMult     0 NNew    200
 CISAX will form    40 AO SS matrices at one time.
 New state      4 was old state      7
 New state      5 was old state      6
 New state      6 was old state      4
 New state      7 was old state      8
 New state      8 was old state      9
 New state      9 was old state     10
 New state     10 was old state     13
 New state     11 was old state     12
 New state     12 was old state     15
 New state     13 was old state     23
 New state     14 was old state     22
 New state     15 was old state     14
 New state     16 was old state     75
 New state     17 was old state     16
 New state     18 was old state     19
 New state     19 was old state     20
 New state     20 was old state     11
 New state     21 was old state     18
 New state     22 was old state     30
 New state     23 was old state     41
 New state     24 was old state     26
 New state     25 was old state     21
 New state     26 was old state     24
 New state     27 was old state     39
 New state     28 was old state     33
 New state     29 was old state     32
 New state     30 was old state     25
 New state     31 was old state     36
 New state     32 was old state     50
 New state     33 was old state     29
 New state     34 was old state     46
 New state     35 was old state     62
 New state     36 was old state     63
 New state     37 was old state     27
 New state     38 was old state     54
 New state     39 was old state     17
 New state     40 was old state     38
 New state     41 was old state     78
 New state     42 was old state     31
 New state     43 was old state     28
 New state     44 was old state     37
 New state     45 was old state     57
 New state     46 was old state     48
 New state     47 was old state     53
 New state     48 was old state     52
 New state     49 was old state     60
 New state     50 was old state     47
 Iteration     2 Dimension   300 NMult   200 NNew    100
 New state     11 was old state     13
 New state     12 was old state     11
 New state     13 was old state     14
 New state     14 was old state     12
 New state     16 was old state     20
 New state     17 was old state     16
 New state     18 was old state     17
 New state     19 was old state     18
 New state     20 was old state     19
 New state     21 was old state     23
 New state     22 was old state     21
 New state     23 was old state     24
 New state     24 was old state     22
 New state     25 was old state     27
 New state     26 was old state     28
 New state     27 was old state     34
 New state     28 was old state     25
 New state     29 was old state     26
 New state     30 was old state     35
 New state     31 was old state     29
 New state     32 was old state     33
 New state     33 was old state     32
 New state     34 was old state     37
 New state     35 was old state     31
 New state     36 was old state     38
 New state     37 was old state     36
 New state     38 was old state     30
 New state     39 was old state     41
 New state     40 was old state     44
 New state     41 was old state     45
 New state     42 was old state     40
 New state     43 was old state     42
 New state     44 was old state     46
 New state     45 was old state     50
 New state     46 was old state     39
 New state     47 was old state     43
 New state     48 was old state     47
 New state     49 was old state     48
 New state     50 was old state     49
 Iteration     3 Dimension   400 NMult   300 NNew    100
 New state     22 was old state     23
 New state     23 was old state     22
 New state     24 was old state     25
 New state     25 was old state     24
 New state     39 was old state     40
 New state     40 was old state     39
 New state     47 was old state     48
 New state     48 was old state     47
 Iteration     4 Dimension   500 NMult   400 NNew    100
 New state     40 was old state     41
 New state     41 was old state     40
 New state     42 was old state     43
 New state     43 was old state     42
 New state     46 was old state     47
 New state     47 was old state     46
 Iteration     5 Dimension   600 NMult   500 NNew    100
 New state     36 was old state     37
 New state     37 was old state     36
 New state     38 was old state     39
 New state     39 was old state     38
 New state     48 was old state     50
 New state     49 was old state     48
 New state     50 was old state     49
 Iteration     6 Dimension   678 NMult   600 NNew     78
 Iteration     7 Dimension   726 NMult   678 NNew     48
 Iteration     8 Dimension   742 NMult   726 NNew     16
 ***********************************************************************
 Excited states from <AA,BB:AA,BB> singles matrix:
 ***********************************************************************

 ExtSpn:  IState=     1 X2= 1.056 Y2= 0.056 X2-Y2-1= 6.66D-16
          S2Grnd=  0.886 Ra=  0.034 Rb=  0.051 T=  0.120 S2Ext=  0.205 S2=  1.091
 ExtSpn:  IState=     2 X2= 1.085 Y2= 0.085 X2-Y2-1=-5.55D-16
          S2Grnd=  0.886 Ra=  0.201 Rb=  0.635 T=  0.718 S2Ext=  1.553 S2=  2.440
 ExtSpn:  IState=     3 X2= 1.052 Y2= 0.052 X2-Y2-1=-8.88D-16
          S2Grnd=  0.886 Ra=  0.003 Rb=  0.031 T= -0.019 S2Ext=  0.015 S2=  0.901
 ExtSpn:  IState=     4 X2= 1.023 Y2= 0.023 X2-Y2-1= 8.88D-16
          S2Grnd=  0.886 Ra=  0.160 Rb=  0.395 T=  0.493 S2Ext=  1.047 S2=  1.934
 ExtSpn:  IState=     5 X2= 1.030 Y2= 0.030 X2-Y2-1= 1.33D-15
          S2Grnd=  0.886 Ra=  0.307 Rb=  0.474 T=  0.159 S2Ext=  0.940 S2=  1.827
 ExtSpn:  IState=     6 X2= 1.017 Y2= 0.017 X2-Y2-1= 4.44D-16
          S2Grnd=  0.886 Ra=  0.478 Rb=  0.393 T= -0.257 S2Ext=  0.614 S2=  1.500
 ExtSpn:  IState=     7 X2= 1.022 Y2= 0.022 X2-Y2-1=-1.11D-16
          S2Grnd=  0.886 Ra=  0.159 Rb=  0.160 T=  0.098 S2Ext=  0.418 S2=  1.304
 ExtSpn:  IState=     8 X2= 1.021 Y2= 0.021 X2-Y2-1=-1.11D-16
          S2Grnd=  0.886 Ra=  0.029 Rb=  0.274 T=  0.111 S2Ext=  0.414 S2=  1.300
 ExtSpn:  IState=     9 X2= 1.002 Y2= 0.002 X2-Y2-1=-1.11D-16
          S2Grnd=  0.886 Ra=  0.050 Rb=  0.921 T=  0.410 S2Ext=  1.381 S2=  2.267
 ExtSpn:  IState=    10 X2= 1.014 Y2= 0.014 X2-Y2-1= 1.11D-15
          S2Grnd=  0.886 Ra=  0.195 Rb=  0.203 T=  0.328 S2Ext=  0.727 S2=  1.613
 ExtSpn:  IState=    11 X2= 1.022 Y2= 0.022 X2-Y2-1= 1.55D-15
          S2Grnd=  0.886 Ra=  0.398 Rb=  0.556 T=  0.916 S2Ext=  1.870 S2=  2.756
 ExtSpn:  IState=    12 X2= 1.010 Y2= 0.010 X2-Y2-1= 2.22D-16
          S2Grnd=  0.886 Ra=  0.279 Rb=  0.373 T=  0.597 S2Ext=  1.249 S2=  2.135
 ExtSpn:  IState=    13 X2= 1.018 Y2= 0.018 X2-Y2-1= 1.55D-15
          S2Grnd=  0.886 Ra=  0.353 Rb=  0.345 T=  0.668 S2Ext=  1.366 S2=  2.253
 ExtSpn:  IState=    14 X2= 1.004 Y2= 0.004 X2-Y2-1= 2.22D-16
          S2Grnd=  0.886 Ra=  0.221 Rb=  0.087 T= -0.113 S2Ext=  0.195 S2=  1.082
 ExtSpn:  IState=    15 X2= 1.013 Y2= 0.013 X2-Y2-1= 1.11D-15
          S2Grnd=  0.886 Ra=  0.462 Rb=  0.166 T= -0.395 S2Ext=  0.233 S2=  1.120
 ExtSpn:  IState=    16 X2= 1.017 Y2= 0.017 X2-Y2-1=-8.88D-16
          S2Grnd=  0.886 Ra=  0.590 Rb=  0.202 T= -0.514 S2Ext=  0.278 S2=  1.164
 ExtSpn:  IState=    17 X2= 1.015 Y2= 0.015 X2-Y2-1= 4.44D-16
          S2Grnd=  0.886 Ra=  0.407 Rb=  0.435 T=  0.665 S2Ext=  1.507 S2=  2.393
 ExtSpn:  IState=    18 X2= 1.002 Y2= 0.002 X2-Y2-1= 4.44D-16
          S2Grnd=  0.886 Ra=  0.886 Rb=  0.081 T= -0.373 S2Ext=  0.594 S2=  1.481
 ExtSpn:  IState=    19 X2= 1.010 Y2= 0.010 X2-Y2-1= 2.22D-16
          S2Grnd=  0.886 Ra=  0.224 Rb=  0.254 T=  0.212 S2Ext=  0.690 S2=  1.576
 ExtSpn:  IState=    20 X2= 1.005 Y2= 0.005 X2-Y2-1=-2.22D-16
          S2Grnd=  0.886 Ra=  0.240 Rb=  0.562 T=  0.375 S2Ext=  1.176 S2=  2.063
 ExtSpn:  IState=    21 X2= 1.005 Y2= 0.005 X2-Y2-1= 2.22D-16
          S2Grnd=  0.886 Ra=  0.293 Rb=  0.401 T=  0.092 S2Ext=  0.786 S2=  1.672
 ExtSpn:  IState=    22 X2= 1.008 Y2= 0.008 X2-Y2-1= 0.00D+00
          S2Grnd=  0.886 Ra=  0.387 Rb=  0.260 T= -0.246 S2Ext=  0.401 S2=  1.288
 ExtSpn:  IState=    23 X2= 1.003 Y2= 0.003 X2-Y2-1= 4.44D-16
          S2Grnd=  0.886 Ra=  0.156 Rb=  0.064 T=  0.063 S2Ext=  0.282 S2=  1.168
 ExtSpn:  IState=    24 X2= 1.012 Y2= 0.012 X2-Y2-1=-4.44D-16
          S2Grnd=  0.886 Ra=  0.237 Rb=  0.512 T=  0.627 S2Ext=  1.376 S2=  2.263
 ExtSpn:  IState=    25 X2= 1.000 Y2= 0.000 X2-Y2-1= 4.44D-16
          S2Grnd=  0.886 Ra=  0.075 Rb=  0.009 T=  0.018 S2Ext=  0.102 S2=  0.988
 ExtSpn:  IState=    26 X2= 1.009 Y2= 0.009 X2-Y2-1=-1.33D-15
          S2Grnd=  0.886 Ra=  0.215 Rb=  0.408 T=  0.502 S2Ext=  1.125 S2=  2.011
 ExtSpn:  IState=    27 X2= 1.014 Y2= 0.014 X2-Y2-1=-4.44D-16
          S2Grnd=  0.886 Ra=  0.323 Rb=  0.366 T=  0.468 S2Ext=  1.157 S2=  2.044
 ExtSpn:  IState=    28 X2= 1.007 Y2= 0.007 X2-Y2-1= 2.22D-16
          S2Grnd=  0.886 Ra=  0.298 Rb=  0.328 T=  0.088 S2Ext=  0.714 S2=  1.600
 ExtSpn:  IState=    29 X2= 1.005 Y2= 0.005 X2-Y2-1= 2.22D-15
          S2Grnd=  0.886 Ra=  0.436 Rb=  0.493 T= -0.549 S2Ext=  0.380 S2=  1.266
 ExtSpn:  IState=    30 X2= 1.006 Y2= 0.006 X2-Y2-1= 2.22D-16
          S2Grnd=  0.886 Ra=  0.332 Rb=  0.395 T= -0.046 S2Ext=  0.682 S2=  1.568
 ExtSpn:  IState=    31 X2= 1.003 Y2= 0.003 X2-Y2-1=-2.22D-16
          S2Grnd=  0.886 Ra=  0.208 Rb=  0.208 T=  0.303 S2Ext=  0.719 S2=  1.605
 ExtSpn:  IState=    32 X2= 1.003 Y2= 0.003 X2-Y2-1=-4.44D-16
          S2Grnd=  0.886 Ra=  0.596 Rb=  0.355 T= -0.257 S2Ext=  0.694 S2=  1.580
 ExtSpn:  IState=    33 X2= 1.006 Y2= 0.006 X2-Y2-1= 2.00D-15
          S2Grnd=  0.886 Ra=  0.263 Rb=  0.362 T=  0.082 S2Ext=  0.707 S2=  1.593
 ExtSpn:  IState=    34 X2= 1.013 Y2= 0.013 X2-Y2-1= 0.00D+00
          S2Grnd=  0.886 Ra=  0.285 Rb=  0.301 T=  0.487 S2Ext=  1.073 S2=  1.960
 ExtSpn:  IState=    35 X2= 1.004 Y2= 0.004 X2-Y2-1=-2.22D-16
          S2Grnd=  0.886 Ra=  0.293 Rb=  0.503 T= -0.167 S2Ext=  0.630 S2=  1.516
 ExtSpn:  IState=    36 X2= 1.004 Y2= 0.004 X2-Y2-1=-1.11D-16
          S2Grnd=  0.886 Ra=  0.182 Rb=  0.310 T=  0.141 S2Ext=  0.633 S2=  1.520
 ExtSpn:  IState=    37 X2= 1.005 Y2= 0.005 X2-Y2-1=-3.33D-16
          S2Grnd=  0.886 Ra=  0.193 Rb=  0.301 T=  0.361 S2Ext=  0.855 S2=  1.741
 ExtSpn:  IState=    38 X2= 1.003 Y2= 0.003 X2-Y2-1= 2.22D-16
          S2Grnd=  0.886 Ra=  0.165 Rb=  0.236 T=  0.238 S2Ext=  0.639 S2=  1.525
 ExtSpn:  IState=    39 X2= 1.001 Y2= 0.001 X2-Y2-1=-1.11D-16
          S2Grnd=  0.886 Ra=  0.146 Rb=  0.045 T= -0.029 S2Ext=  0.162 S2=  1.048
 ExtSpn:  IState=    40 X2= 1.004 Y2= 0.004 X2-Y2-1=-4.44D-16
          S2Grnd=  0.886 Ra=  0.139 Rb=  0.296 T=  0.254 S2Ext=  0.689 S2=  1.575
 ExtSpn:  IState=    41 X2= 1.001 Y2= 0.001 X2-Y2-1= 4.44D-16
          S2Grnd=  0.886 Ra=  0.716 Rb=  0.141 T=  0.514 S2Ext=  1.371 S2=  2.257
 ExtSpn:  IState=    42 X2= 1.004 Y2= 0.004 X2-Y2-1= 6.66D-16
          S2Grnd=  0.886 Ra=  0.190 Rb=  0.401 T= -0.019 S2Ext=  0.573 S2=  1.459
 ExtSpn:  IState=    43 X2= 1.001 Y2= 0.001 X2-Y2-1=-5.55D-16
          S2Grnd=  0.886 Ra=  0.120 Rb=  0.103 T=  0.037 S2Ext=  0.260 S2=  1.146
 ExtSpn:  IState=    44 X2= 1.003 Y2= 0.003 X2-Y2-1= 1.11D-15
          S2Grnd=  0.886 Ra=  0.179 Rb=  0.495 T= -0.046 S2Ext=  0.628 S2=  1.514
 ExtSpn:  IState=    45 X2= 1.001 Y2= 0.001 X2-Y2-1= 2.22D-16
          S2Grnd=  0.886 Ra=  0.072 Rb=  0.764 T=  0.164 S2Ext=  0.999 S2=  1.886
 ExtSpn:  IState=    46 X2= 1.004 Y2= 0.004 X2-Y2-1= 2.22D-16
          S2Grnd=  0.886 Ra=  0.143 Rb=  0.305 T=  0.168 S2Ext=  0.616 S2=  1.503
 ExtSpn:  IState=    47 X2= 1.002 Y2= 0.002 X2-Y2-1=-7.77D-16
          S2Grnd=  0.886 Ra=  0.157 Rb=  0.231 T= -0.025 S2Ext=  0.363 S2=  1.249
 ExtSpn:  IState=    48 X2= 1.004 Y2= 0.004 X2-Y2-1= 8.88D-16
          S2Grnd=  0.886 Ra=  0.186 Rb=  0.277 T=  0.180 S2Ext=  0.643 S2=  1.529
 ExtSpn:  IState=    49 X2= 1.002 Y2= 0.002 X2-Y2-1= 2.22D-16
          S2Grnd=  0.886 Ra=  0.247 Rb=  0.139 T= -0.055 S2Ext=  0.330 S2=  1.216
 ExtSpn:  IState=    50 X2= 1.001 Y2= 0.001 X2-Y2-1= 6.66D-16
          S2Grnd=  0.886 Ra=  0.039 Rb=  0.867 T= -0.012 S2Ext=  0.895 S2=  1.781
 Ground to excited state transition densities written to RWF  633
 Ground to excited state transition electric dipole moments (Au):
       state          X           Y           Z        Dip. S.      Osc.
         1         0.4188      0.5093     -0.0746      0.4403      0.0084
         2         1.5827      0.1483      0.0194      2.5273      0.0632
         3         0.1906      0.4441      0.0309      0.2345      0.0086
         4        -0.1823     -1.0560     -0.0073      1.1484      0.0577
         5         1.8042     -0.1308     -0.0104      3.2723      0.1696
         6         2.9738     -0.0297      0.0217      8.8449      0.5303
         7         2.1906      0.2090      0.0126      4.8428      0.3164
         8         0.9717     -1.5690     -0.0640      3.4101      0.2367
         9         0.2713     -0.0080     -0.0005      0.0736      0.0056
        10        -0.1121      0.8228     -0.0333      0.6906      0.0544
        11         0.0155     -0.1630      0.0049      0.0268      0.0022
        12        -0.1016      0.1279     -0.0154      0.0269      0.0022
        13        -0.0085     -0.6946      0.0152      0.4828      0.0402
        14        -0.0706      0.3233      0.0576      0.1128      0.0099
        15         0.8216     -1.0323     -0.0519      1.7433      0.1539
        16         0.4680      2.0350      0.0284      4.3611      0.3910
        17        -0.4242      0.3487     -0.0177      0.3018      0.0273
        18         0.0913     -0.0855      0.0135      0.0158      0.0014
        19        -1.4910     -0.1033     -0.0565      2.2370      0.2122
        20         0.8461      0.4392      0.0413      0.9106      0.0875
        21        -0.4087     -0.4551      0.0052      0.3742      0.0362
        22        -0.6880     -0.6502      0.0225      0.8965      0.0877
        23         0.5546      0.0217     -0.0698      0.3129      0.0308
        24         0.0891      0.0951      0.0017      0.0170      0.0017
        25        -0.0008      0.0482      0.0466      0.0045      0.0005
        26        -0.2807      0.2596      0.0462      0.1483      0.0150
        27         0.7671     -0.4380      0.0048      0.7803      0.0809
        28        -0.7348      0.1055      0.0850      0.5584      0.0588
        29         0.3870     -0.6192      0.1096      0.5452      0.0577
        30        -0.5664     -0.1357      0.0244      0.3398      0.0361
        31        -0.2056      0.1397      0.0027      0.0618      0.0066
        32         0.0628      0.1475     -0.0155      0.0259      0.0028
        33        -0.0947     -0.0470     -0.0034      0.0112      0.0012
        34        -0.4789     -0.0817     -0.0123      0.2362      0.0257
        35        -0.1263     -0.4062      0.2357      0.2365      0.0259
        36        -0.1650      0.0502     -0.1281      0.0462      0.0051
        37         0.0094      0.3225     -0.0379      0.1055      0.0116
        38        -0.5782      0.2970      0.0028      0.4225      0.0469
        39        -0.0348      0.0978     -0.0705      0.0157      0.0018
        40         0.0566     -0.3913     -0.0131      0.1565      0.0178
        41        -0.2203      0.0762     -0.0048      0.0544      0.0062
        42        -0.0703     -0.2095      0.0519      0.0515      0.0060
        43         0.2347      0.0909     -0.0126      0.0635      0.0074
        44        -0.3144     -0.0240     -0.0034      0.0994      0.0116
        45        -0.1616     -0.1863      0.0309      0.0618      0.0073
        46        -0.0214      0.2495      0.0498      0.0652      0.0077
        47        -0.0129      0.0649      0.0176      0.0047      0.0006
        48        -0.1458      0.0294      0.0194      0.0225      0.0027
        49         0.0341     -0.1586      0.0535      0.0292      0.0035
        50         0.1434      0.0687      0.0041      0.0253      0.0030
 Ground to excited state transition velocity dipole moments (Au):
       state          X           Y           Z        Dip. S.      Osc.
         1        -0.0117     -0.0142      0.0023      0.0003      0.0081
         2        -0.0586     -0.0055     -0.0009      0.0035      0.0617
         3        -0.0103     -0.0240     -0.0022      0.0007      0.0083
         4         0.0136      0.0783      0.0005      0.0063      0.0559
         5        -0.1383      0.0099      0.0007      0.0192      0.1649
         6        -0.2637      0.0026     -0.0019      0.0696      0.5158
         7        -0.2125     -0.0201     -0.0014      0.0456      0.3099
         8        -0.1001      0.1612      0.0075      0.0361      0.2310
         9        -0.0302      0.0009      0.0001      0.0009      0.0054
        10         0.0134     -0.0957      0.0043      0.0094      0.0528
        11        -0.0019      0.0193     -0.0007      0.0004      0.0021
        12         0.0121     -0.0155      0.0020      0.0004      0.0021
        13         0.0012      0.0855     -0.0023      0.0073      0.0391
        14         0.0094     -0.0425     -0.0072      0.0019      0.0098
        15        -0.1075      0.1350      0.0073      0.0298      0.1502
        16        -0.0621     -0.2706     -0.0039      0.0771      0.3823
        17         0.0569     -0.0468      0.0022      0.0054      0.0267
        18        -0.0120      0.0115     -0.0019      0.0003      0.0014
        19         0.2094      0.0145      0.0087      0.0441      0.2067
        20        -0.1204     -0.0628     -0.0056      0.0185      0.0855
        21         0.0587      0.0648     -0.0016      0.0076      0.0351
        22         0.0998      0.0941     -0.0037      0.0188      0.0855
        23        -0.0806     -0.0023      0.0115      0.0066      0.0299
        24        -0.0130     -0.0139     -0.0002      0.0004      0.0016
        25        -0.0001     -0.0075     -0.0085      0.0001      0.0006
        26         0.0417     -0.0387     -0.0063      0.0033      0.0145
        27        -0.1177      0.0674     -0.0004      0.0184      0.0788
        28         0.1143     -0.0152     -0.0128      0.0135      0.0568
        29        -0.0606      0.0986     -0.0157      0.0136      0.0573
        30         0.0891      0.0226     -0.0029      0.0085      0.0354
        31         0.0327     -0.0222      0.0001      0.0016      0.0065
        32        -0.0099     -0.0258      0.0007      0.0008      0.0031
        33         0.0150      0.0076     -0.0003      0.0003      0.0012
        34         0.0771      0.0129      0.0021      0.0061      0.0250
        35         0.0205      0.0663     -0.0408      0.0065      0.0263
        36         0.0265     -0.0082      0.0234      0.0013      0.0053
        37        -0.0015     -0.0522      0.0053      0.0028      0.0111
        38         0.0948     -0.0496     -0.0008      0.0115      0.0459
        39         0.0057     -0.0145      0.0102      0.0003      0.0014
        40        -0.0095      0.0667      0.0001      0.0045      0.0177
        41         0.0375     -0.0131      0.0010      0.0016      0.0061
        42         0.0122      0.0366     -0.0107      0.0016      0.0061
        43        -0.0398     -0.0155      0.0020      0.0018      0.0070
        44         0.0546      0.0043      0.0025      0.0030      0.0114
        45         0.0282      0.0304     -0.0046      0.0017      0.0066
        46         0.0035     -0.0441     -0.0096      0.0020      0.0077
        47         0.0021     -0.0095     -0.0011      0.0001      0.0004
        48         0.0254     -0.0051     -0.0033      0.0007      0.0026
        49        -0.0057      0.0256     -0.0123      0.0008      0.0031
        50        -0.0258     -0.0117     -0.0034      0.0008      0.0030
 Ground to excited state transition magnetic dipole moments (Au):
       state          X           Y           Z
         1        -0.0266     -0.0120     -2.7559
         2         0.0300     -0.0122      0.7861
         3        -0.0064     -0.0144     -0.9524
         4         0.0051      0.0874      0.4100
         5         0.0724     -0.0039      0.3311
         6         0.1288     -0.0279     -0.1686
         7         0.0958     -0.0336     -0.1641
         8         0.0723      0.1230      1.1300
         9        -0.2535     -0.0045     -0.0032
        10        -0.0039     -0.0920      0.1079
        11        -0.0075      0.0678      0.0677
        12        -0.0468     -0.0183      0.0009
        13         0.0096      0.0799      0.5650
        14         0.0731     -0.0388      0.0053
        15         0.0517      0.0643     -0.0344
        16        -0.0406     -0.2332     -0.5134
        17        -0.0068     -0.0470     -0.2362
        18        -0.4196      0.0071      0.0324
        19        -0.1501      0.0737      0.8190
        20         0.0885      0.0423     -0.3429
        21        -0.0810      0.1132      0.1060
        22        -0.0515      0.1183      0.5942
        23         0.1218     -0.1001     -0.3254
        24        -0.0268     -0.0705     -0.3206
        25        -0.0563      0.0650     -0.0414
        26        -0.0427     -0.0096     -0.1559
        27         0.1517     -0.0348      0.7441
        28        -0.1045      0.0281     -1.0183
        29         0.0368      0.2193      0.7137
        30        -0.0746      0.0649     -0.5368
        31        -0.0665     -0.0663     -0.1362
        32        -0.0153      0.2263      0.0840
        33         0.0497      0.0021     -0.1247
        34         0.0263      0.0490      0.0974
        35         0.0226      0.0158     -0.0537
        36         0.0389      0.1214      0.1480
        37         0.0407     -0.0987      0.1139
        38         0.0493     -0.1548     -0.2857
        39        -0.0292      0.0208     -0.0004
        40         0.0416     -0.0028     -0.1547
        41        -0.1316     -0.0335     -0.2739
        42         0.0460      0.0233      0.4051
        43         0.0568     -0.0737      0.0195
        44        -0.2483      0.1140     -0.3255
        45        -0.0992     -0.1913      0.1298
        46         0.1306     -0.1521     -0.1889
        47        -0.1097      0.1183      0.0752
        48         0.0321     -0.0330      0.2094
        49        -0.1175      0.0343     -0.1811
        50        -0.1472      0.0864     -0.1111
 Ground to excited state transition velocity quadrupole moments (Au):
       state          XX          YY          ZZ          XY          XZ          YZ
         1         0.1020     -0.0366      0.0014     -0.1203      0.0073     -0.0023
         2         0.2450     -0.0645      0.0033      0.0014      0.0085     -0.0088
         3        -0.0416      0.0468      0.0013      0.0907     -0.0064     -0.0075
         4        -0.0607      0.0251     -0.0016      0.3229     -0.0446      0.0078
         5         0.5098     -0.2032      0.0032      0.0198      0.0106     -0.0265
         6         2.0063     -0.5670      0.0009      0.0391      0.0213     -0.0735
         7         0.3717     -0.1884      0.0099     -0.0318      0.0264      0.0162
         8        -0.0751     -0.0372      0.0078      0.5309     -0.1013      0.0285
         9         0.0854     -0.0377      0.0111      0.0042      0.0015     -0.0059
        10         0.1440      0.0823      0.0025     -0.4453      0.0506     -0.0281
        11         0.0110     -0.0165     -0.0005      0.0591     -0.0025      0.0034
        12         0.3269     -0.0094     -0.0082     -0.1071     -0.0000     -0.0204
        13         0.1736      0.0035      0.0024      0.3736     -0.0451     -0.0023
        14         1.1607     -0.2419     -0.0236      0.0194      0.0371     -0.0009
        15        -1.8699      0.3091      0.0171      0.4674     -0.0785      0.1455
        16        -0.8771      0.1953      0.0051     -1.0346      0.1951      0.0442
        17        -0.6389      0.3058      0.0055     -0.2631      0.0302      0.0161
        18         0.7621     -0.1688      0.0126      0.0875     -0.0085     -0.0477
        19         1.0626      0.0462     -0.0198     -0.3144      0.0057     -0.0968
        20        -0.3699     -0.1708      0.0104     -0.1183      0.0735      0.0596
        21        -0.5480      0.4488      0.0025      0.2086     -0.0354     -0.0185
        22         1.5817     -0.4799     -0.0178      0.3888     -0.0564     -0.1055
        23        -0.7095      0.2202      0.0075     -0.1213      0.0577      0.1011
        24         0.0034      0.0935      0.0045     -0.0350      0.0170     -0.0231
        25         0.0617     -0.0293     -0.0004      0.0653     -0.0620     -0.0227
        26         0.0337     -0.1481     -0.0109     -0.0360      0.0707      0.0080
        27        -0.9462      0.1036      0.0070      0.2834     -0.0067      0.1091
        28         1.0244     -0.1657      0.0057     -0.2302      0.1149     -0.0877
        29        -0.7514      0.1283      0.0174     -0.2599      0.2369      0.0313
        30         0.8320     -0.1552     -0.0300     -0.4144      0.1207     -0.0364
        31         0.2742      0.0432     -0.0205     -0.0735      0.0462      0.0146
        32        -0.1085      0.0421     -0.0012      0.2034     -0.0875      0.0095
        33         0.8423     -0.0426      0.0018     -0.3198      0.0222     -0.0000
        34        -0.0540     -0.1044     -0.0144      0.1041     -0.0577     -0.0316
        35        -0.3389      0.0547      0.0062     -0.5162      0.2750      0.0056
        36        -0.0460      0.0983     -0.0108      0.3024     -0.1315      0.0281
        37        -0.1764      0.0746      0.0004     -0.5148      0.0162     -0.0426
        38         0.4537     -0.0766     -0.0230      0.0573     -0.0502     -0.0603
        39         0.2305     -0.0812      0.0309      0.0914     -0.1570     -0.0470
        40        -0.0285     -0.1157      0.0020      0.2652     -0.0529      0.0406
        41         0.1966     -0.0302     -0.0083     -0.1062      0.0205     -0.0309
        42         0.3516      0.0543      0.0078      0.1103     -0.0093     -0.0970
        43         0.1424     -0.2692      0.0599     -0.0475      0.0566      0.0590
        44         0.4649      0.0544      0.0023     -0.2623      0.0331     -0.0378
        45         0.2070      0.0470     -0.0204      0.0911      0.3162     -0.0307
        46         0.0081      0.1282      0.0196     -0.0978      0.0973      0.0364
        47         0.1739     -0.0749      0.0073      0.3113     -0.0590      0.0124
        48         0.3234      0.0438     -0.0403     -0.0244      0.0519     -0.0836
        49        -0.2990     -0.1180     -0.0347     -0.0306      0.1112     -0.0271
        50         0.6715     -0.1027      0.0469     -0.2358     -0.1061     -0.1629
 <0|del|b> * <b|rxdel|0> + <0|del|b> * <b|delr+rdel|0>
 Rotatory Strengths (R) in cgs (10**-40 erg-esu-cm/Gauss)
       state          XX          YY          ZZ    R(velocity)    E-M Angle
         1       -78.6328    -70.9747      4.3813    -48.4087       96.55
         2        -5.4552    -18.2596    -21.2370    -14.9840       92.95
         3        13.2809     15.5080      3.1269     10.6386       84.28
         4        50.1174      1.0149     15.5679     22.2334       77.68
         5         0.4619    -27.9142    -61.9024    -29.7849      102.07
         6         0.4403    -55.7764   -209.8836    -88.4065      126.70
         7         5.3384    -85.1508    -60.5135    -46.7753      118.18
         8       164.9694    -19.0665     -2.9844     47.6395       84.42
         9        -0.0165     24.4430     23.3256     15.9173        2.85
        10        36.5385      5.8195     12.8436     18.4005       47.80
        11         3.7315      0.0059      3.7671      2.5015       46.83
        12         0.2065     -1.7191     -0.1038     -0.5388      106.53
        13        24.2808     -1.2026      8.4730     10.5170       83.45
        14         8.1981      2.0973      2.0652      4.1202       51.06
        15        59.8390    -66.3249     21.8128      5.1089       79.29
        16       320.4464     -5.8816     40.9563    118.5070       64.49
        17         6.5118      1.5477     -1.3532      2.2354       85.85
        18        -0.1230     14.8557     11.5634      8.7654       44.07
        19        13.3154   -104.0448    -24.8288    -38.5194       97.61
        20        11.1534    -40.6524    -26.3811    -18.6267      103.59
        21        22.2365    -13.8195      3.3522      3.9231       80.92
        22        30.7664    -39.5760     27.0085      6.0663       87.40
        23       -11.4960    -48.6531     -3.7515    -21.3002      116.95
        24         3.0420      1.6602      1.8698      2.1907       77.14
        25        -2.7183      2.1481     -0.0431     -0.2045       96.94
        26        10.0728     -1.6300    -10.4662     -0.6745       92.68
        27        -5.2632    -70.1825    -17.7525    -31.0661      101.47
        28        38.6733    -26.6006     -9.1591      0.9712       89.69
        29       -19.7401    -43.2222     99.5097     12.1825       84.61
        30         3.2862    -21.1948      1.7819     -5.3756       94.15
        31         5.4391     -3.7627     -4.8701     -1.0646       96.35
        32       -17.2088     -0.0535     -7.2673     -8.1765      147.33
        33        -0.0452      1.4956      2.0285      1.1596       69.30
        34         3.9127     -0.9078      9.4218      4.1422       70.91
        35        13.0915    -39.3801     42.2347      5.3154       40.35
        36        18.1740     -3.9435      0.7892      5.0066       60.38
        37         8.2632      7.2109      8.9663      8.1468       45.95
        38        11.4235     -1.6426     43.7121     17.8310       69.04
        39        -3.5064     -2.8871      4.3924     -0.6670      135.20
        40         6.9243     -1.6976     -7.7083     -0.8272       93.19
        41         0.6442    -12.8919     -7.4155     -6.5544      113.18
        42        -8.7980     -7.6776      4.5693     -3.9688      100.33
        43         3.9670     -9.0640      0.7125     -1.4615      105.45
        44        -2.2872    -31.8274    -21.9000    -18.6715      126.58
        45       -32.9205     -7.7088      3.7301    -12.2997      151.32
        46        27.5189      2.9285      5.4937     11.9804       43.91
        47        -4.1990      0.0996     -1.6423     -1.9139      145.64
        48        -0.3574     -4.1545      5.6549      0.3810       87.06
        49         1.2687      5.3217      8.4184      5.0029       53.36
        50        -2.1218     14.9816     -0.3421      4.1726       57.05
 1/2[<0|r|b>*<b|rxdel|0> + (<0|rxdel|b>*<b|r|0>)*]
 Rotatory Strengths (R) in cgs (10**-40 erg-esu-cm/Gauss)
       state          XX          YY          ZZ     R(length)
         1         7.8649      4.3215   -145.4735    -44.4291
         2       -33.5852      1.2802    -10.7703    -14.3584
         3         0.8566      4.5155     20.7916      8.7213
         4         0.6577     65.2967      2.1090     22.6878
         5       -92.4061     -0.3595      2.4443    -30.1071
         6      -270.8383     -0.5864      2.5816    -89.6144
         7      -148.3660      4.9668      1.4591    -47.3134
         8       -49.7102    136.5074     51.1545     45.9839
         9        48.6291     -0.0252     -0.0012     16.2009
        10        -0.3123     53.5375      2.5378     18.5877
        11         0.0820      7.8136     -0.2362      2.5531
        12        -3.3612      1.6519      0.0093     -0.5667
        13         0.0574     39.2528     -6.0774     11.0776
        14         3.6519      8.8748     -0.2145      4.1041
        15       -30.0453     46.9438     -1.2607      5.2126
        16        13.4386    335.5674     10.3253    119.7771
        17        -2.0314     11.5954     -2.9570      2.2023
        18        27.0988      0.4287     -0.3093      9.0728
        19      -158.2239      5.3868     32.7472    -40.0300
        20       -52.9329    -13.1413     10.0174    -18.6856
        21       -23.4016     36.4400     -0.3912      4.2157
        22       -25.0405     54.3748     -9.4619      6.6241
        23       -47.7605      1.5378    -16.0519    -20.7582
        24         1.6893      4.7372      0.3877      2.2714
        25        -0.0319     -2.2154      1.3620     -0.2951
        26        -8.4789      1.7672      5.0877     -0.5413
        27       -82.2966    -10.7652     -2.5266    -31.8628
        28       -54.3250     -2.0976     61.2074      1.5949
        29       -10.0724     96.0139    -55.3283     10.2044
        30       -29.8898      6.2319      9.2581     -4.7999
        31        -9.6649      6.5519      0.2626     -0.9501
        32         0.6790    -23.6036      0.9179     -7.3356
        33         3.3277      0.0713     -0.2976      1.0338
        34         8.9142      2.8269      0.8505      4.1972
        35         2.0181      4.5497      8.9562      5.1747
        36         4.5343     -4.3055     13.4080      4.5456
        37        -0.2713     22.5102      3.0502      8.4297
        38        20.1380     32.5069      0.5637     17.7362
        39        -0.7191     -1.4395     -0.0222     -0.7269
        40        -1.6670     -0.7861     -1.4357     -1.2963
        41       -20.5034      1.8055     -0.9285     -6.5421
        42         2.2854      3.4479    -14.8640     -3.0435
        43        -9.4255      4.7356      0.1733     -1.5055
        44       -55.1955      1.9343     -0.7826    -18.0146
        45       -11.3422    -25.1932     -2.8356    -13.1237
        46         1.9794     26.8290      6.6507     11.8197
        47        -1.0021     -5.4345     -0.9374     -2.4580
        48         3.3116      0.6873     -2.8715      0.3758
        49         2.8365      3.8433      6.8549      4.5116
        50        14.9288     -4.1923      0.3191      3.6852
  1/2[<0|del|b>*<b|r|0> + (<0|r|b>*<b|del|0>)*] (Au)
       state          X           Y           Z        Dip. S.   Osc.(frdel)
         1        -0.0049     -0.0072     -0.0002      0.0123      0.0082
         2        -0.0928     -0.0008     -0.0000      0.0936      0.0624
         3        -0.0020     -0.0107     -0.0001      0.0127      0.0085
         4        -0.0025     -0.0827     -0.0000      0.0852      0.0568
         5        -0.2495     -0.0013     -0.0000      0.2508      0.1672
         6        -0.7843     -0.0001     -0.0000      0.7845      0.5230
         7        -0.4655     -0.0042     -0.0000      0.4697      0.3131
         8        -0.0973     -0.2530     -0.0005      0.3507      0.2338
         9        -0.0082     -0.0000     -0.0000      0.0082      0.0055
        10        -0.0015     -0.0788     -0.0001      0.0804      0.0536
        11        -0.0000     -0.0032     -0.0000      0.0032      0.0021
        12        -0.0012     -0.0020     -0.0000      0.0032      0.0022
        13        -0.0000     -0.0594     -0.0000      0.0595      0.0396
        14        -0.0007     -0.0137     -0.0004      0.0148      0.0099
        15        -0.0883     -0.1393     -0.0004      0.2281      0.1520
        16        -0.0291     -0.5508     -0.0001      0.5799      0.3866
        17        -0.0241     -0.0163     -0.0000      0.0405      0.0270
        18        -0.0011     -0.0010     -0.0000      0.0021      0.0014
        19        -0.3122     -0.0015     -0.0005      0.3141      0.2094
        20        -0.1019     -0.0276     -0.0002      0.1297      0.0865
        21        -0.0240     -0.0295     -0.0000      0.0535      0.0356
        22        -0.0686     -0.0612     -0.0001      0.1299      0.0866
        23        -0.0447     -0.0000     -0.0008      0.0455      0.0304
        24        -0.0012     -0.0013     -0.0000      0.0025      0.0017
        25         0.0000     -0.0004     -0.0004      0.0008      0.0005
        26        -0.0117     -0.0101     -0.0003      0.0221      0.0147
        27        -0.0903     -0.0295     -0.0000      0.1198      0.0799
[...]
    41  H    0.000003   0.001897  -0.001773  -0.000104   0.008478  -0.000278
    42  C    0.000000   0.000004  -0.002029   0.000008   0.000146  -0.000000
    43  H    0.000000  -0.000000   0.000235  -0.000018   0.000002  -0.000000
    44  C    0.000001  -0.001733  -0.000957   0.000001   0.003571  -0.000276
    45  H    0.000000   0.000630   0.000002  -0.000000  -0.001281  -0.000007
    46  H   -0.000000   0.000001   0.000187   0.000000  -0.000018   0.000000
    47  H    0.000000  -0.000183  -0.000030   0.000000   0.001325  -0.000013
    48  H   -0.000000  -0.000000   0.000000  -0.000001   0.000000   0.000000
    49  H   -0.000001   0.000000  -0.000000  -0.000000   0.000000  -0.000000
              31         32         33         34         35         36
     1  O    0.000000  -0.000000  -0.000000  -0.000000  -0.000000  -0.000000
     2  C   -0.000000   0.000000   0.000000  -0.000000   0.000000   0.000000
     3  C    0.000000   0.000000  -0.000000  -0.000000  -0.000000  -0.000000
     4  C    0.000000  -0.000000  -0.000000   0.000000   0.000000   0.000000
     5  C    0.000013  -0.000017  -0.000003   0.000000  -0.000005  -0.000000
     6  C    0.000006  -0.000000  -0.000008  -0.000000  -0.000003  -0.000000
     7  C    0.000056  -0.000006  -0.000056   0.000000  -0.000029  -0.000001
     8  H    0.000001   0.000001   0.000000   0.000000   0.000000   0.000000
     9  H    0.000000   0.000000   0.000000  -0.000000   0.000000  -0.000000
    10  H    0.003438  -0.000970  -0.000941  -0.000015  -0.003762  -0.000328
    11  C   -0.000247  -0.000210   0.000395   0.000014   0.000264   0.000010
    12  C    0.000147  -0.000083   0.000465  -0.000098  -0.000319  -0.000012
    13  C   -0.000436   0.000216  -0.000281  -0.000003   0.000692  -0.000024
    14  C   -0.000006   0.000003  -0.000423   0.000021   0.000005   0.000000
    15  N   -0.000035   0.000039  -0.000180  -0.000020  -0.000151   0.000010
    16  N   -0.000972  -0.006961   0.000237   0.000004  -0.000204   0.000157
    17  C   -0.000477   0.000506   0.000011   0.000000  -0.000091  -0.000026
    18  C    0.000020  -0.000001  -0.001360   0.000158  -0.000041  -0.000001
    19  H   -0.000002   0.000000   0.000037  -0.000001   0.000001   0.000000
    20  C   -0.000233   0.000004   0.005206   0.002109   0.000595   0.000011
    21  H   -0.000083   0.000074   0.000543  -0.000147  -0.000251  -0.000029
    22  C   -0.014734   0.001151   0.000621   0.000008   0.004552   0.002483
    23  C    0.005392  -0.001643  -0.000079  -0.000001  -0.001797  -0.000854
    24  H   -0.000193   0.000068   0.000002   0.000000   0.000026   0.000006
    25  H    0.000001  -0.000000  -0.000183   0.000036  -0.000002  -0.000000
    26  C    0.000131   0.000002  -0.003736  -0.015104  -0.000424   0.000001
    27  C   -0.075551   0.006741  -0.000519   0.000006  -0.006260  -0.019244
    28  H    0.001329  -0.001254  -0.000002  -0.000000  -0.000153  -0.000128
    29  C    0.002400  -0.000017  -0.022161  -0.021305  -0.004531  -0.000228
    30  H   -0.000025   0.000000   0.005996  -0.002431   0.000053   0.000001
    31  C   -0.027679  -0.018807  -0.005459  -0.000241  -0.022487  -0.021027
    32  H   -0.018807  -0.020434   0.000060   0.000000   0.004225   0.005056
    33  N   -0.005459   0.000060   0.084109   0.015089   0.007563   0.000635
    34  C   -0.000241   0.000000   0.015089   0.163270   0.000590   0.000019
    35  N   -0.022487   0.004225   0.007563   0.000590  -0.013961   0.008558
    36  C   -0.021027   0.005056   0.000635   0.000019   0.008558   0.300420
    37  C   -0.002949   0.000011  -0.002868  -0.005020   0.002853   0.000677
    38  C   -0.000167   0.000000  -0.016132  -0.001493  -0.000396   0.000050
    39  H    0.000006  -0.000000  -0.000363   0.008302  -0.000008  -0.000000
    40  C   -0.034115   0.001907   0.001981  -0.000205   0.020407   0.008841
    41  H    0.010969   0.001958  -0.010218  -0.001238  -0.000649  -0.001979
    42  C    0.033215  -0.001910  -0.000578  -0.000015  -0.036597  -0.080632
    43  H   -0.000988   0.006599   0.000001  -0.000000   0.002780   0.024341
    44  C    0.000309  -0.000014  -0.001285  -0.000969   0.014381   0.006920
    45  H   -0.000057   0.000000   0.000159  -0.001222   0.000031   0.000011
    46  H    0.000663  -0.000077   0.000013   0.000003  -0.000154  -0.003227
    47  H    0.001288  -0.000004  -0.000661   0.000435  -0.000984   0.000047
    48  H    0.000000   0.000000   0.000000  -0.000000   0.000000  -0.000000
    49  H   -0.000000   0.000000  -0.000000  -0.000000  -0.000000   0.000000
              37         38         39         40         41         42
     1  O   -0.000000   0.000000   0.000000  -0.000000  -0.000000   0.000000
     2  C    0.000000  -0.000000  -0.000000   0.000000   0.000000  -0.000000
     3  C   -0.000000   0.000000   0.000000  -0.000000  -0.000000   0.000000
     4  C   -0.000000  -0.000000   0.000000  -0.000000   0.000000   0.000000
     5  C   -0.000000   0.000000   0.000000  -0.000000  -0.000011   0.000000
     6  C    0.000000   0.000000  -0.000000  -0.000000  -0.000009   0.000000
     7  C   -0.000003   0.000000   0.000000  -0.000004  -0.000100   0.000000
     8  H    0.000000  -0.000000  -0.000000   0.000000   0.000001  -0.000000
     9  H    0.000000  -0.000000  -0.000000   0.000000  -0.000000  -0.000000
    10  H   -0.000296   0.000006  -0.000000  -0.000813  -0.001168   0.000083
    11  C    0.000032   0.000004   0.000001   0.000000   0.000215   0.000001
    12  C   -0.000297   0.000018   0.000004  -0.000065  -0.000374   0.000003
    13  C   -0.000087   0.000002  -0.000000   0.000075   0.000013  -0.000002
    14  C   -0.000054   0.000006  -0.000001   0.000000   0.000052  -0.000000
    15  N    0.002123  -0.000117  -0.000015  -0.000083   0.000082   0.000002
    16  N   -0.000120  -0.000003   0.000000   0.000111   0.001392   0.000024
    17  C    0.000001  -0.000000  -0.000000  -0.000023  -0.000390  -0.000004
    18  C   -0.000783   0.000272   0.000165  -0.000006   0.000132   0.000000
    19  H    0.000008  -0.000000  -0.000000   0.000000   0.000002  -0.000000
    20  C    0.001112  -0.000886  -0.000238   0.000055  -0.001520  -0.000002
    21  H   -0.002455   0.000272   0.000024   0.000058   0.001390  -0.000020
    22  C    0.000008  -0.000003  -0.000000   0.000599   0.000948  -0.001083
    23  C   -0.000005   0.000000   0.000000  -0.000179   0.000359   0.000211
    24  H    0.000000  -0.000000  -0.000000   0.000002   0.000047  -0.000000
    25  H   -0.000053   0.000013   0.000009  -0.000000   0.000003   0.000000
    26  C    0.002226  -0.001813  -0.005304  -0.000314   0.001897   0.000004
    27  C    0.000156   0.000006  -0.000000  -0.000162  -0.001773  -0.002029
    28  H   -0.000001   0.000000   0.000000  -0.000019  -0.000104   0.000008
    29  C   -0.018052   0.020776   0.007013  -0.001908   0.008478   0.000146
    30  H    0.004327  -0.002377  -0.001203   0.000013  -0.000278  -0.000000
    31  C   -0.002949  -0.000167   0.000006  -0.034115   0.010969   0.033215
    32  H    0.000011   0.000000  -0.000000   0.001907   0.001958  -0.001910
    33  N   -0.002868  -0.016132  -0.000363   0.001981  -0.010218  -0.000578
    34  C   -0.005020  -0.001493   0.008302  -0.000205  -0.001238  -0.000015
    35  N    0.002853  -0.000396  -0.000008   0.020407  -0.000649  -0.036597
    36  C    0.000677   0.000050  -0.000000   0.008841  -0.001979  -0.080632
    37  C    0.147168   0.025187  -0.005564   0.010979  -0.009330  -0.003528
    38  C    0.025187  -0.145443   0.002813  -0.002381   0.000661   0.000155
    39  H   -0.005564   0.002813  -0.010708   0.000069   0.000042  -0.000001
    40  C    0.010979  -0.002381   0.000069   0.207367  -0.004699   0.045672
    41  H   -0.009330   0.000661   0.000042  -0.004699   0.008373   0.004002
    42  C   -0.003528   0.000155  -0.000001   0.045672   0.004002  -0.087556
    43  H    0.000019   0.000000   0.000000  -0.005959  -0.000013   0.000868
    44  C    0.040432   0.009679   0.001033  -0.006177  -0.008359   0.014335
    45  H    0.008694  -0.010703  -0.001143   0.000035  -0.000089   0.000057
    46  H    0.000293   0.000016  -0.000000   0.001893  -0.000140  -0.001091
    47  H    0.002643  -0.003291   0.000196  -0.003875   0.001302  -0.002931
    48  H   -0.000000  -0.000000  -0.000000  -0.000000  -0.000000   0.000000
    49  H    0.000000  -0.000000   0.000000   0.000000   0.000000  -0.000000
              43         44         45         46         47         48
     1  O    0.000000  -0.000000  -0.000000  -0.000000   0.000000   0.000486
     2  C   -0.000000  -0.000000   0.000000  -0.000000  -0.000000  -0.000380
     3  C   -0.000000   0.000000  -0.000000   0.000000   0.000000   0.003894
     4  C    0.000000   0.000000  -0.000000  -0.000000   0.000000  -0.000566
     5  C    0.000000   0.000000  -0.000000  -0.000000   0.000000  -0.000169
     6  C   -0.000000  -0.000000   0.000000   0.000000  -0.000000  -0.000059
     7  C   -0.000000   0.000000   0.000000   0.000000   0.000000  -0.000841
     8  H   -0.000000  -0.000000   0.000000   0.000000  -0.000000  -0.001748
     9  H   -0.000000  -0.000000   0.000000  -0.000000  -0.000000   0.000035
    10  H   -0.000010   0.000128   0.000000   0.000001   0.000003   0.000000
    11  C    0.000000   0.000004  -0.000000  -0.000000   0.000000   0.000113
    12  C    0.000000  -0.000016  -0.000000   0.000000   0.000001   0.000022
    13  C    0.000014  -0.000020   0.000000  -0.000000   0.000001  -0.000011
    14  C   -0.000000   0.000003  -0.000000   0.000000  -0.000000   0.000003
    15  N   -0.000000   0.000084   0.000000   0.000000  -0.000017   0.000000
    16  N    0.000126   0.000192  -0.000000  -0.000007   0.000002   0.000001
    17  C   -0.000008  -0.000000   0.000000   0.000000  -0.000000  -0.000129
    18  C    0.000000   0.000024  -0.000003  -0.000000   0.000001  -0.000000
    19  H   -0.000000  -0.000000   0.000000   0.000000  -0.000000   0.000004
    20  C   -0.000000  -0.000085   0.000019   0.000000  -0.000016  -0.000000
    21  H    0.000000   0.000109  -0.000004  -0.000000   0.000018  -0.000000
    22  C   -0.000471   0.000116   0.000000  -0.000019  -0.000006  -0.000001
    23  C   -0.000081  -0.000001  -0.000000   0.000002   0.000000  -0.000005
    24  H    0.000000  -0.000000   0.000000  -0.000000   0.000000   0.000179
    25  H    0.000000   0.000001   0.000000  -0.000000   0.000000  -0.000000
    26  C   -0.000000  -0.001733   0.000630   0.000001  -0.000183  -0.000000
    27  C    0.000235  -0.000957   0.000002   0.000187  -0.000030   0.000000
    28  H   -0.000018   0.000001  -0.000000   0.000000   0.000000  -0.000001
    29  C    0.000002   0.003571  -0.001281  -0.000018   0.001325   0.000000
    30  H   -0.000000  -0.000276  -0.000007   0.000000  -0.000013   0.000000
    31  C   -0.000988   0.000309  -0.000057   0.000663   0.001288   0.000000
    32  H    0.006599  -0.000014   0.000000  -0.000077  -0.000004   0.000000
    33  N    0.000001  -0.001285   0.000159   0.000013  -0.000661   0.000000
    34  C   -0.000000  -0.000969  -0.001222   0.000003   0.000435  -0.000000
    35  N    0.002780   0.014381   0.000031  -0.000154  -0.000984   0.000000
    36  C    0.024341   0.006920   0.000011  -0.003227   0.000047  -0.000000
    37  C    0.000019   0.040432   0.008694   0.000293   0.002643  -0.000000
    38  C    0.000000   0.009679  -0.010703   0.000016  -0.003291  -0.000000
    39  H    0.000000   0.001033  -0.001143  -0.000000   0.000196  -0.000000
    40  C   -0.005959  -0.006177   0.000035   0.001893  -0.003875  -0.000000
    41  H   -0.000013  -0.008359  -0.000089  -0.000140   0.001302  -0.000000
    42  C    0.000868   0.014335   0.000057  -0.001091  -0.002931   0.000000
    43  H   -0.039979   0.000001  -0.000000  -0.001619   0.000109  -0.000000
    44  C    0.000001  -0.309890  -0.003915   0.001346   0.015254   0.000000
    45  H   -0.000000  -0.003915   0.017204   0.000013  -0.004767   0.000000
    46  H   -0.001619   0.001346   0.000013   0.004559  -0.001353   0.000000
    47  H    0.000109   0.015254  -0.004767  -0.001353   0.010401   0.000000
    48  H   -0.000000   0.000000   0.000000   0.000000   0.000000  -0.001428
    49  H   -0.000000  -0.000000  -0.000000   0.000000  -0.000000   0.000056
              49
     1  O    0.000460
     2  C   -0.000313
     3  C   -0.000515
     4  C    0.004008
     5  C    0.000034
     6  C   -0.000547
     7  C   -0.000882
     8  H    0.000022
     9  H   -0.001631
    10  H   -0.000000
    11  C    0.000096
    12  C    0.000005
    13  C    0.000021
    14  C   -0.000109
    15  N    0.000000
    16  N   -0.000000
    17  C    0.000002
    18  C   -0.000005
    19  H    0.000154
    20  C   -0.000000
    21  H    0.000000
    22  C   -0.000000
    23  C    0.000000
    24  H    0.000004
    25  H   -0.000001
    26  C    0.000000
    27  C   -0.000000
    28  H   -0.000000
    29  C    0.000000
    30  H   -0.000000
    31  C   -0.000000
    32  H    0.000000
    33  N   -0.000000
    34  C   -0.000000
    35  N   -0.000000
    36  C    0.000000
    37  C    0.000000
    38  C   -0.000000
    39  H    0.000000
    40  C    0.000000
    41  H    0.000000
    42  C   -0.000000
    43  H   -0.000000
    44  C   -0.000000
    45  H   -0.000000
    46  H    0.000000
    47  H   -0.000000
    48  H    0.000056
    49  H   -0.001272
 Mulliken charges and spin densities:
               1          2
     1  O   -0.527809   0.028404
     2  C    0.282285  -0.008105
     3  C   -0.328064   0.032734
     4  C   -0.331466   0.031011
     5  C    0.335209  -0.032101
     6  C    0.311433  -0.030165
     7  C   -1.286761   0.078025
     8  H    0.546569  -0.002109
     9  H    0.555959  -0.002350
    10  H   -0.429976  -0.002852
    11  C    0.179291  -0.130320
    12  C    0.281359   0.177238
    13  C    0.207816   0.197217
    14  C    0.144290  -0.107289
    15  N    0.128103   0.024653
    16  N   -0.292585   0.029689
    17  C    0.171703  -0.124532
    18  C    0.039228   0.167910
    19  H   -0.134682   0.003881
    20  C    0.467275  -0.154046
    21  H   -0.840933   0.000478
    22  C    0.639673  -0.166338
    23  C    0.063881   0.188105
    24  H   -0.081889   0.005512
    25  H   -0.193275  -0.008211
    26  C   -0.313435   0.421637
    27  C   -0.515060   0.430058
    28  H   -0.169451  -0.009561
    29  C   -0.067168  -0.194576
    30  H    0.380312  -0.019790
    31  C    0.426491  -0.167586
    32  H    0.292071  -0.023786
    33  N   -0.347900   0.055628
    34  C    0.253288   0.140533
    35  N    0.493484  -0.025675
    36  C    0.142900   0.230515
    37  C   -0.193313   0.197483
    38  C    0.202310  -0.125268
    39  H   -0.279365  -0.004873
    40  C    0.333060   0.239077
    41  H   -1.152731  -0.000122
    42  C    0.053528  -0.119195
    43  H   -0.211004  -0.014051
    44  C   -0.208376  -0.225776
    45  H   -0.332423   0.003666
    46  H   -0.232452   0.001285
    47  H    0.606954   0.014897
    48  H   -0.034976  -0.000548
    49  H   -0.033377  -0.000414
 Sum of Mulliken charges =  -1.00000   1.00000
 Mulliken charges and spin densities with hydrogens summed into heavy atoms:
               1          2
     1  O   -0.527809   0.028404
     2  C    0.282285  -0.008105
     3  C   -0.363040   0.032186
     4  C   -0.364842   0.030597
     5  C    0.881778  -0.034210
     6  C    0.867392  -0.032515
     7  C   -1.286761   0.078025
    11  C    0.179291  -0.130320
    12  C    0.281359   0.177238
    13  C    0.207816   0.197217
    14  C    0.009608  -0.103408
    15  N   -0.712830   0.025131
    16  N   -0.722561   0.026837
    17  C    0.089813  -0.119020
    18  C   -0.154048   0.159699
    20  C    0.467275  -0.154046
    22  C    0.639673  -0.166338
    23  C   -0.105570   0.178545
    26  C    0.066876   0.401847
    27  C   -0.222988   0.406272
    29  C   -0.067168  -0.194576
    31  C    0.426491  -0.167586
    33  N   -0.347900   0.055628
    34  C   -0.026077   0.135661
    35  N   -0.659247  -0.025798
    36  C   -0.068104   0.216464
    37  C   -0.193313   0.197483
    38  C   -0.130113  -0.121601
    40  C    0.333060   0.239077
    42  C   -0.178924  -0.117910
    44  C    0.398578  -0.210878
 Electronic spatial extent (au):  <R**2>=          14769.2441
 Charge=             -1.0000 electrons
 Dipole moment (field-independent basis, Debye):
    X=             11.1905    Y=             -0.8438    Z=              0.3132  Tot=             11.2267
 Quadrupole moment (field-independent basis, Debye-Ang):
   XX=           -339.4990   YY=           -192.0925   ZZ=           -191.9288
   XY=             -3.0387   XZ=             -0.3688   YZ=              0.8863
 Traceless Quadrupole moment (field-independent basis, Debye-Ang):
   XX=            -98.3256   YY=             49.0809   ZZ=             49.2447
   XY=             -3.0387   XZ=             -0.3688   YZ=              0.8863
 Octapole moment (field-independent basis, Debye-Ang**2):
  XXX=            973.4965  YYY=             -2.9251  ZZZ=              0.0762  XYY=            -30.6866
  XXY=              1.3706  XXZ=              8.5811  XZZ=            -20.3891  YZZ=             -1.0636
  YYZ=              0.4211  XYZ=              2.0570
 Hexadecapole moment (field-independent basis, Debye-Ang**3):
 XXXX=         -23443.4558 YYYY=          -5444.0066 ZZZZ=           -397.0422 XXXY=            -89.4841
 XXXZ=            -57.7942 YYYX=             -9.3750 YYYZ=             56.4092 ZZZX=              3.5870
 ZZZY=             -0.1599 XXYY=          -3541.8614 XXZZ=          -2747.8039 YYZZ=          -1070.5820
 XXYZ=            -23.0887 YYXZ=              7.6423 ZZXY=             -0.4412
 N-N= 2.748428642687D+03 E-N=-8.519281384844D+03  KE= 1.279953792823D+03
 1\1\GINC-WORKSTATION\SP\UCAM-B3LYP TD-FC\Gen\C26H18N4O1(1-,2)\GAUSSIAN
 \06-May-2024\0\\# cam-b3lyp gen TD(singlets,nstates=50,root=1)\\Gaussi
 an job\\-1,2\O,0,-7.631618,-0.056977,-0.060239\C,0,-6.398892,-0.0425,-
 0.041214\C,0,-5.598628,-1.090682,0.591347\C,0,-5.604605,1.025686,-0.64
 7935\C,0,-4.233181,-1.072106,0.594358\C,0,-4.23973,1.040393,-0.609922\
 C,0,-3.476807,-0.007723,0.002454\H,0,-3.687265,-1.859045,1.120116\H,0,
 -3.697531,1.841695,-1.117102\H,0,0.550812,-0.845881,0.786567\C,0,-2.04
 3129,0.004773,0.018589\C,0,-1.357166,1.254601,0.171601\C,0,-1.338113,-
 1.226638,-0.118692\C,0,-1.890023,2.464234,0.66151\N,0,-0.02022,1.50360
 7,-0.104013\N,0,0.007369,-1.455257,0.184427\C,0,-1.836983,-2.442142,-0
 .629143\C,0,-0.889559,3.427907,0.629788\H,0,-2.90621,2.574722,1.028906
 \C,0,0.288824,2.810475,0.150874\H,0,0.646265,0.879819,-0.547335\C,0,0.
 337199,-2.770781,-0.06304\C,0,-0.829242,-3.391811,-0.576341\H,0,-2.837
 407,-2.560572,-1.035884\H,0,-0.952731,4.46261,0.955974\C,0,1.56707,3.3
 98551,-0.013916\C,0,1.596452,-3.380283,0.106262\H,0,-0.866831,-4.41983
 ,-0.926611\C,0,2.78493,2.739401,-0.160721\H,0,1.598069,4.485358,0.0704
 38\C,0,2.855451,-2.773868,0.184929\H,0,1.59944,-4.468441,0.04682\N,0,3
 .006801,1.399706,-0.162797\C,0,4.049357,3.47506,-0.242226\N,0,3.138849
 ,-1.435648,0.082344\C,0,4.115189,-3.440386,0.290977\C,0,4.365794,1.246
 332,-0.192185\C,0,5.030575,2.543495,-0.264967\H,0,4.137961,4.560006,-0
 .261515\C,0,4.499355,-1.22074,0.07153\H,0,2.515873,-0.64553,-0.080444\
 C,0,5.116894,-2.487509,0.215833\H,0,4.22415,-4.516882,0.397425\C,0,5.0
 71032,0.051594,-0.085161\H,0,6.108868,2.690507,-0.304179\H,0,6.191813,
 -2.647871,0.253525\H,0,6.160574,0.102953,-0.101339\H,0,-6.152659,-1.88
 5907,1.094733\H,0,-6.162227,1.809264,-1.16545\\Version=ES64L-G16RevB.0
 1\State=2-A\HF=-1294.3140395\S2=0.886275\S2-1=0.\S2A=0.763004\RMSD=6.0
 61e-09\PG=C01 [X(C26H18N4O1)]\\@


 UNLESS WE CHANGE DIRECTIONS, WE WILL WIND UP WHERE WE ARE HEADED.
     -- CONFUCIUS
 Job cpu time:      15 days  1 hours 39 minutes 28.3 seconds.
 Elapsed time:       0 days  6 hours 24 minutes 56.7 seconds.
 File lengths (MBytes):  RWF=  10176 Int=      0 D2E=      0 Chk=   1029 Scr=      1
 Normal termination of Gaussian 16 at Mon May  6 01:11:10 2024.
