49
tddft_r1s50_gas_radical_anion.xyz    Empirical formula: C26H18N4O    Energy(Hartree): -1294.314039    
O       -7.6316180000   -0.0569770000   -0.0602390000
C       -6.3988920000   -0.0425000000   -0.0412140000
C       -5.5986280000   -1.0906820000    0.5913470000
C       -5.6046050000    1.0256860000   -0.6479350000
C       -4.2331810000   -1.0721060000    0.5943580000
C       -4.2397300000    1.0403930000   -0.6099220000
C       -3.4768070000   -0.0077230000    0.0024540000
H       -3.6872650000   -1.8590450000    1.1201160000
H       -3.6975310000    1.8416950000   -1.1171020000
H        0.5508120000   -0.8458810000    0.7865670000
C       -2.0431290000    0.0047730000    0.0185890000
C       -1.3571660000    1.2546010000    0.1716010000
C       -1.3381130000   -1.2266380000   -0.1186920000
C       -1.8900230000    2.4642340000    0.6615100000
N       -0.0202200000    1.5036070000   -0.1040130000
N        0.0073690000   -1.4552570000    0.1844270000
C       -1.8369830000   -2.4421420000   -0.6291430000
C       -0.8895590000    3.4279070000    0.6297880000
H       -2.9062100000    2.5747220000    1.0289060000
C        0.2888240000    2.8104750000    0.1508740000
H        0.6462650000    0.8798190000   -0.5473350000
C        0.3371990000   -2.7707810000   -0.0630400000
C       -0.8292420000   -3.3918110000   -0.5763410000
H       -2.8374070000   -2.5605720000   -1.0358840000
H       -0.9527310000    4.4626100000    0.9559740000
C        1.5670700000    3.3985510000   -0.0139160000
C        1.5964520000   -3.3802830000    0.1062620000
H       -0.8668310000   -4.4198300000   -0.9266110000
C        2.7849300000    2.7394010000   -0.1607210000
H        1.5980690000    4.4853580000    0.0704380000
C        2.8554510000   -2.7738680000    0.1849290000
H        1.5994400000   -4.4684410000    0.0468200000
N        3.0068010000    1.3997060000   -0.1627970000
C        4.0493570000    3.4750600000   -0.2422260000
N        3.1388490000   -1.4356480000    0.0823440000
C        4.1151890000   -3.4403860000    0.2909770000
C        4.3657940000    1.2463320000   -0.1921850000
C        5.0305750000    2.5434950000   -0.2649670000
H        4.1379610000    4.5600060000   -0.2615150000
C        4.4993550000   -1.2207400000    0.0715300000
H        2.5158730000   -0.6455300000   -0.0804440000
C        5.1168940000   -2.4875090000    0.2158330000
H        4.2241500000   -4.5168820000    0.3974250000
C        5.0710320000    0.0515940000   -0.0851610000
H        6.1088680000    2.6905070000   -0.3041790000
H        6.1918130000   -2.6478710000    0.2535250000
H        6.1605740000    0.1029530000   -0.1013390000
H       -6.1526590000   -1.8859070000    1.0947330000
H       -6.1622270000    1.8092640000   -1.1654500000
