 Entering Gaussian System, Link 0=/jet/home/xzhangj/programs/g16/g16
 Input=/jet/home/xzhangj/scratch/ch_1c_para_c4/ch_1c_para_c4.com
 Output=/jet/home/xzhangj/scratch/ch_1c_para_c4/ch_1c_para_c4.log
 Initial command:
 /jet/home/xzhangj/programs/g16/l1.exe "/ocean/projects/che220035p/xzhangj/scratch/ch_1c_para_c4/Gau-10204.inp" -scrdir="/ocean/projects/che220035p/xzhangj/scratch/ch_1c_para_c4/"
 Entering Link 1 = /jet/home/xzhangj/programs/g16/l1.exe PID=     10206.
  
 Copyright (c) 1988-2017, Gaussian, Inc.  All Rights Reserved.
  
 This is part of the Gaussian(R) 16 program.  It is based on
 the Gaussian(R) 09 system (copyright 2009, Gaussian, Inc.),
 the Gaussian(R) 03 system (copyright 2003, Gaussian, Inc.),
 the Gaussian(R) 98 system (copyright 1998, Gaussian, Inc.),
 the Gaussian(R) 94 system (copyright 1995, Gaussian, Inc.),
 the Gaussian 92(TM) system (copyright 1992, Gaussian, Inc.),
 the Gaussian 90(TM) system (copyright 1990, Gaussian, Inc.),
 the Gaussian 88(TM) system (copyright 1988, Gaussian, Inc.),
 the Gaussian 86(TM) system (copyright 1986, Carnegie Mellon
 University), and the Gaussian 82(TM) system (copyright 1983,
 Carnegie Mellon University). Gaussian is a federally registered
 trademark of Gaussian, Inc.
  
 This software contains proprietary and confidential information,
 including trade secrets, belonging to Gaussian, Inc.
  
 This software is provided under written license and may be
 used, copied, transmitted, or stored only in accord with that
 written license.
  
 The following legend is applicable only to US Government
 contracts under FAR:
  
                    RESTRICTED RIGHTS LEGEND
  
 Use, reproduction and disclosure by the US Government is
 subject to restrictions as set forth in subparagraphs (a)
 and (c) of the Commercial Computer Software - Restricted
 Rights clause in FAR 52.227-19.
  
 Gaussian, Inc.
 340 Quinnipiac St., Bldg. 40, Wallingford CT 06492
  
  
 ---------------------------------------------------------------
 Warning -- This program may not be used in any manner that
 competes with the business of Gaussian, Inc. or will provide
 assistance to any competitor of Gaussian, Inc.  The licensee
 of this program is prohibited from giving any competitor of
 Gaussian, Inc. access to this program.  By using this program,
 the user acknowledges that Gaussian, Inc. is engaged in the
 business of creating and licensing software in the field of
 computational chemistry and represents and warrants to the
 licensee that it is not a competitor of Gaussian, Inc. and that
 it will not use this program in any manner prohibited above.
 ---------------------------------------------------------------
  

 Cite this work as:
 Gaussian 16, Revision B.01,
 M. J. Frisch, G. W. Trucks, H. B. Schlegel, G. E. Scuseria, 
 M. A. Robb, J. R. Cheeseman, G. Scalmani, V. Barone, 
 G. A. Petersson, H. Nakatsuji, X. Li, M. Caricato, A. V. Marenich, 
 J. Bloino, B. G. Janesko, R. Gomperts, B. Mennucci, H. P. Hratchian, 
 J. V. Ortiz, A. F. Izmaylov, J. L. Sonnenberg, D. Williams-Young, 
 F. Ding, F. Lipparini, F. Egidi, J. Goings, B. Peng, A. Petrone, 
 T. Henderson, D. Ranasinghe, V. G. Zakrzewski, J. Gao, N. Rega, 
 G. Zheng, W. Liang, M. Hada, M. Ehara, K. Toyota, R. Fukuda, 
 J. Hasegawa, M. Ishida, T. Nakajima, Y. Honda, O. Kitao, H. Nakai, 
 T. Vreven, K. Throssell, J. A. Montgomery, Jr., J. E. Peralta, 
 F. Ogliaro, M. J. Bearpark, J. J. Heyd, E. N. Brothers, K. N. Kudin, 
 V. N. Staroverov, T. A. Keith, R. Kobayashi, J. Normand, 
 K. Raghavachari, A. P. Rendell, J. C. Burant, S. S. Iyengar, 
 J. Tomasi, M. Cossi, J. M. Millam, M. Klene, C. Adamo, R. Cammi, 
 J. W. Ochterski, R. L. Martin, K. Morokuma, O. Farkas, 
 J. B. Foresman, and D. J. Fox, Gaussian, Inc., Wallingford CT, 2016.
 
 ******************************************
 Gaussian 16:  ES64L-G16RevB.01 20-Dec-2017
                 9-Nov-2023 
 ******************************************
 %chk=ch_1c_para_c4.chk
 %nprocshared=64
 Will use up to   64 processors via shared memory.
 %mem=32GB
 ---------------------------------------------------------
 # opt=(ts,calcfc,noeigentest,maxstep=10) freq mn15 genecp
 ---------------------------------------------------------
 1/5=1,8=10,10=4,11=1,18=20,26=3,38=1/1,3;
 2/9=110,12=2,17=6,18=5,40=1/2;
 3/5=7,11=2,16=1,17=8,25=1,30=1,71=2,74=-73,140=1/1,2,3;
 4//1;
 5/5=2,38=5/2;
 8/6=4,10=90,11=11/1;
 11/6=1,8=1,9=11,15=111,16=1/1,2,10;
 10/6=1,13=1/2;
 6/7=2,8=2,9=2,10=2,28=1/1;
 7/10=1,18=20,25=1/1,2,3,16;
 1/5=1,8=10,10=4,11=1,18=20,26=3/3(2);
 2/9=110/2;
 99//99;
 2/9=110/2;
 3/5=7,6=1,11=2,16=1,17=8,25=1,30=1,71=1,74=-73,82=7/1,2,3;
 4/5=5,16=3,69=1/1;
 5/5=2,38=5/2;
 7//1,2,3,16;
 1/5=1,8=10,11=1,18=20,26=3/3(-5);
 2/9=110/2;
 6/7=2,8=2,9=2,10=2,19=2,28=1/1;
 99/9=1/99;
 ------------
 Gaussian job
 ------------
 Symbolic Z-matrix:
 Charge =  0 Multiplicity = 1
 C                     3.31106  -1.27478   0.16939 
 C                     3.36757  -2.4603    0.89113 
 C                     4.30987  -2.62609   1.88951 
 C                     5.18816  -1.59767   2.18974 
 C                     5.13     -0.40502   1.49126 
 C                     4.20217  -0.23645   0.47149 
 H                     2.67451  -3.25404   0.65518 
 H                     4.35472  -3.55428   2.43773 
 H                     5.92134  -1.72315   2.97187 
 H                     5.80974   0.40221   1.72082 
 C                     2.27795  -1.01846  -0.83942 
 C                     2.56417  -0.58774  -2.13726 
 C                     0.93139  -1.03893  -0.48841 
 H                     3.57956  -0.53221  -2.50232 
 H                     0.6074   -1.40123   0.48895 
 C                     0.37309  -0.2155   -2.53871 
 H                    -0.39796   0.12989  -3.22078 
 O                     4.15831   0.9303   -0.25741 
 C                     3.57025   2.05328   0.39998 
 H                     3.85942   2.06834   1.45771 
 H                     3.99073   2.92774  -0.103 
 C                     2.06703   2.04066   0.25975 
 C                     1.47348   2.54622  -0.89342 
 C                     1.25983   1.48309   1.24585 
 C                     0.10291   2.46653  -1.07679 
 H                     2.09804   2.98942  -1.65569 
 C                    -0.11992   1.42459   1.07526 
 H                     1.71509   1.09744   2.14931 
 C                    -0.73193   1.90814  -0.09989 
 H                    -0.33183   2.86912  -1.98257 
 H                    -2.00421   2.25657  -0.0175 
 N                     1.60999  -0.23459  -2.9813 
 N                    -0.00446  -0.5841   -1.31512 
 Pd                   -1.62083  -0.05955  -0.30105 
 O                    -3.76831  -3.23637   0.72701 
 O                    -2.28387  -1.94981  -0.26807 
 O                    -3.25386   2.55188   0.29694 
 N                    -3.3146    0.3291    0.64269 
 C                    -4.02519  -0.87414   1.02425 
 C                    -3.31906  -2.14033   0.46456 
 C                    -3.87182   1.50764   0.66758 
 C                    -5.2834    1.68393   1.17734 
 H                    -4.07529  -0.97172   2.11797 
 H                    -5.98601   1.19065   0.50799 
 H                    -5.38415   1.2487    2.16922 
 H                    -5.51073   2.74517   1.21496 
 H                    -5.05347  -0.88246   0.64012 
 H                    -0.73375   1.08865   1.91899 
 
 Add virtual bond connecting atoms H31        and C29        Dist= 2.50D+00.
 Add virtual bond connecting atoms H31        and O37        Dist= 2.50D+00.

 GradGradGradGradGradGradGradGradGradGradGradGradGradGradGradGradGradGrad
 Berny optimization.
 Initialization pass.
                           ----------------------------
                           !    Initial Parameters    !
                           ! (Angstroms and Degrees)  !
 --------------------------                            --------------------------
 ! Name  Definition              Value          Derivative Info.                !
 --------------------------------------------------------------------------------
 ! R1    R(1,2)                  1.3891         calculate D2E/DX2 analytically  !
 ! R2    R(1,6)                  1.4012         calculate D2E/DX2 analytically  !
 ! R3    R(1,11)                 1.4665         calculate D2E/DX2 analytically  !
 ! R4    R(2,3)                  1.3828         calculate D2E/DX2 analytically  !
 ! R5    R(2,7)                  1.0798         calculate D2E/DX2 analytically  !
 ! R6    R(3,4)                  1.3854         calculate D2E/DX2 analytically  !
 ! R7    R(3,8)                  1.0789         calculate D2E/DX2 analytically  !
 ! R8    R(4,5)                  1.3834         calculate D2E/DX2 analytically  !
 ! R9    R(4,9)                  1.0794         calculate D2E/DX2 analytically  !
 ! R10   R(5,6)                  1.389          calculate D2E/DX2 analytically  !
 ! R11   R(5,10)                 1.08           calculate D2E/DX2 analytically  !
 ! R12   R(6,18)                 1.3764         calculate D2E/DX2 analytically  !
 ! R13   R(11,12)                1.3971         calculate D2E/DX2 analytically  !
 ! R14   R(11,13)                1.3917         calculate D2E/DX2 analytically  !
 ! R15   R(12,14)                1.0804         calculate D2E/DX2 analytically  !
 ! R16   R(12,32)                1.322          calculate D2E/DX2 analytically  !
 ! R17   R(13,15)                1.0915         calculate D2E/DX2 analytically  !
 ! R18   R(13,33)                1.329          calculate D2E/DX2 analytically  !
 ! R19   R(16,17)                1.0858         calculate D2E/DX2 analytically  !
 ! R20   R(16,32)                1.3138         calculate D2E/DX2 analytically  !
 ! R21   R(16,33)                1.3325         calculate D2E/DX2 analytically  !
 ! R22   R(18,19)                1.428          calculate D2E/DX2 analytically  !
 ! R23   R(19,20)                1.0967         calculate D2E/DX2 analytically  !
 ! R24   R(19,21)                1.0929         calculate D2E/DX2 analytically  !
 ! R25   R(19,22)                1.5098         calculate D2E/DX2 analytically  !
 ! R26   R(22,23)                1.392          calculate D2E/DX2 analytically  !
 ! R27   R(22,24)                1.391          calculate D2E/DX2 analytically  !
 ! R28   R(23,25)                1.3851         calculate D2E/DX2 analytically  !
 ! R29   R(23,26)                1.0805         calculate D2E/DX2 analytically  !
 ! R30   R(24,27)                1.3915         calculate D2E/DX2 analytically  !
 ! R31   R(24,28)                1.0827         calculate D2E/DX2 analytically  !
 ! R32   R(25,29)                1.4011         calculate D2E/DX2 analytically  !
 ! R33   R(25,30)                1.0824         calculate D2E/DX2 analytically  !
 ! R34   R(27,29)                1.4104         calculate D2E/DX2 analytically  !
 ! R35   R(27,48)                1.0961         calculate D2E/DX2 analytically  !
 ! R36   R(29,31)                1.3217         calculate D2E/DX2 analytically  !
 ! R37   R(29,34)                2.1685         calculate D2E/DX2 analytically  !
 ! R38   R(31,37)                1.322          calculate D2E/DX2 analytically  !
 ! R39   R(33,34)                1.9789         calculate D2E/DX2 analytically  !
 ! R40   R(34,36)                2.0034         calculate D2E/DX2 analytically  !
 ! R41   R(34,38)                1.9775         calculate D2E/DX2 analytically  !
 ! R42   R(35,40)                1.2133         calculate D2E/DX2 analytically  !
 ! R43   R(36,40)                1.2824         calculate D2E/DX2 analytically  !
 ! R44   R(37,41)                1.2687         calculate D2E/DX2 analytically  !
 ! R45   R(38,39)                1.4486         calculate D2E/DX2 analytically  !
 ! R46   R(38,41)                1.3039         calculate D2E/DX2 analytically  !
 ! R47   R(39,40)                1.5541         calculate D2E/DX2 analytically  !
 ! R48   R(39,43)                1.0992         calculate D2E/DX2 analytically  !
 ! R49   R(39,47)                1.0977         calculate D2E/DX2 analytically  !
 ! R50   R(41,42)                1.5111         calculate D2E/DX2 analytically  !
 ! R51   R(42,44)                1.0886         calculate D2E/DX2 analytically  !
 ! R52   R(42,45)                1.0878         calculate D2E/DX2 analytically  !
 ! R53   R(42,46)                1.086          calculate D2E/DX2 analytically  !
 ! A1    A(2,1,6)              119.6386         calculate D2E/DX2 analytically  !
 ! A2    A(2,1,11)             122.36           calculate D2E/DX2 analytically  !
 ! A3    A(6,1,11)             117.8259         calculate D2E/DX2 analytically  !
 ! A4    A(1,2,3)              120.3431         calculate D2E/DX2 analytically  !
 ! A5    A(1,2,7)              119.1894         calculate D2E/DX2 analytically  !
 ! A6    A(3,2,7)              120.4638         calculate D2E/DX2 analytically  !
 ! A7    A(2,3,4)              119.9659         calculate D2E/DX2 analytically  !
 ! A8    A(2,3,8)              119.8892         calculate D2E/DX2 analytically  !
 ! A9    A(4,3,8)              120.1435         calculate D2E/DX2 analytically  !
 ! A10   A(3,4,5)              120.2611         calculate D2E/DX2 analytically  !
 ! A11   A(3,4,9)              120.0916         calculate D2E/DX2 analytically  !
 ! A12   A(5,4,9)              119.6473         calculate D2E/DX2 analytically  !
 ! A13   A(4,5,6)              120.2268         calculate D2E/DX2 analytically  !
 ! A14   A(4,5,10)             120.7056         calculate D2E/DX2 analytically  !
 ! A15   A(6,5,10)             119.0636         calculate D2E/DX2 analytically  !
 ! A16   A(1,6,5)              119.549          calculate D2E/DX2 analytically  !
 ! A17   A(1,6,18)             119.5839         calculate D2E/DX2 analytically  !
 ! A18   A(5,6,18)             120.8616         calculate D2E/DX2 analytically  !
 ! A19   A(1,11,12)            123.27           calculate D2E/DX2 analytically  !
 ! A20   A(1,11,13)            120.367          calculate D2E/DX2 analytically  !
 ! A21   A(12,11,13)           115.9166         calculate D2E/DX2 analytically  !
 ! A22   A(11,12,14)           121.4843         calculate D2E/DX2 analytically  !
 ! A23   A(11,12,32)           121.844          calculate D2E/DX2 analytically  !
 ! A24   A(14,12,32)           116.671          calculate D2E/DX2 analytically  !
 ! A25   A(11,13,15)           121.192          calculate D2E/DX2 analytically  !
 ! A26   A(11,13,33)           121.293          calculate D2E/DX2 analytically  !
 ! A27   A(15,13,33)           117.4892         calculate D2E/DX2 analytically  !
 ! A28   A(17,16,32)           117.4861         calculate D2E/DX2 analytically  !
 ! A29   A(17,16,33)           117.6194         calculate D2E/DX2 analytically  !
 ! A30   A(32,16,33)           124.8941         calculate D2E/DX2 analytically  !
 ! A31   A(6,18,19)            115.8461         calculate D2E/DX2 analytically  !
 ! A32   A(18,19,20)           110.2571         calculate D2E/DX2 analytically  !
 ! A33   A(18,19,21)           105.0056         calculate D2E/DX2 analytically  !
 ! A34   A(18,19,22)           111.1425         calculate D2E/DX2 analytically  !
 ! A35   A(20,19,21)           109.357          calculate D2E/DX2 analytically  !
 ! A36   A(20,19,22)           110.6244         calculate D2E/DX2 analytically  !
 ! A37   A(21,19,22)           110.3042         calculate D2E/DX2 analytically  !
 ! A38   A(19,22,23)           119.8972         calculate D2E/DX2 analytically  !
 ! A39   A(19,22,24)           121.0164         calculate D2E/DX2 analytically  !
 ! A40   A(23,22,24)           119.0405         calculate D2E/DX2 analytically  !
 ! A41   A(22,23,25)           120.7111         calculate D2E/DX2 analytically  !
 ! A42   A(22,23,26)           119.1382         calculate D2E/DX2 analytically  !
 ! A43   A(25,23,26)           120.1431         calculate D2E/DX2 analytically  !
 ! A44   A(22,24,27)           120.355          calculate D2E/DX2 analytically  !
 ! A45   A(22,24,28)           119.3629         calculate D2E/DX2 analytically  !
 ! A46   A(27,24,28)           120.2819         calculate D2E/DX2 analytically  !
 ! A47   A(23,25,29)           121.3475         calculate D2E/DX2 analytically  !
 ! A48   A(23,25,30)           119.1333         calculate D2E/DX2 analytically  !
 ! A49   A(29,25,30)           119.498          calculate D2E/DX2 analytically  !
 ! A50   A(24,27,29)           121.1967         calculate D2E/DX2 analytically  !
 ! A51   A(24,27,48)           118.2806         calculate D2E/DX2 analytically  !
 ! A52   A(29,27,48)           120.2255         calculate D2E/DX2 analytically  !
 ! A53   A(25,29,27)           117.3232         calculate D2E/DX2 analytically  !
 ! A54   A(25,29,31)           120.7951         calculate D2E/DX2 analytically  !
 ! A55   A(25,29,34)           122.7651         calculate D2E/DX2 analytically  !
 ! A56   A(27,29,31)           117.1378         calculate D2E/DX2 analytically  !
 ! A57   A(27,29,34)            86.7932         calculate D2E/DX2 analytically  !
 ! A58   A(31,29,34)            81.3963         calculate D2E/DX2 analytically  !
 ! A59   A(12,32,16)           117.9253         calculate D2E/DX2 analytically  !
 ! A60   A(13,33,16)           117.7992         calculate D2E/DX2 analytically  !
 ! A61   A(13,33,34)           110.3116         calculate D2E/DX2 analytically  !
 ! A62   A(16,33,34)           128.9509         calculate D2E/DX2 analytically  !
 ! A63   A(29,34,33)            87.32           calculate D2E/DX2 analytically  !
 ! A64   A(29,34,38)            97.3824         calculate D2E/DX2 analytically  !
 ! A65   A(33,34,36)            91.6422         calculate D2E/DX2 analytically  !
 ! A66   A(36,34,38)            83.922          calculate D2E/DX2 analytically  !
 ! A67   A(34,36,40)           114.6269         calculate D2E/DX2 analytically  !
 ! A68   A(31,37,41)           110.2453         calculate D2E/DX2 analytically  !
 ! A69   A(34,38,39)           112.4958         calculate D2E/DX2 analytically  !
 ! A70   A(34,38,41)           123.5591         calculate D2E/DX2 analytically  !
 ! A71   A(39,38,41)           122.4211         calculate D2E/DX2 analytically  !
 ! A72   A(38,39,40)           111.0397         calculate D2E/DX2 analytically  !
 ! A73   A(38,39,43)           110.9887         calculate D2E/DX2 analytically  !
 ! A74   A(38,39,47)           111.9399         calculate D2E/DX2 analytically  !
 ! A75   A(40,39,43)           107.8627         calculate D2E/DX2 analytically  !
 ! A76   A(40,39,47)           107.0635         calculate D2E/DX2 analytically  !
 ! A77   A(43,39,47)           107.7481         calculate D2E/DX2 analytically  !
 ! A78   A(35,40,36)           123.8262         calculate D2E/DX2 analytically  !
 ! A79   A(35,40,39)           119.3325         calculate D2E/DX2 analytically  !
 ! A80   A(36,40,39)           116.8391         calculate D2E/DX2 analytically  !
 ! A81   A(37,41,38)           122.0197         calculate D2E/DX2 analytically  !
 ! A82   A(37,41,42)           117.2269         calculate D2E/DX2 analytically  !
 ! A83   A(38,41,42)           120.7369         calculate D2E/DX2 analytically  !
 ! A84   A(41,42,44)           110.0374         calculate D2E/DX2 analytically  !
 ! A85   A(41,42,45)           110.3298         calculate D2E/DX2 analytically  !
 ! A86   A(41,42,46)           108.7381         calculate D2E/DX2 analytically  !
 ! A87   A(44,42,45)           108.6367         calculate D2E/DX2 analytically  !
 ! A88   A(44,42,46)           109.2085         calculate D2E/DX2 analytically  !
 ! A89   A(45,42,46)           109.8766         calculate D2E/DX2 analytically  !
 ! A90   L(29,31,37,35,-1)     176.8273         calculate D2E/DX2 analytically  !
 ! A91   L(29,34,36,38,-1)     181.3044         calculate D2E/DX2 analytically  !
 ! A92   L(33,34,38,36,-1)     175.5641         calculate D2E/DX2 analytically  !
 ! A93   L(29,31,37,35,-2)     170.0855         calculate D2E/DX2 analytically  !
 ! A94   L(29,34,36,38,-2)     187.949          calculate D2E/DX2 analytically  !
 ! A95   L(33,34,38,36,-2)     182.2425         calculate D2E/DX2 analytically  !
 ! D1    D(6,1,2,3)             -0.9688         calculate D2E/DX2 analytically  !
 ! D2    D(6,1,2,7)            179.7286         calculate D2E/DX2 analytically  !
 ! D3    D(11,1,2,3)          -176.0479         calculate D2E/DX2 analytically  !
 ! D4    D(11,1,2,7)             4.6495         calculate D2E/DX2 analytically  !
 ! D5    D(2,1,6,5)             -0.1119         calculate D2E/DX2 analytically  !
 ! D6    D(2,1,6,18)           179.045          calculate D2E/DX2 analytically  !
 ! D7    D(11,1,6,5)           175.1884         calculate D2E/DX2 analytically  !
 ! D8    D(11,1,6,18)           -5.6547         calculate D2E/DX2 analytically  !
 ! D9    D(2,1,11,12)         -128.9345         calculate D2E/DX2 analytically  !
 ! D10   D(2,1,11,13)           59.0497         calculate D2E/DX2 analytically  !
 ! D11   D(6,1,11,12)           55.9015         calculate D2E/DX2 analytically  !
 ! D12   D(6,1,11,13)         -116.1142         calculate D2E/DX2 analytically  !
 ! D13   D(1,2,3,4)              1.1384         calculate D2E/DX2 analytically  !
 ! D14   D(1,2,3,8)           -179.2863         calculate D2E/DX2 analytically  !
 ! D15   D(7,2,3,4)           -179.568          calculate D2E/DX2 analytically  !
 ! D16   D(7,2,3,8)              0.0073         calculate D2E/DX2 analytically  !
 ! D17   D(2,3,4,5)             -0.2196         calculate D2E/DX2 analytically  !
 ! D18   D(2,3,4,9)            179.7045         calculate D2E/DX2 analytically  !
 ! D19   D(8,3,4,5)           -179.7937         calculate D2E/DX2 analytically  !
 ! D20   D(8,3,4,9)              0.1304         calculate D2E/DX2 analytically  !
 ! D21   D(3,4,5,6)             -0.8652         calculate D2E/DX2 analytically  !
 ! D22   D(3,4,5,10)           179.8649         calculate D2E/DX2 analytically  !
 ! D23   D(9,4,5,6)            179.2104         calculate D2E/DX2 analytically  !
 ! D24   D(9,4,5,10)            -0.0595         calculate D2E/DX2 analytically  !
 ! D25   D(4,5,6,1)              1.0249         calculate D2E/DX2 analytically  !
 ! D26   D(4,5,6,18)          -178.121          calculate D2E/DX2 analytically  !
 ! D27   D(10,5,6,1)          -179.6934         calculate D2E/DX2 analytically  !
 ! D28   D(10,5,6,18)            1.1608         calculate D2E/DX2 analytically  !
 ! D29   D(1,6,18,19)          105.1755         calculate D2E/DX2 analytically  !
 ! D30   D(5,6,18,19)          -75.6789         calculate D2E/DX2 analytically  !
 ! D31   D(1,11,12,14)           7.3582         calculate D2E/DX2 analytically  !
 ! D32   D(1,11,12,32)        -172.9786         calculate D2E/DX2 analytically  !
 ! D33   D(13,11,12,14)        179.7011         calculate D2E/DX2 analytically  !
 ! D34   D(13,11,12,32)         -0.6357         calculate D2E/DX2 analytically  !
 ! D35   D(1,11,13,15)         -10.0868         calculate D2E/DX2 analytically  !
 ! D36   D(1,11,13,33)         168.0201         calculate D2E/DX2 analytically  !
 ! D37   D(12,11,13,15)        177.3319         calculate D2E/DX2 analytically  !
 ! D38   D(12,11,13,33)         -4.5612         calculate D2E/DX2 analytically  !
 ! D39   D(11,12,32,16)          4.3339         calculate D2E/DX2 analytically  !
 ! D40   D(14,12,32,16)       -175.9875         calculate D2E/DX2 analytically  !
 ! D41   D(11,13,33,16)          5.7781         calculate D2E/DX2 analytically  !
 ! D42   D(11,13,33,34)       -156.5749         calculate D2E/DX2 analytically  !
 ! D43   D(15,13,33,16)       -176.0474         calculate D2E/DX2 analytically  !
 ! D44   D(15,13,33,34)         21.5996         calculate D2E/DX2 analytically  !
 ! D45   D(17,16,32,12)        176.5873         calculate D2E/DX2 analytically  !
 ! D46   D(33,16,32,12)         -3.1915         calculate D2E/DX2 analytically  !
 ! D47   D(17,16,33,13)        178.3555         calculate D2E/DX2 analytically  !
 ! D48   D(17,16,33,34)        -23.0874         calculate D2E/DX2 analytically  !
 ! D49   D(32,16,33,13)         -1.866          calculate D2E/DX2 analytically  !
 ! D50   D(32,16,33,34)        156.6911         calculate D2E/DX2 analytically  !
 ! D51   D(6,18,19,20)          38.7479         calculate D2E/DX2 analytically  !
 ! D52   D(6,18,19,21)         156.4391         calculate D2E/DX2 analytically  !
 ! D53   D(6,18,19,22)         -84.2963         calculate D2E/DX2 analytically  !
 ! D54   D(18,19,22,23)        -82.8996         calculate D2E/DX2 analytically  !
 ! D55   D(18,19,22,24)         94.6111         calculate D2E/DX2 analytically  !
 ! D56   D(20,19,22,23)        154.2676         calculate D2E/DX2 analytically  !
 ! D57   D(20,19,22,24)        -28.2218         calculate D2E/DX2 analytically  !
 ! D58   D(21,19,22,23)         33.1453         calculate D2E/DX2 analytically  !
 ! D59   D(21,19,22,24)       -149.344          calculate D2E/DX2 analytically  !
 ! D60   D(19,22,23,25)        175.9004         calculate D2E/DX2 analytically  !
 ! D61   D(19,22,23,26)         -3.1005         calculate D2E/DX2 analytically  !
 ! D62   D(24,22,23,25)         -1.6594         calculate D2E/DX2 analytically  !
 ! D63   D(24,22,23,26)        179.3396         calculate D2E/DX2 analytically  !
 ! D64   D(19,22,24,27)       -177.0949         calculate D2E/DX2 analytically  !
 ! D65   D(19,22,24,28)          3.0864         calculate D2E/DX2 analytically  !
 ! D66   D(23,22,24,27)          0.4367         calculate D2E/DX2 analytically  !
 ! D67   D(23,22,24,28)       -179.3819         calculate D2E/DX2 analytically  !
 ! D68   D(22,23,25,29)          1.6022         calculate D2E/DX2 analytically  !
 ! D69   D(22,23,25,30)        179.9171         calculate D2E/DX2 analytically  !
 ! D70   D(26,23,25,29)       -179.4069         calculate D2E/DX2 analytically  !
 ! D71   D(26,23,25,30)         -1.0919         calculate D2E/DX2 analytically  !
 ! D72   D(22,24,27,29)          0.8678         calculate D2E/DX2 analytically  !
 ! D73   D(22,24,27,48)       -172.8843         calculate D2E/DX2 analytically  !
 ! D74   D(28,24,27,29)       -179.3152         calculate D2E/DX2 analytically  !
 ! D75   D(28,24,27,48)          6.9327         calculate D2E/DX2 analytically  !
 ! D76   D(23,25,29,27)         -0.2925         calculate D2E/DX2 analytically  !
 ! D77   D(23,25,29,31)        154.613          calculate D2E/DX2 analytically  !
 ! D78   D(23,25,29,34)       -105.2223         calculate D2E/DX2 analytically  !
 ! D79   D(30,25,29,27)       -178.6014         calculate D2E/DX2 analytically  !
 ! D80   D(30,25,29,31)        -23.6959         calculate D2E/DX2 analytically  !
 ! D81   D(30,25,29,34)         76.4688         calculate D2E/DX2 analytically  !
 ! D82   D(24,27,29,25)         -0.9337         calculate D2E/DX2 analytically  !
 ! D83   D(24,27,29,31)       -156.7677         calculate D2E/DX2 analytically  !
 ! D84   D(24,27,29,34)        124.599          calculate D2E/DX2 analytically  !
 ! D85   D(48,27,29,25)        172.698          calculate D2E/DX2 analytically  !
 ! D86   D(48,27,29,31)         16.8641         calculate D2E/DX2 analytically  !
 ! D87   D(48,27,29,34)        -61.7693         calculate D2E/DX2 analytically  !
 ! D88   D(25,29,36,40)       -159.6036         calculate D2E/DX2 analytically  !
 ! D89   D(27,29,36,40)         81.9889         calculate D2E/DX2 analytically  !
 ! D90   D(31,29,36,40)        -36.4615         calculate D2E/DX2 analytically  !
 ! D91   D(25,29,37,41)        145.9837         calculate D2E/DX2 analytically  !
 ! D92   D(27,29,37,41)        -60.8297         calculate D2E/DX2 analytically  !
 ! D93   D(34,29,37,41)         21.9856         calculate D2E/DX2 analytically  !
 ! D94   D(25,29,34,33)         31.9116         calculate D2E/DX2 analytically  !
 ! D95   D(25,29,34,38)       -146.4792         calculate D2E/DX2 analytically  !
 ! D96   D(27,29,34,33)        -88.7958         calculate D2E/DX2 analytically  !
 ! D97   D(27,29,34,38)         92.8134         calculate D2E/DX2 analytically  !
 ! D98   D(31,29,34,33)        153.1358         calculate D2E/DX2 analytically  !
 ! D99   D(31,29,34,38)        -25.2549         calculate D2E/DX2 analytically  !
 ! D100  D(13,33,34,29)         88.8025         calculate D2E/DX2 analytically  !
 ! D101  D(13,33,34,36)        -83.2584         calculate D2E/DX2 analytically  !
 ! D102  D(16,33,34,29)        -71.0265         calculate D2E/DX2 analytically  !
 ! D103  D(16,33,34,36)        116.9126         calculate D2E/DX2 analytically  !
 ! D104  D(13,33,38,39)        -74.8288         calculate D2E/DX2 analytically  !
 ! D105  D(13,33,38,41)        120.824          calculate D2E/DX2 analytically  !
 ! D106  D(16,33,38,39)        122.4502         calculate D2E/DX2 analytically  !
 ! D107  D(16,33,38,41)        -41.897          calculate D2E/DX2 analytically  !
 ! D108  D(33,34,36,40)        172.4257         calculate D2E/DX2 analytically  !
 ! D109  D(38,34,36,40)         -9.8168         calculate D2E/DX2 analytically  !
 ! D110  D(29,34,38,39)       -164.1043         calculate D2E/DX2 analytically  !
 ! D111  D(29,34,38,41)         29.7067         calculate D2E/DX2 analytically  !
 ! D112  D(36,34,38,39)          7.9467         calculate D2E/DX2 analytically  !
 ! D113  D(36,34,38,41)       -158.2422         calculate D2E/DX2 analytically  !
 ! D114  D(34,36,40,35)       -171.3001         calculate D2E/DX2 analytically  !
 ! D115  D(34,36,40,39)          9.2538         calculate D2E/DX2 analytically  !
 ! D116  D(31,37,41,38)         -3.6228         calculate D2E/DX2 analytically  !
 ! D117  D(31,37,41,42)        174.9095         calculate D2E/DX2 analytically  !
 ! D118  D(34,38,39,40)         -5.3492         calculate D2E/DX2 analytically  !
 ! D119  D(34,38,39,43)        114.6225         calculate D2E/DX2 analytically  !
 ! D120  D(34,38,39,47)       -124.9453         calculate D2E/DX2 analytically  !
 ! D121  D(41,38,39,40)        161.0201         calculate D2E/DX2 analytically  !
 ! D122  D(41,38,39,43)        -79.0081         calculate D2E/DX2 analytically  !
 ! D123  D(41,38,39,47)         41.4241         calculate D2E/DX2 analytically  !
 ! D124  D(34,38,41,37)        -13.1761         calculate D2E/DX2 analytically  !
 ! D125  D(34,38,41,42)        168.3423         calculate D2E/DX2 analytically  !
 ! D126  D(39,38,41,37)       -178.03           calculate D2E/DX2 analytically  !
 ! D127  D(39,38,41,42)          3.4884         calculate D2E/DX2 analytically  !
 ! D128  D(38,39,40,35)        177.9336         calculate D2E/DX2 analytically  !
 ! D129  D(38,39,40,36)         -2.5941         calculate D2E/DX2 analytically  !
 ! D130  D(43,39,40,35)         56.1191         calculate D2E/DX2 analytically  !
 ! D131  D(43,39,40,36)       -124.4086         calculate D2E/DX2 analytically  !
 ! D132  D(47,39,40,35)        -59.5986         calculate D2E/DX2 analytically  !
 ! D133  D(47,39,40,36)        119.8737         calculate D2E/DX2 analytically  !
 ! D134  D(37,41,42,44)        114.8409         calculate D2E/DX2 analytically  !
 ! D135  D(37,41,42,45)       -125.2994         calculate D2E/DX2 analytically  !
 ! D136  D(37,41,42,46)         -4.7316         calculate D2E/DX2 analytically  !
 ! D137  D(38,41,42,44)        -66.6069         calculate D2E/DX2 analytically  !
 ! D138  D(38,41,42,45)         53.2529         calculate D2E/DX2 analytically  !
 ! D139  D(38,41,42,46)        173.8206         calculate D2E/DX2 analytically  !
 --------------------------------------------------------------------------------
 Trust Radius=1.00D-01 FncErr=1.00D-07 GrdErr=1.00D-06 EigMax=2.50D+02 EigMin=1.00D-04
 Number of steps in this run=    288 maximum allowed number of steps=    288.
 Search for a saddle point of order  1.
 GradGradGradGradGradGradGradGradGradGradGradGradGradGradGradGradGradGrad

                          Input orientation:                          
 ---------------------------------------------------------------------
 Center     Atomic      Atomic             Coordinates (Angstroms)
 Number     Number       Type             X           Y           Z
 ---------------------------------------------------------------------
      1          6           0        3.311061   -1.274777    0.169387
      2          6           0        3.367572   -2.460303    0.891129
      3          6           0        4.309867   -2.626093    1.889511
      4          6           0        5.188158   -1.597665    2.189744
      5          6           0        5.130003   -0.405017    1.491263
      6          6           0        4.202169   -0.236446    0.471488
      7          1           0        2.674507   -3.254044    0.655179
      8          1           0        4.354716   -3.554277    2.437730
      9          1           0        5.921342   -1.723150    2.971866
     10          1           0        5.809743    0.402215    1.720815
     11          6           0        2.277951   -1.018456   -0.839420
     12          6           0        2.564173   -0.587741   -2.137259
     13          6           0        0.931390   -1.038934   -0.488407
     14          1           0        3.579558   -0.532208   -2.502325
     15          1           0        0.607398   -1.401235    0.488953
     16          6           0        0.373094   -0.215503   -2.538709
     17          1           0       -0.397963    0.129890   -3.220780
     18          8           0        4.158310    0.930299   -0.257411
     19          6           0        3.570246    2.053284    0.399981
     20          1           0        3.859423    2.068337    1.457713
     21          1           0        3.990728    2.927736   -0.103000
     22          6           0        2.067026    2.040657    0.259750
     23          6           0        1.473479    2.546218   -0.893419
     24          6           0        1.259835    1.483095    1.245845
     25          6           0        0.102908    2.466531   -1.076789
     26          1           0        2.098043    2.989424   -1.655686
     27          6           0       -0.119924    1.424586    1.075257
     28          1           0        1.715087    1.097440    2.149312
     29          6           0       -0.731933    1.908145   -0.099891
     30          1           0       -0.331834    2.869122   -1.982570
     31          1           0       -2.004207    2.256565   -0.017505
     32          7           0        1.609990   -0.234589   -2.981302
     33          7           0       -0.004456   -0.584101   -1.315120
     34         46           0       -1.620833   -0.059550   -0.301045
     35          8           0       -3.768313   -3.236368    0.727010
     36          8           0       -2.283870   -1.949814   -0.268071
     37          8           0       -3.253855    2.551879    0.296939
     38          7           0       -3.314601    0.329105    0.642692
     39          6           0       -4.025192   -0.874145    1.024255
     40          6           0       -3.319057   -2.140327    0.464558
     41          6           0       -3.871819    1.507639    0.667583
     42          6           0       -5.283397    1.683930    1.177339
     43          1           0       -4.075286   -0.971718    2.117969
     44          1           0       -5.986006    1.190652    0.507992
     45          1           0       -5.384153    1.248700    2.169224
     46          1           0       -5.510733    2.745167    1.214962
     47          1           0       -5.053472   -0.882463    0.640117
     48          1           0       -0.733754    1.088650    1.918990
 ---------------------------------------------------------------------
                    Distance matrix (angstroms):
                    1          2          3          4          5
     1  C    0.000000
     2  C    1.389091   0.000000
     3  C    2.404681   1.382814   0.000000
     4  C    2.776615   2.396889   1.385351   0.000000
     5  C    2.410890   2.773180   2.400917   1.383354   0.000000
     6  C    1.401239   2.412093   2.780791   2.403642   1.388969
     7  H    2.135110   1.079832   2.142966   3.378894   3.852981
     8  H    3.380934   2.136167   1.078926   2.141133   3.378566
     9  H    3.855968   3.375589   2.140945   1.079361   2.134450
    10  H    3.385652   3.853127   3.383597   2.146109   1.079983
    11  C    1.466529   2.502198   3.763009   4.240356   3.733978
    12  C    2.520015   3.650078   4.839132   5.160251   4.447813
    13  C    2.480152   3.139808   4.425797   5.060114   4.685008
    14  H    2.785955   3.908710   4.919952   5.073293   4.285884
    15  H    2.725418   2.983610   4.143684   4.890259   4.738252
    16  C    4.133703   5.076397   6.396738   6.888648   6.237369
    17  H    5.217584   6.147857   7.474903   7.966364   7.283398
    18  O    2.400490   3.666142   4.156942   3.666028   2.405227
    19  C    3.346094   4.544752   4.966116   4.376108   3.109177
    20  H    3.624486   4.590372   4.735718   3.967491   2.780824
    21  H    4.265825   5.514307   5.909058   5.212463   3.866118
    22  C    3.542301   4.727441   5.428169   5.167566   4.108501
    23  C    4.371072   5.642468   6.522468   6.362114   5.269408
    24  C    3.601687   4.485395   5.157754   5.080724   4.313166
    25  C    5.083561   6.229319   7.241012   7.283385   6.333432
    26  H    4.794342   6.147966   6.999615   6.736284   5.533380
    27  C    4.458567   5.223877   6.057562   6.209011   5.575145
    28  H    3.477737   4.119620   4.545886   4.396300   3.788412
    29  C    5.152601   6.072182   7.066595   7.251248   6.499598
    30  H    5.922289   7.095528   8.169197   8.235939   7.253907
    31  H    6.384151   7.206280   8.206375   8.453233   7.762561
    32  N    3.728603   4.799856   6.060812   6.434359   5.694153
    33  N    3.697763   4.445024   5.749154   6.346229   5.854103
    34  Pd   5.101143   5.662956   6.823407   7.411625   6.993247
    35  O    7.367246   7.179838   8.184183   9.221893   9.369134
    36  O    5.652459   5.791644   6.970644   7.873758   7.774778
    37  O    7.599848   8.325762   9.303632   9.595260   8.969879
    38  N    6.833436   7.245271   8.271654   8.854531   8.518823
    39  C    7.396751   7.562181   8.561028   9.314917   9.179095
    40  C    6.692889   6.707857   7.776049   8.697324   8.686314
    41  C    7.719055   8.258530   9.247748   9.697581   9.239563
    42  C    9.145197   9.596658  10.541072  11.020313  10.625495
    43  H    7.645060   7.688768   8.549851   9.284846   9.243986
    44  H    9.624367  10.048168  11.067119  11.638940  11.272916
    45  H    9.272218   9.590772  10.443480  10.948789  10.664985
    46  H    9.750756  10.296897  11.213815  11.587781  11.100688
    47  H    8.386949   8.571264   9.605902  10.382863  10.230131
    48  H    5.000743   5.520185   6.264048   6.508351   6.066106
                    6          7          8          9         10
     6  C    0.000000
     7  H    3.387240   0.000000
     8  H    3.859713   2.467941   0.000000
     9  H    3.379014   4.272308   2.468328   0.000000
    10  H    2.133776   4.932902   4.276084   2.468756   0.000000
    11  C    2.456142   2.718260   4.634981   5.319472   4.587664
    12  C    3.100322   3.862519   5.739068   6.217949   5.137944
    13  C    3.501912   3.041868   5.158333   6.110750   5.545801
    14  H    3.052652   4.265834   5.842766   6.071989   4.866393
    15  H    3.778811   2.780912   4.740856   5.874221   5.642189
    16  C    4.870681   4.972942   7.194837   7.963823   6.934138
    17  H    5.910013   5.992840   8.257105   9.039703   7.939089
    18  O    1.376412   4.532464   5.235818   4.536221   2.630491
    19  C    2.376405   5.388433   6.017687   5.138453   3.079932
    20  H    2.530245   5.511428   5.728834   4.573789   2.578553
    21  H    3.222854   6.365665   6.971678   5.900238   3.607406
    22  C    3.128717   5.344087   6.424984   6.031382   4.339025
    23  C    4.129399   6.122390   7.524235   7.276772   5.498559
    24  C    3.494822   4.979023   6.031086   5.915133   4.700592
    25  C    5.148513   6.506751   8.165773   8.234027   6.682511
    26  H    4.399823   6.682312   8.041682   7.631526   5.645451
    27  C    4.669481   5.465793   6.831385   7.071228   6.051689
    28  H    3.283280   4.699823   5.356239   5.130780   4.175303
    29  C    5.410277   6.230743   7.883627   8.178511   6.955308
    30  H    6.018648   7.313615   9.097409   9.205302   7.584171
    31  H    6.706215   7.260144   8.957119   9.358888   8.216945
    32  N    4.317540   4.845028   6.922410   7.499585   6.336667
    33  N    4.583506   4.264682   6.473655   7.402078   6.632844
    34  Pd   5.876687   5.437747   7.444541   8.388319   7.714571
    35  O    8.520177   6.443244   8.307300  10.060746  10.293983
    36  O    6.749169   5.209501   7.346189   8.824628   8.659923
    37  O    7.962256   8.305574   9.987917  10.469735   9.423231
    38  N    7.539959   6.979149   8.781870   9.743687   9.188109
    39  C    8.270531   7.119418   8.910886  10.170916   9.941843
    40  C    7.758457   6.099140   8.048569   9.583611   9.559168
    41  C    8.262540   8.094947   9.819995  10.566633   9.801220
    42  C    9.703712   9.380004  11.041767  11.847982  11.180157
    43  H    8.471587   7.273821   8.822517  10.061131   9.987954
    44  H   10.287704   9.735577  11.539878  12.503833  11.884118
    45  H    9.848124   9.354626  10.862148  11.717096  11.234808
    46  H   10.187406  10.163761  11.768825  12.399391  11.571451
    47  H    9.279691   8.083705   9.944044  11.251238  10.992167
    48  H    5.311730   5.663255   6.907850   7.301032   6.582387
                   11         12         13         14         15
    11  C    0.000000
    12  C    1.397077   0.000000
    13  C    1.391710   2.363952   0.000000
    14  H    2.166996   1.080446   3.365328   0.000000
    15  H    2.168373   3.374571   1.091543   4.305425   0.000000
    16  C    2.675967   2.258440   2.278919   3.222272   3.260000
    17  H    3.761661   3.234697   3.255639   4.095757   4.137296
    18  O    2.769861   2.894745   3.787381   2.741081   4.313013
    19  C    3.555521   3.797998   4.161083   3.886932   4.551931
    20  H    4.160068   4.653628   4.692110   4.745847   4.853049
    21  H    4.364442   4.304864   5.024198   4.230489   5.526058
    22  C    3.257428   3.591836   3.366495   4.066503   3.745620
    23  C    3.654722   3.543791   3.648453   4.062125   4.271233
    24  C    3.412133   4.175531   3.078333   4.846787   3.052526
    25  C    4.114887   4.063373   3.649775   4.807461   4.203055
    26  H    4.094113   3.639409   4.353307   3.913257   5.108755
    27  C    3.922276   4.644793   3.101489   5.505843   2.976241
    28  H    3.704909   4.683533   3.483653   5.269700   3.197990
    29  C    4.262780   4.609190   3.406297   5.505993   3.618361
    30  H    4.819858   4.512282   4.370487   5.209432   5.022602
    31  H    5.453274   5.783904   4.438445   6.717888   4.522884
    32  N    2.376611   1.321965   2.705918   2.048705   3.795909
    33  N    2.371569   2.696995   1.328960   3.775884   2.072861
    34  Pd   4.050909   4.600537   2.740098   5.666842   2.718314
    35  O    6.627982   7.437718   5.328523   8.469492   4.750920
    36  O    4.690850   5.371464   3.349051   6.432828   3.038660
    37  O    6.681279   7.044997   5.570186   8.002688   5.529309
    38  N    5.940473   6.567246   4.602103   7.626429   4.289497
    39  C    6.574476   7.314160   5.184882   8.389631   4.693109
    40  C    5.855378   6.617581   4.493051   7.679800   3.995486
    41  C    6.817030   7.326647   5.558072   8.350588   5.343861
    42  C    8.279142   8.816542   6.986578   9.849018   6.685326
    43  H    7.007993   7.895367   5.644866   8.951923   4.976516
    44  H    8.659600   9.124999   7.335818  10.174982   7.084576
    45  H    8.538137   9.224652   7.223735  10.263680   6.763442
    46  H    8.890948   9.356804   7.663017  10.353396   7.426390
    47  H    7.480461   8.113520   6.092341   9.193847   5.686601
    48  H    4.595551   5.489970   3.618684   6.385912   3.169104
                   16         17         18         19         20
    16  C    0.000000
    17  H    1.085839   0.000000
    18  O    4.565638   5.493800   0.000000
    19  C    4.899497   5.705790   1.427963   0.000000
    20  H    5.774236   6.615981   2.079932   1.096653   0.000000
    21  H    5.375863   6.067051   2.010393   1.092914   1.786514
    22  C    3.973793   4.673466   2.423597   1.509800   2.156054
    23  C    3.397783   3.841555   3.197502   2.512429   3.383625
    24  C    4.241980   4.952797   3.311574   2.525589   2.673061
    25  C    3.066515   3.210523   4.413352   3.791313   4.549029
    26  H    3.745228   4.105667   3.231078   2.696202   3.693794
    27  C    3.999213   4.495495   4.508172   3.803763   4.049184
    28  H    5.049981   5.851412   3.433598   2.723126   2.453391
    29  C    3.417425   3.607447   4.989536   4.333552   4.851014
    30  H    3.212651   3.006814   5.186193   4.644175   5.481189
    31  H    4.256660   4.166982   6.308182   5.593759   6.049285
    32  N    1.313836   2.054768   3.907747   4.528801   5.483455
    33  N    1.332508   2.072720   4.554204   4.761918   5.445511
    34  Pd   3.001200   3.171143   5.863463   5.648257   6.136313
    35  O    6.077976   6.186760   9.008971   9.052172   9.319666
    36  O    3.901677   4.074347   7.056688   7.123325   7.540816
    37  O    5.371598   5.137752   7.607695   6.843067   7.223568
    38  N    4.900715   4.844882   7.550896   7.101607   7.426695
    39  C    5.698547   5.673200   8.477523   8.163960   8.426935
    40  C    5.133862   5.221914   8.115480   8.065546   8.380321
    41  C    5.591852   5.393073   8.103821   7.466838   7.791713
    42  C    7.029420   6.754698   9.579786   8.895375   9.155191
    43  H    6.484180   6.575597   8.777939   8.399778   8.522762
    44  H    7.190119   6.801116  10.176481   9.595715   9.929993
    45  H    7.579869   7.427379   9.851322   9.162905   9.307080
    46  H    7.581229   7.256438   9.947463   9.143690   9.397704
    47  H    6.324349   6.132303   9.431257   9.112891   9.424191
    48  H    4.774621   5.239199   5.356686   4.665010   4.719092
                   21         22         23         24         25
    21  H    0.000000
    22  C    2.149215   0.000000
    23  C    2.665870   1.392008   0.000000
    24  C    3.371075   1.390977   2.398400   0.000000
    25  C    4.034367   2.413600   1.385077   2.774934   0.000000
    26  H    2.448856   2.137758   1.080538   3.374982   2.142219
    27  C    4.532683   2.413990   2.769959   1.391495   2.401376
    28  H    3.688013   2.141020   3.378690   1.082699   3.857624
    29  C    4.831470   2.825079   2.429128   2.441067   1.401101
    30  H    4.713890   3.386573   2.132996   3.857090   1.082367
    31  H    6.032995   4.086371   3.597975   3.584450   2.367721
    32  N    4.894164   3.986232   3.480054   4.576223   3.632425
    33  N    5.455614   3.696026   3.487265   3.525659   3.061810
    34  Pd   6.360245   4.280848   4.088483   3.615366   3.155019
    35  O    9.944235   7.881403   7.971228   6.915547   7.124823
    36  O    7.949108   5.927288   5.892625   5.160876   5.084765
    37  O    7.265343   5.345513   4.874902   4.734566   3.627984
    38  N    7.789530   5.660209   5.495538   4.756148   4.382302
    39  C    8.943153   6.796739   6.753646   5.791130   5.711016
    40  C    8.912931   6.821471   6.839313   5.891167   5.942115
    41  C    8.026837   5.976648   5.664590   5.164190   4.445308
    42  C    9.444348   7.416060   7.119477   6.546672   5.891166
    43  H    9.230332   7.089103   7.227248   5.937190   6.283736
    44  H   10.145245   8.101571   7.710086   7.289181   6.419834
    45  H    9.791351   7.732616   7.621709   6.711940   6.490574
    46  H    9.594171   7.670150   7.298224   6.887261   6.069821
    47  H    9.842123   7.706543   7.530516   6.769092   6.383712
    48  H    5.458151   3.391720   3.860832   2.140819   3.401948
                   26         27         28         29         30
    26  H    0.000000
    27  C    3.850473   0.000000
    28  H    4.266646   2.151252   0.000000
    29  C    3.405646   1.410445   3.421120   0.000000
    30  H    2.454715   3.388495   4.939756   2.151288   0.000000
    31  H    4.477631   2.331703   4.457781   1.321691   2.652083
    32  N    3.519902   4.711808   5.301750   4.287008   3.794887
    33  N    4.160116   3.124429   4.217428   2.866582   3.532338
    34  Pd   4.996132   2.519840   4.297818   2.168509   3.614715
    35  O    8.879857   5.929292   7.132497   6.030703   7.511872
    36  O    6.747051   4.227737   5.578633   4.161807   5.474677
    37  O    5.713756   3.420247   5.498824   2.632862   3.719545
    38  N    6.454189   3.404871   5.306411   3.116885   4.715993
    39  C    7.720314   4.531874   6.172820   4.455378   6.057552
    40  C    7.755949   4.828665   6.218049   4.837555   6.325071
    41  C    6.575144   3.774892   5.794593   3.257040   4.626926
    42  C    8.013489   5.170989   7.089956   4.732591   5.992302
    43  H    8.248703   4.740718   6.149050   4.938676   6.751289
    44  H    8.559727   5.898087   7.874608   5.337565   6.402330
    45  H    8.581568   5.379573   7.100879   5.217941   6.737143
    46  H    8.135955   5.551961   7.469972   5.026567   6.087740
    47  H    8.450230   5.463672   7.211870   5.197192   6.576226
    48  H    4.940680   1.096141   2.459664   2.178865   4.307411
                   31         32         33         34         35
    31  H    0.000000
    32  N    5.296449   0.000000
    33  N    3.708395   2.346221   0.000000
    34  Pd   2.364691   4.201503   1.978933   0.000000
    35  O    5.817103   7.189464   5.037007   3.969980   0.000000
    36  O    4.223105   5.046361   2.856083   2.003447   2.202040
    37  O    1.322008   6.493709   4.794966   3.137500   5.826957
    38  N    2.422415   6.140251   3.952725   1.977510   3.595213
    39  C    3.869236   6.943255   4.660807   2.863726   2.394669
    40  C    4.614529   6.308827   4.071324   2.792803   1.213267
    41  C    2.125608   6.811751   4.823172   2.908825   4.745508
    42  C    3.536757   8.276098   6.262869   4.317374   5.167940
    43  H    4.389923   7.672567   5.339289   3.564831   2.675376
    44  H    4.155363   8.479719   6.500187   4.612189   4.956272
    45  H    4.149893   8.811703   6.666405   4.687892   4.980638
    46  H    3.748790   8.785914   6.914075   5.029517   6.249231
    47  H    4.425379   7.611579   5.422595   3.653216   2.683292
    48  H    2.593856   5.590792   3.713413   2.652137   5.416193
                   36         37         38         39         40
    36  O    0.000000
    37  O    4.639541   0.000000
    38  N    2.661835   2.250324   0.000000
    39  C    2.420614   3.586305   1.448564   0.000000
    40  C    1.282440   4.695652   2.475852   1.554061   0.000000
    41  C    3.918037   1.268736   1.303862   2.413221   3.695190
    42  C    4.928536   2.376443   2.448991   2.854866   4.357939
    43  H    3.139909   4.050510   2.108843   1.099200   2.161319
    44  H    4.916361   3.059760   2.810127   2.893907   4.267309
    45  H    5.077662   3.121201   2.731117   2.768429   4.319261
    46  H    5.886839   2.444100   3.314792   3.916965   5.406903
    47  H    3.103988   3.892440   2.119334   1.097721   2.149707
    48  H    4.051957   3.335116   2.977686   3.935312   4.384684
                   41         42         43         44         45
    41  C    0.000000
    42  C    1.511119   0.000000
    43  H    2.879623   3.065417   0.000000
    44  H    2.143766   1.088580   3.304348   0.000000
    45  H    2.146889   1.087848   2.577986   1.767848   0.000000
    46  H    2.125356   1.085966   4.085482   1.772627   1.779341
    47  H    2.666392   2.632079   1.774503   2.277033   2.643742
    48  H    3.404266   4.647973   3.930718   5.439436   4.659876
                   46         47         48
    46  H    0.000000
    47  H    3.701247   0.000000
    48  H    5.104825   4.917394   0.000000
 Stoichiometry    C21H19N3O4Pd
 Framework group  C1[X(C21H19N3O4Pd)]
 Deg. of freedom   138
 Full point group                 C1      NOp   1
 Largest Abelian subgroup         C1      NOp   1
 Largest concise Abelian subgroup C1      NOp   1
                         Standard orientation:                         
 ---------------------------------------------------------------------
 Center     Atomic      Atomic             Coordinates (Angstroms)
 Number     Number       Type             X           Y           Z
 ---------------------------------------------------------------------
      1          6           0        3.338462    1.058141    0.113550
      2          6           0        3.486145    2.359789   -0.348484
      3          6           0        4.447185    2.659763   -1.296424
      4          6           0        5.252669    1.655007   -1.807166
      5          6           0        5.103056    0.351318   -1.369353
      6          6           0        4.156040    0.043184   -0.401133
      7          1           0        2.849273    3.135480    0.049931
      8          1           0        4.563257    3.675347   -1.641676
      9          1           0        6.000236    1.886075   -2.550651
     10          1           0        5.725615   -0.437900   -1.764216
     11          6           0        2.280288    0.674181    1.053524
     12          6           0        2.522880   -0.034159    2.233028
     13          6           0        0.941966    0.863082    0.721757
     14          1           0        3.528251   -0.236414    2.573154
     15          1           0        0.653819    1.441316   -0.158062
     16          6           0        0.307165   -0.323020    2.561229
     17          1           0       -0.492924   -0.745360    3.161673
     18          8           0        4.022248   -1.242520    0.071707
     19          6           0        3.361780   -2.160780   -0.799877
     20          1           0        3.659052   -1.978218   -1.839563
     21          1           0        3.714091   -3.147977   -0.490390
     22          6           0        1.862040   -2.069549   -0.651719
     23          6           0        1.223161   -2.758018    0.375671
     24          6           0        1.105952   -1.264303   -1.497135
     25          6           0       -0.139896   -2.619746    0.579134
     26          1           0        1.807350   -3.392435    1.026671
     27          6           0       -0.267660   -1.143406   -1.310495
     28          1           0        1.596001   -0.734393   -2.304157
     29          6           0       -0.923589   -1.813609   -0.256959
     30          1           0       -0.610717   -3.168132    1.384814
     31          1           0       -2.216645   -2.045407   -0.402370
     32          7           0        1.538068   -0.484319    2.991375
     33          7           0       -0.031645    0.315947    1.442075
     34         46           0       -1.671737    0.128959    0.350603
     35          8           0       -3.577444    3.595109    0.011743
     36          8           0       -2.197933    2.028016    0.711851
     37          8           0       -3.481169   -2.179174   -0.764020
     38          7           0       -3.379987    0.065646   -0.643589
     39          6           0       -3.999344    1.369498   -0.764851
     40          6           0       -3.209982    2.439172    0.040017
     41          6           0       -4.019581   -1.039393   -0.907905
     42          6           0       -5.435295   -1.005140   -1.435221
     43          1           0       -4.032094    1.693721   -1.814635
     44          1           0       -6.107180   -0.611307   -0.674646
     45          1           0       -5.495449   -0.368750   -2.315450
     46          1           0       -5.737377   -2.016743   -1.689635
     47          1           0       -5.027969    1.372195   -0.381556
     48          1           0       -0.848029   -0.597654   -2.063391
 ---------------------------------------------------------------------
 Rotational constants (GHZ):           0.2889351           0.1070788           0.0959101
 General basis read from cards:  (5D, 7F)
 ======================================================================================================
                                       Pseudopotential Parameters
 ======================================================================================================
  Center     Atomic      Valence      Angular      Power
  Number     Number     Electrons     Momentum     of R      Exponent        Coefficient   SO-Coeffient
 ======================================================================================================
    1          6
                                   No pseudopotential on this center.
    2          6
                                   No pseudopotential on this center.
    3          6
                                   No pseudopotential on this center.
    4          6
                                   No pseudopotential on this center.
    5          6
                                   No pseudopotential on this center.
    6          6
                                   No pseudopotential on this center.
    7          1
                                   No pseudopotential on this center.
    8          1
                                   No pseudopotential on this center.
    9          1
                                   No pseudopotential on this center.
   10          1
                                   No pseudopotential on this center.
   11          6
                                   No pseudopotential on this center.
   12          6
                                   No pseudopotential on this center.
   13          6
                                   No pseudopotential on this center.
   14          1
                                   No pseudopotential on this center.
   15          1
                                   No pseudopotential on this center.
   16          6
                                   No pseudopotential on this center.
   17          1
                                   No pseudopotential on this center.
   18          8
                                   No pseudopotential on this center.
   19          6
                                   No pseudopotential on this center.
   20          1
                                   No pseudopotential on this center.
   21          1
                                   No pseudopotential on this center.
   22          6
                                   No pseudopotential on this center.
   23          6
                                   No pseudopotential on this center.
   24          6
                                   No pseudopotential on this center.
   25          6
                                   No pseudopotential on this center.
   26          1
                                   No pseudopotential on this center.
   27          6
                                   No pseudopotential on this center.
   28          1
                                   No pseudopotential on this center.
   29          6
                                   No pseudopotential on this center.
   30          1
                                   No pseudopotential on this center.
   31          1
                                   No pseudopotential on this center.
   32          7
                                   No pseudopotential on this center.
   33          7
                                   No pseudopotential on this center.
   34         46           18
                                      F and up 
                                                     2       13.2700000      -31.92955431    0.00000000
                                                     2        6.6300000       -5.39821694    0.00000000
                                      S - F
                                                     2       12.4300000      240.22904033    0.00000000
                                                     2        6.1707594       35.17194347    0.00000000
                                                     2       13.2700000       31.92955431    0.00000000
                                                     2        6.6300000        5.39821694    0.00000000
                                      P - F
                                                     2       11.0800000      170.41727605    0.00000000
                                                     2        5.8295541       28.47213287    0.00000000
                                                     2       13.2700000       31.92955431    0.00000000
                                                     2        6.6300000        5.39821694    0.00000000
                                      D - F
                                                     2        9.5100000       69.01384488    0.00000000
                                                     2        4.1397811       11.75086158    0.00000000
                                                     2       13.2700000       31.92955431    0.00000000
                                                     2        6.6300000        5.39821694    0.00000000
   35          8
                                   No pseudopotential on this center.
   36          8
                                   No pseudopotential on this center.
   37          8
                                   No pseudopotential on this center.
   38          7
                                   No pseudopotential on this center.
   39          6
                                   No pseudopotential on this center.
   40          6
                                   No pseudopotential on this center.
   41          6
                                   No pseudopotential on this center.
   42          6
                                   No pseudopotential on this center.
   43          1
                                   No pseudopotential on this center.
   44          1
                                   No pseudopotential on this center.
   45          1
                                   No pseudopotential on this center.
   46          1
                                   No pseudopotential on this center.
   47          1
                                   No pseudopotential on this center.
   48          1
                                   No pseudopotential on this center.
 ======================================================================================================
 There are   586 symmetry adapted cartesian basis functions of A   symmetry.
 There are   543 symmetry adapted basis functions of A   symmetry.
   543 basis functions,   932 primitive gaussians,   586 cartesian basis functions
   108 alpha electrons      108 beta electrons
       nuclear repulsion energy      3111.3276871026 Hartrees.
 NAtoms=   48 NActive=   48 NUniq=   48 SFac= 1.00D+00 NAtFMM=   60 NAOKFM=F Big=F
 Integral buffers will be    131072 words long.
 Raffenetti 2 integral format.
 Two-electron integral symmetry is turned on.
 One-electron integrals computed using PRISM.
   1 Symmetry operations used in ECPInt.
 ECPInt:  NShTT=   29161 NPrTT=  103719 LenC2=   25604 LenP2D=   62157.
 LDataN:  DoStor=T MaxTD1= 8 Len=  415
 NBasis=   543 RedAO= T EigKep=  2.11D-04  NBF=   543
 NBsUse=   543 1.00D-06 EigRej= -1.00D+00 NBFU=   543
 Defaulting to unpruned grid for atomic number  46.
 ExpMin= 3.70D-02 ExpMax= 2.27D+03 ExpMxC= 3.41D+02 IAcc=3 IRadAn=         5 AccDes= 0.00D+00
 Harris functional with IExCor= 1009 and IRadAn=       5 diagonalized for initial guess.
 HarFok:  IExCor= 1009 AccDes= 0.00D+00 IRadAn=         5 IDoV= 1 UseB2=F ITyADJ=14
 ICtDFT=  3500011 ScaDFX=  1.000000  1.000000  1.000000  1.000000
 Defaulting to unpruned grid for atomic number  46.
 FoFCou: FMM=F IPFlag=           0 FMFlag=      100000 FMFlg1=           0
         NFxFlg=           0 DoJE=T BraDBF=F KetDBF=T FulRan=T
         wScrn=  0.000000 ICntrl=       500 IOpCl=  0 I1Cent=   200000004 NGrid=           0
         NMat0=    1 NMatS0=      1 NMatT0=    0 NMatD0=    1 NMtDS0=    0 NMtDT0=    0
 Petite list used in FoFCou.
 Requested convergence on RMS density matrix=1.00D-08 within 128 cycles.
 Requested convergence on MAX density matrix=1.00D-06.
 Requested convergence on             energy=1.00D-06.
 No special actions if energy rises.
 Defaulting to unpruned grid for atomic number  46.
 Defaulting to unpruned grid for atomic number  46.
 Defaulting to unpruned grid for atomic number  46.
 Defaulting to unpruned grid for atomic number  46.
 Defaulting to unpruned grid for atomic number  46.
 Defaulting to unpruned grid for atomic number  46.
 Defaulting to unpruned grid for atomic number  46.
 Defaulting to unpruned grid for atomic number  46.
 Defaulting to unpruned grid for atomic number  46.
 Defaulting to unpruned grid for atomic number  46.
 Defaulting to unpruned grid for atomic number  46.
 Defaulting to unpruned grid for atomic number  46.
 Defaulting to unpruned grid for atomic number  46.
 Defaulting to unpruned grid for atomic number  46.
 Defaulting to unpruned grid for atomic number  46.
 Defaulting to unpruned grid for atomic number  46.
 Defaulting to unpruned grid for atomic number  46.
 Defaulting to unpruned grid for atomic number  46.
 Defaulting to unpruned grid for atomic number  46.
 Defaulting to unpruned grid for atomic number  46.
 Defaulting to unpruned grid for atomic number  46.
 Defaulting to unpruned grid for atomic number  46.
 Defaulting to unpruned grid for atomic number  46.
 Defaulting to unpruned grid for atomic number  46.
 Defaulting to unpruned grid for atomic number  46.
 Defaulting to unpruned grid for atomic number  46.
 Defaulting to unpruned grid for atomic number  46.
 Defaulting to unpruned grid for atomic number  46.
 Defaulting to unpruned grid for atomic number  46.
 Defaulting to unpruned grid for atomic number  46.
 Defaulting to unpruned grid for atomic number  46.
 Defaulting to unpruned grid for atomic number  46.
 Defaulting to unpruned grid for atomic number  46.
 Defaulting to unpruned grid for atomic number  46.
 Defaulting to unpruned grid for atomic number  46.
 Defaulting to unpruned grid for atomic number  46.
 Defaulting to unpruned grid for atomic number  46.
 Defaulting to unpruned grid for atomic number  46.
 Defaulting to unpruned grid for atomic number  46.
 Defaulting to unpruned grid for atomic number  46.
 Defaulting to unpruned grid for atomic number  46.
 Defaulting to unpruned grid for atomic number  46.
 Defaulting to unpruned grid for atomic number  46.
 Defaulting to unpruned grid for atomic number  46.
 Defaulting to unpruned grid for atomic number  46.
 Defaulting to unpruned grid for atomic number  46.
 Defaulting to unpruned grid for atomic number  46.
 Defaulting to unpruned grid for atomic number  46.
 Defaulting to unpruned grid for atomic number  46.
 Defaulting to unpruned grid for atomic number  46.
 Defaulting to unpruned grid for atomic number  46.
 Defaulting to unpruned grid for atomic number  46.
 Defaulting to unpruned grid for atomic number  46.
 Defaulting to unpruned grid for atomic number  46.
 Defaulting to unpruned grid for atomic number  46.
 Defaulting to unpruned grid for atomic number  46.
 Defaulting to unpruned grid for atomic number  46.
 Defaulting to unpruned grid for atomic number  46.
 Defaulting to unpruned grid for atomic number  46.
 Defaulting to unpruned grid for atomic number  46.
 Defaulting to unpruned grid for atomic number  46.
 Defaulting to unpruned grid for atomic number  46.
 Defaulting to unpruned grid for atomic number  46.
 Defaulting to unpruned grid for atomic number  46.
 EnCoef did     7 forward-backward iterations
 EnCoef did   100 forward-backward iterations
 EnCoef did     4 forward-backward iterations
 Restarting incremental Fock formation.
 SCF Done:  E(RMN15) =  -1401.97511626     A.U. after   22 cycles
            NFock= 22  Conv=0.56D-08     -V/T= 2.0719
 DoSCS=F DFT=T ScalE2(SS,OS)=  1.000000  1.000000
 Range of M.O.s used for correlation:     1   543
 NBasis=   543 NAE=   108 NBE=   108 NFC=     0 NFV=     0
 NROrb=    543 NOA=   108 NOB=   108 NVA=   435 NVB=   435
   1 Symmetry operations used in ECPInt.
 ECPInt:  NShTT=   29161 NPrTT=  103719 LenC2=   25604 LenP2D=   62157.
 LDataN:  DoStor=T MaxTD1= 9 Len=  602
 Number of processors reduced to  12 by ecpmxn.
 Symmetrizing basis deriv contribution to polar:
 IMax=3 JMax=2 DiffMx= 0.00D+00
 G2DrvN: will do    49 centers at a time, making    1 passes.
 Calling FoFCou, ICntrl=  3107 FMM=F I1Cent=   0 AccDes= 0.00D+00.
 Defaulting to unpruned grid for atomic number  46.
 Defaulting to unpruned grid for atomic number  46.
 Defaulting to unpruned grid for atomic number  46.
 Defaulting to unpruned grid for atomic number  46.
 Defaulting to unpruned grid for atomic number  46.
 Defaulting to unpruned grid for atomic number  46.
 Defaulting to unpruned grid for atomic number  46.
 Defaulting to unpruned grid for atomic number  46.
 Defaulting to unpruned grid for atomic number  46.
 Defaulting to unpruned grid for atomic number  46.
 Defaulting to unpruned grid for atomic number  46.
 Defaulting to unpruned grid for atomic number  46.
 Defaulting to unpruned grid for atomic number  46.
 Defaulting to unpruned grid for atomic number  46.
 Defaulting to unpruned grid for atomic number  46.
 Defaulting to unpruned grid for atomic number  46.
 Defaulting to unpruned grid for atomic number  46.
 Defaulting to unpruned grid for atomic number  46.
 Defaulting to unpruned grid for atomic number  46.
 Defaulting to unpruned grid for atomic number  46.
 Defaulting to unpruned grid for atomic number  46.
 Defaulting to unpruned grid for atomic number  46.
 Defaulting to unpruned grid for atomic number  46.
 Defaulting to unpruned grid for atomic number  46.
 Defaulting to unpruned grid for atomic number  46.
 Defaulting to unpruned grid for atomic number  46.
 Defaulting to unpruned grid for atomic number  46.
 Defaulting to unpruned grid for atomic number  46.
 Defaulting to unpruned grid for atomic number  46.
 Defaulting to unpruned grid for atomic number  46.
 Defaulting to unpruned grid for atomic number  46.
 Defaulting to unpruned grid for atomic number  46.
 Defaulting to unpruned grid for atomic number  46.
 Defaulting to unpruned grid for atomic number  46.
 Defaulting to unpruned grid for atomic number  46.
 Defaulting to unpruned grid for atomic number  46.
 Defaulting to unpruned grid for atomic number  46.
 Defaulting to unpruned grid for atomic number  46.
 Defaulting to unpruned grid for atomic number  46.
 Defaulting to unpruned grid for atomic number  46.
 Defaulting to unpruned grid for atomic number  46.
 Defaulting to unpruned grid for atomic number  46.
 Defaulting to unpruned grid for atomic number  46.
 Defaulting to unpruned grid for atomic number  46.
 Defaulting to unpruned grid for atomic number  46.
 Defaulting to unpruned grid for atomic number  46.
 Defaulting to unpruned grid for atomic number  46.
 Defaulting to unpruned grid for atomic number  46.
 Defaulting to unpruned grid for atomic number  46.
 Defaulting to unpruned grid for atomic number  46.
 Defaulting to unpruned grid for atomic number  46.
 Defaulting to unpruned grid for atomic number  46.
 Defaulting to unpruned grid for atomic number  46.
 Defaulting to unpruned grid for atomic number  46.
 Defaulting to unpruned grid for atomic number  46.
 Defaulting to unpruned grid for atomic number  46.
 Defaulting to unpruned grid for atomic number  46.
 Defaulting to unpruned grid for atomic number  46.
 Defaulting to unpruned grid for atomic number  46.
 Defaulting to unpruned grid for atomic number  46.
 Defaulting to unpruned grid for atomic number  46.
 Defaulting to unpruned grid for atomic number  46.
 Defaulting to unpruned grid for atomic number  46.
 Defaulting to unpruned grid for atomic number  46.
 End of G2Drv F.D. properties file   721 does not exist.
 End of G2Drv F.D. properties file   722 does not exist.
 End of G2Drv F.D. properties file   788 does not exist.
          IDoAtm=111111111111111111111111111111111111111111111111
          Differentiating once with respect to nuclear coordinates.
 Defaulting to unpruned grid for atomic number  46.
 CalDSu exits because no D1Ps are significant.
 Defaulting to unpruned grid for atomic number  46.
 Defaulting to unpruned grid for atomic number  46.
 Defaulting to unpruned grid for atomic number  46.
 Defaulting to unpruned grid for atomic number  46.
 Defaulting to unpruned grid for atomic number  46.
 Defaulting to unpruned grid for atomic number  46.
 Defaulting to unpruned grid for atomic number  46.
 Defaulting to unpruned grid for atomic number  46.
 Defaulting to unpruned grid for atomic number  46.
 Defaulting to unpruned grid for atomic number  46.
 Defaulting to unpruned grid for atomic number  46.
 Defaulting to unpruned grid for atomic number  46.
 Defaulting to unpruned grid for atomic number  46.
 Defaulting to unpruned grid for atomic number  46.
 Defaulting to unpruned grid for atomic number  46.
 Defaulting to unpruned grid for atomic number  46.
 Defaulting to unpruned grid for atomic number  46.
 Defaulting to unpruned grid for atomic number  46.
 Defaulting to unpruned grid for atomic number  46.
 Defaulting to unpruned grid for atomic number  46.
 Defaulting to unpruned grid for atomic number  46.
 Defaulting to unpruned grid for atomic number  46.
 Defaulting to unpruned grid for atomic number  46.
 Defaulting to unpruned grid for atomic number  46.
 Defaulting to unpruned grid for atomic number  46.
 Defaulting to unpruned grid for atomic number  46.
 Defaulting to unpruned grid for atomic number  46.
 Defaulting to unpruned grid for atomic number  46.
 Defaulting to unpruned grid for atomic number  46.
 Defaulting to unpruned grid for atomic number  46.
 Defaulting to unpruned grid for atomic number  46.
 Defaulting to unpruned grid for atomic number  46.
 Defaulting to unpruned grid for atomic number  46.
 Defaulting to unpruned grid for atomic number  46.
 Defaulting to unpruned grid for atomic number  46.
 Defaulting to unpruned grid for atomic number  46.
 Defaulting to unpruned grid for atomic number  46.
 Defaulting to unpruned grid for atomic number  46.
 Defaulting to unpruned grid for atomic number  46.
 Defaulting to unpruned grid for atomic number  46.
 Defaulting to unpruned grid for atomic number  46.
 Defaulting to unpruned grid for atomic number  46.
 Defaulting to unpruned grid for atomic number  46.
 Defaulting to unpruned grid for atomic number  46.
 Defaulting to unpruned grid for atomic number  46.
 Defaulting to unpruned grid for atomic number  46.
 Defaulting to unpruned grid for atomic number  46.
 Defaulting to unpruned grid for atomic number  46.
 Defaulting to unpruned grid for atomic number  46.
 Defaulting to unpruned grid for atomic number  46.
 Defaulting to unpruned grid for atomic number  46.
 Defaulting to unpruned grid for atomic number  46.
 Defaulting to unpruned grid for atomic number  46.
 Defaulting to unpruned grid for atomic number  46.
 Defaulting to unpruned grid for atomic number  46.
 Defaulting to unpruned grid for atomic number  46.
 Defaulting to unpruned grid for atomic number  46.
 Defaulting to unpruned grid for atomic number  46.
 Defaulting to unpruned grid for atomic number  46.
 Defaulting to unpruned grid for atomic number  46.
 Defaulting to unpruned grid for atomic number  46.
 Defaulting to unpruned grid for atomic number  46.
 Defaulting to unpruned grid for atomic number  46.
 Defaulting to unpruned grid for atomic number  46.
          There are   147 degrees of freedom in the 1st order CPHF.  IDoFFX=6 NUNeed=     0.
    141 vectors produced by pass  0 Test12= 4.70D-14 1.00D-09 XBig12= 1.25D-01 1.04D-01.
 AX will form    64 AO Fock derivatives at one time.
    141 vectors produced by pass  1 Test12= 4.70D-14 1.00D-09 XBig12= 2.77D-02 4.18D-02.
    141 vectors produced by pass  2 Test12= 4.70D-14 1.00D-09 XBig12= 5.42D-04 2.63D-03.
    141 vectors produced by pass  3 Test12= 4.70D-14 1.00D-09 XBig12= 4.81D-06 2.87D-04.
    141 vectors produced by pass  4 Test12= 4.70D-14 1.00D-09 XBig12= 2.41D-08 1.34D-05.
    141 vectors produced by pass  5 Test12= 4.70D-14 1.00D-09 XBig12= 8.65D-11 6.93D-07.
    116 vectors produced by pass  6 Test12= 4.70D-14 1.00D-09 XBig12= 2.89D-13 3.49D-08.
     18 vectors produced by pass  7 Test12= 4.70D-14 1.00D-09 XBig12= 9.20D-16 2.49D-09.
 InvSVY:  IOpt=1 It=  1 EMax= 1.50D-15
 Solved reduced A of dimension   980 with   147 vectors.
 End of Minotr F.D. properties file   721 does not exist.
 End of Minotr F.D. properties file   722 does not exist.
 End of Minotr F.D. properties file   788 does not exist.

 **********************************************************************

            Population analysis using the SCF Density.

 **********************************************************************

 Orbital symmetries:
       Occupied  (A) (A) (A) (A) (A) (A) (A) (A) (A) (A) (A) (A)
                 (A) (A) (A) (A) (A) (A) (A) (A) (A) (A) (A) (A)
                 (A) (A) (A) (A) (A) (A) (A) (A) (A) (A) (A) (A)
                 (A) (A) (A) (A) (A) (A) (A) (A) (A) (A) (A) (A)
                 (A) (A) (A) (A) (A) (A) (A) (A) (A) (A) (A) (A)
                 (A) (A) (A) (A) (A) (A) (A) (A) (A) (A) (A) (A)
                 (A) (A) (A) (A) (A) (A) (A) (A) (A) (A) (A) (A)
                 (A) (A) (A) (A) (A) (A) (A) (A) (A) (A) (A) (A)
                 (A) (A) (A) (A) (A) (A) (A) (A) (A) (A) (A) (A)
       Virtual   (A) (A) (A) (A) (A) (A) (A) (A) (A) (A) (A) (A)
                 (A) (A) (A) (A) (A) (A) (A) (A) (A) (A) (A) (A)
                 (A) (A) (A) (A) (A) (A) (A) (A) (A) (A) (A) (A)
                 (A) (A) (A) (A) (A) (A) (A) (A) (A) (A) (A) (A)
                 (A) (A) (A) (A) (A) (A) (A) (A) (A) (A) (A) (A)
                 (A) (A) (A) (A) (A) (A) (A) (A) (A) (A) (A) (A)
                 (A) (A) (A) (A) (A) (A) (A) (A) (A) (A) (A) (A)
                 (A) (A) (A) (A) (A) (A) (A) (A) (A) (A) (A) (A)
                 (A) (A) (A) (A) (A) (A) (A) (A) (A) (A) (A) (A)
                 (A) (A) (A) (A) (A) (A) (A) (A) (A) (A) (A) (A)
                 (A) (A) (A) (A) (A) (A) (A) (A) (A) (A) (A) (A)
                 (A) (A) (A) (A) (A) (A) (A) (A) (A) (A) (A) (A)
                 (A) (A) (A) (A) (A) (A) (A) (A) (A) (A) (A) (A)
                 (A) (A) (A) (A) (A) (A) (A) (A) (A) (A) (A) (A)
                 (A) (A) (A) (A) (A) (A) (A) (A) (A) (A) (A) (A)
                 (A) (A) (A) (A) (A) (A) (A) (A) (A) (A) (A) (A)
                 (A) (A) (A) (A) (A) (A) (A) (A) (A) (A) (A) (A)
                 (A) (A) (A) (A) (A) (A) (A) (A) (A) (A) (A) (A)
                 (A) (A) (A) (A) (A) (A) (A) (A) (A) (A) (A) (A)
                 (A) (A) (A) (A) (A) (A) (A) (A) (A) (A) (A) (A)
                 (A) (A) (A) (A) (A) (A) (A) (A) (A) (A) (A) (A)
                 (A) (A) (A) (A) (A) (A) (A) (A) (A) (A) (A) (A)
                 (A) (A) (A) (A) (A) (A) (A) (A) (A) (A) (A) (A)
                 (A) (A) (A) (A) (A) (A) (A) (A) (A) (A) (A) (A)
                 (A) (A) (A) (A) (A) (A) (A) (A) (A) (A) (A) (A)
                 (A) (A) (A) (A) (A) (A) (A) (A) (A) (A) (A) (A)
                 (A) (A) (A) (A) (A) (A) (A) (A) (A) (A) (A) (A)
                 (A) (A) (A) (A) (A) (A) (A) (A) (A) (A) (A) (A)
                 (A) (A) (A) (A) (A) (A) (A) (A) (A) (A) (A) (A)
                 (A) (A) (A) (A) (A) (A) (A) (A) (A) (A) (A) (A)
                 (A) (A) (A) (A) (A) (A) (A) (A) (A) (A) (A) (A)
                 (A) (A) (A) (A) (A) (A) (A) (A) (A) (A) (A) (A)
[...]
 0.00000095,-0.00000047,0.00000083,-0.00000021,-0.00000091,0.00000016,-
 0.00000020,0.00000004,-0.00000031,0.00000030,-0.00000266,-0.00000121,-
 0.00000075,0.00000404,0.00000069,-0.00000129,-0.00000787,0.00000058,0.
 00002108,-0.00000040,0.00000055,0.00000047,-0.00000170,0.00000093,-0.0
 0000010,0.00001952,0.00000049,-0.00001143,0.00000322,0.00000010,-0.000
 00066,-0.00000804,0.00000792,-0.00000459,0.00000881,-0.00000116,0.0000
 0017,-0.00000202,0.00000047,-0.00000105,0.00000008,0.00000037,0.000000
 22,0.00000214,-0.00000428,0.00000912,-0.00001446,0.00000361,-0.0000088
 8,0.00000245,-0.00000262,-0.00001469,0.00001144,0.00001538,-0.00001033
 ,-0.00000083,-0.00000097,-0.00000021,-0.00001321,-0.00002815,0.0000306
 5,-0.00000507,0.00000032,-0.00000055,-0.00008800,0.00002000,0.00000032
 ,0.00000357,-0.00000327,-0.00000468,0.00024478,-0.00003499,0.00012285,
 -0.00001044,0.00000036,-0.00000145,-0.00007705,0.00005377,-0.00005058,
 0.00029204,-0.00006191,0.00028676,-0.00008145,0.00007921,0.00008224,-0
 .00017306,-0.00006995,0.00007124,0.00064466,0.00078208,0.00090160,-0.0
 0037553,-0.00230127,-0.00008211,0.00179529,0.00097514,-0.00197827,0.00
 039676,-0.00016483,-0.00022908,-0.00087492,0.00586228,-0.00672150,-0.0
 6005540,-0.18235556,0.12864220,-0.00020569,-0.00057056,0.00058778,0.00
 007487,0.00005798,-0.00195414,0.06619499,0.19128250,-0.00000065,-0.000
 00252,-0.00000079,0.00000220,0.00000204,-0.00000056,-0.00000023,-0.000
 00114,-0.00000017,0.00000010,0.00000051,-0.00000113,0.00000108,-0.0000
 0304,0.00000209,-0.00000242,0.00001433,-0.00001100,-0.00000052,0.00000
 023,0.00000045,0.,0.00000007,0.00000075,-0.00000015,0.00000001,0.00000
 056,-0.00000117,0.00000026,0.00000011,0.00000259,0.00000082,-0.0000033
 1,0.00000024,0.00000244,0.00000506,-0.00000703,0.00000374,0.00000163,0
 .00000018,0.00000090,0.00000054,-0.00000134,0.00000484,0.00000176,0.00
 002173,0.00000466,0.00000890,0.00000296,0.00000492,-0.00000178,0.00001
 497,-0.00002326,0.00000083,-0.00002003,0.00000842,0.00000512,0.0000018
 8,-0.00000071,0.00000009,0.00000244,-0.00000095,-0.00000079,0.00001272
 ,0.00000148,0.00000887,-0.00000646,0.00001502,0.00001067,0.00000651,0.
 00001821,-0.00001398,0.00000834,0.00000790,0.00000498,0.00000068,0.000
 00048,-0.00000181,-0.00002836,-0.00000418,0.00000137,-0.00000050,0.000
 00006,0.00000204,0.00012524,-0.00020480,-0.00010702,-0.00000014,-0.000
 00818,-0.00000123,-0.00042960,0.00020488,0.00013527,-0.00000460,-0.000
 00616,-0.00000998,0.00000537,0.00003227,-0.00003731,0.00030197,0.00018
 716,0.00016288,-0.00020267,0.00011914,0.00013918,-0.00084162,0.0000629
 4,0.00024367,0.00024989,-0.00065067,-0.00027354,0.00090093,-0.00120076
 ,0.00098185,0.00009063,0.00118499,0.00009944,0.00056529,-0.00065329,-0
 .00033484,-0.00076436,0.00578155,-0.00508275,0.06130575,0.12815108,-0.
 16303841,0.00017407,-0.00080489,0.00007670,0.00886294,0.01547513,-0.01
 398034,-0.06490204,-0.13853925,0.17106288,0.00000100,-0.00000825,0.000
 01452,-0.00000272,-0.00000253,-0.00000046,-0.00000236,-0.00000364,-0.0
 0000128,-0.00000132,0.00000293,-0.00000450,0.00000162,-0.00000670,0.00
 000406,-0.00000412,0.00003398,-0.00002580,0.00000033,-0.00000207,0.000
 00216,-0.00000117,0.00000049,-0.00000059,-0.00000085,0.00000003,0.0000
 0035,-0.00000298,-0.00000013,-0.00000064,-0.00002243,0.00000412,-0.000
 00679,0.00001153,0.00000593,-0.00000113,0.00001266,0.00000055,0.000125
 07,-0.00000269,0.00000221,0.00000134,0.00000855,0.00000606,-0.00001428
 ,-0.00004997,0.00003119,-0.00010862,0.00000705,-0.00000473,0.00000356,
 0.00002247,-0.00005226,-0.00000411,-0.00003142,0.00001398,0.00000820,0
 .00000183,-0.00000071,-0.00000241,0.00000324,-0.00000233,0.00000143,0.
 00002649,-0.00000090,-0.00000772,-0.00000496,0.00008466,0.00004682,-0.
 00002847,0.00009011,0.00000234,-0.00001619,0.00000802,0.00004631,-0.00
 000087,0.00000233,-0.00000411,-0.00003938,0.00000783,0.00000420,-0.000
 00489,0.00000231,0.00000568,0.00080382,-0.00079927,-0.00044122,-0.0000
 0036,-0.00004163,-0.00002441,-0.00197716,0.00080739,0.00063643,-0.0000
 4739,-0.00001246,0.00005406,-0.00046809,0.00009083,0.00014962,0.001199
 27,0.00061718,-0.00001758,0.00011854,0.00000955,-0.00003271,0.00039091
 ,-0.00007173,-0.00016929,0.00410741,-0.00098699,-0.00169640,-0.0069744
 5,0.00113521,0.00224148,-0.00070619,-0.00131321,-0.00056229,-0.0002334
 6,0.00028948,0.00031056,0.00013659,0.03016757,0.01372007,-0.04375489,0
 .00014112,0.00023807,-0.00005247,0.00007898,-0.00026334,0.00108381,-0.
 01742989,-0.00580046,-0.00054958,-0.00743047,-0.00529888,0.04682480,-0
 .00000322,0.00000197,-0.00000785,0.00000245,0.00000193,-0.00000104,0.0
 0000245,0.00000288,0.00000166,0.00000037,-0.00000177,0.00000218,0.0000
 0085,0.00000135,0.00000053,-0.00000201,-0.00000413,0.00000172,-0.00000
 108,0.00000191,-0.00000156,0.00000066,-0.00000103,0.00000079,0.0000013
 4,-0.00000013,0.00000047,0.00000081,0.00000067,0.00000005,0.00001035,0
 .00000142,-0.00000614,-0.00000787,-0.00000417,0.00000520,-0.00000864,-
 0.00000035,-0.00005444,0.00000193,-0.00000168,-0.00000067,-0.00000370,
 -0.00000129,0.00000290,-0.00000249,-0.00001492,0.00004443,-0.00000404,
 -0.00000218,0.00000378,0.00000852,0.00000599,0.00000523,-0.00000942,-0
 .00000355,-0.00000175,0.00000207,-0.00000027,0.00000222,0.00000069,0.0
 0000033,-0.00000146,0.00000421,0.00000662,0.00000466,-0.00000077,-0.00
 003153,0.00000614,0.00000370,-0.00002225,-0.00001554,-0.00001616,0.000
 01080,-0.00000677,-0.00000129,-0.00000290,-0.00000016,-0.00001322,0.00
 001203,-0.00001026,0.00000222,-0.00000259,-0.00000100,-0.00023211,0.00
 021206,0.00010622,-0.00000346,0.00000787,0.00001390,0.00056470,-0.0002
 8624,-0.00017357,0.00003298,0.00000862,-0.00001923,0.00013220,-0.00005
 834,0.00000046,-0.00051437,0.00008566,-0.00002156,-0.00002561,-0.00017
 668,-0.00007349,0.00021890,-0.00012588,-0.00008657,-0.00162941,0.00148
 274,0.00137030,0.00112485,0.00056526,-0.00085715,0.00025662,-0.0001919
 7,0.00002032,-0.00010167,0.00052743,0.00016332,-0.00216212,-0.00648254
 ,-0.00123021,0.00558678,-0.29040962,-0.11565554,0.00000584,0.00026138,
 -0.00012680,0.00036833,0.00299577,0.00237988,0.00165352,-0.01337910,-0
 .00944768,-0.00527543,0.30505442,-0.00000113,0.00000227,-0.00000557,0.
 00000208,0.00000090,-0.00000064,0.00000193,0.00000174,-0.00000019,0.00
 000064,-0.00000169,0.00000120,-0.00000045,0.00000151,-0.00000200,0.000
 00045,-0.00001323,0.00000950,-0.00000073,0.00000168,-0.00000019,-0.000
 00017,0.00000020,0.00000079,0.,0.00000020,0.00000049,0.00000069,0.0000
 0045,0.00000074,0.00000781,-0.00000204,-0.00000731,-0.00000572,-0.0000
 0433,0.00000460,-0.00002799,0.00000072,-0.00003573,0.00000176,-0.00000
 081,0.00000024,-0.00000758,0.00000032,0.00000665,0.00003426,-0.0000170
 8,0.00004390,-0.00000161,-0.00000230,0.00000078,-0.00000140,0.00001859
 ,-0.00000152,0.00000262,-0.00000647,-0.00000096,-0.00000098,0.00000018
 ,0.00000091,0.00000077,0.00000124,-0.00000197,-0.00000372,0.00000137,0
 .00001204,-0.00000535,-0.00002843,-0.00001757,0.00001508,-0.00002503,-
 0.00001950,0.00000118,0.00000205,0.00000137,0.00000174,-0.00000198,-0.
 00000027,-0.00000134,-0.00001165,0.00001533,-0.00000137,-0.00000136,-0
 .00000171,-0.00028394,0.00026066,0.00018406,0.00000076,0.00000810,-0.0
 0000043,0.00070147,-0.00028147,-0.00028992,0.00002413,0.00000857,-0.00
 003045,0.00011212,0.00001100,-0.00014364,-0.00033936,-0.00026664,0.000
 42298,-0.00003669,-0.00006616,-0.00004412,-0.00003860,0.00000980,-0.00
 006066,-0.00167989,0.00121219,0.00036322,0.00229601,-0.00086785,0.0008
 1746,0.00022599,0.00052787,-0.00032496,0.00007860,-0.00001836,0.000284
 42,-0.00206163,-0.00828351,-0.00601569,0.00284379,-0.11421511,-0.09915
 685,-0.00005924,-0.00019916,0.00011663,0.00284987,-0.02017180,-0.00789
 101,-0.00134913,0.01864276,0.01055297,-0.00343205,0.12352660,0.1010730
 9,0.00000666,0.00000137,0.00001539,-0.00001001,-0.00000928,0.00000433,
 -0.00000463,-0.00000261,-0.00000252,-0.00000080,0.00000234,-0.00000106
 ,-0.00000455,0.00000671,-0.00000593,0.00001062,-0.00003179,0.00002775,
 0.00000372,-0.00000426,0.00000157,-0.00000130,0.00000175,-0.00000367,-
 0.00000203,0.00000016,-0.00000268,0.00000188,-0.00000204,-0.00000071,-
 0.00003534,-0.00001579,0.00003624,0.00001207,0.00000305,-0.00003151,0.
 00008861,-0.00002274,0.00011490,-0.00000391,0.00000499,-0.00000075,0.0
 0002784,-0.00000838,-0.00001591,-0.00014701,0.00005464,-0.00018172,-0.
 00001689,-0.00000401,-0.00001063,-0.00006383,0.00005294,-0.00000980,0.
 00007984,-0.00001238,-0.00000974,-0.00000868,0.00000286,-0.00000445,-0
 .00000957,0.00000134,0.00000635,-0.00003555,-0.00002252,-0.00001998,-0
 .00000015,-0.00000653,0.00000061,-0.00002006,-0.00001679,0.00003581,-0
 .00005353,-0.00001756,-0.00007908,-0.00001582,-0.00000009,0.00000685,0
 .00002825,-0.00003432,0.00002095,-0.00001390,0.00000498,-0.00000394,-0
 .00011344,0.00018495,0.00010293,0.00000299,0.00000211,-0.00000141,0.00
 072690,0.00001486,-0.00021707,-0.00004206,-0.00002932,0.00009905,-0.00
 026201,0.00021762,0.00039106,0.00020678,-0.00130764,-0.00152672,0.0017
 7947,-0.00220357,0.00118438,0.00038461,0.00067178,0.00180146,-0.000439
 61,-0.00177189,0.00016937,-0.02093957,-0.00338389,-0.01087412,-0.19922
 380,0.07385331,-0.11447810,-0.01101767,0.00571979,-0.00762234,-0.00215
 739,0.00498484,0.00213599,0.00119608,0.00076193,0.00018869,0.00800596,
 -0.00347154,0.00621691,0.00021898,-0.00034022,-0.00036328,-0.00002481,
 -0.00026354,-0.00014146,0.00022228,0.00003281,0.00013721,0.22163542,0.
 00000126,0.00000276,0.00000626,-0.00000496,-0.00000644,0.00000025,0.00
 000013,0.00000064,-0.00000171,-0.00000056,-0.00000011,-0.00000045,-0.0
 0000138,0.00000343,-0.00000298,0.00000293,-0.00001755,0.00001447,0.000
 00028,-0.00000005,0.00000149,-0.00000157,0.00000083,-0.00000122,-0.000
 00053,0.00000027,-0.00000046,0.00000089,-0.00000022,-0.00000014,-0.000
 00873,-0.00001020,-0.00001103,0.00001485,-0.00000779,0.00000478,0.0000
 3932,-0.00002219,0.00007042,-0.00000161,0.00000437,-0.00000004,0.00000
 860,-0.00000540,-0.00001337,-0.00012552,0.00001297,-0.00008486,-0.0000
 0972,-0.00001236,0.00001791,-0.00002203,0.00002801,-0.00000550,0.00002
 635,-0.00000581,-0.00000372,-0.00000284,0.00000077,-0.00000080,-0.0000
 0310,0.00000117,0.00000099,-0.00001634,-0.00000167,-0.00001397,0.00001
 461,-0.00002742,-0.00000688,-0.00000750,-0.00003649,0.00001150,-0.0000
 2086,-0.00001796,-0.00000662,-0.00000291,-0.00000257,0.00000119,0.0000
 3164,0.00001252,-0.00000277,-0.00000358,0.00000234,-0.00000152,-0.0001
 3552,0.00039202,0.00017339,-0.00000007,0.00001912,0.00000157,0.0008922
 1,-0.00019329,-0.00030534,-0.00003005,-0.00002505,0.00005634,-0.000221
 32,0.00023952,0.00042012,-0.00059948,-0.00214484,-0.00137945,-0.001405
 06,0.00118003,-0.00301341,0.00277827,-0.00058726,-0.00390856,-0.001358
 13,-0.00225024,0.00078604,-0.02341885,0.00414422,-0.01534259,0.0762313
 7,-0.08050545,0.05637763,0.01492431,-0.00640908,0.01690295,-0.00109600
 ,0.00420784,-0.00030564,-0.00109113,-0.00017369,-0.00119861,0.00729471
 ,-0.00285799,0.00379494,0.00063479,-0.00046358,0.00016769,0.00043464,-
 0.00016975,0.00026272,-0.00014627,-0.00004930,0.00022484,-0.07360004,0
 .08575043,0.00000059,0.00000285,0.00000163,-0.00000231,-0.00000122,0.0
 0000256,-0.00000209,-0.00000085,-0.00000026,0.00000040,0.00000086,0.00
 000040,-0.00000132,0.00000177,-0.00000118,0.00000476,-0.00000793,0.000
 00720,0.00000124,-0.00000195,-0.00000099,0.00000059,0.00000024,-0.0000
 0088,-0.00000056,0.00000003,-0.00000099,0.00000070,-0.00000074,0.00000
 002,0.00000822,0.00000018,0.00001050,0.00000601,-0.00000151,-0.0000025
 8,0.00001472,0.00000207,-0.00001957,-0.00000125,-0.00000125,-0.0000002
 2,0.00000306,-0.00000696,0.00000072,-0.00001896,-0.00000268,0.00000042
 ,0.00000609,-0.00000005,0.00000115,-0.00001767,0.00001379,-0.00000202,
 0.00002153,-0.00000241,-0.00000211,-0.00000245,0.00000125,-0.00000171,
 -0.00000221,0.00000029,0.00000226,-0.00000955,-0.00000176,-0.00000933,
 0.00000277,-0.00000893,-0.00000316,-0.00000994,-0.00001763,0.00000838,
 -0.00000531,-0.00000968,0.00000163,-0.00000165,-0.00000141,0.00000184,
 0.00001848,0.00000634,-0.00000297,-0.00000290,0.00000304,-0.00000108,-
 0.00005582,0.00012018,0.00005115,0.00000015,0.00000708,-0.00000175,0.0
 0039662,-0.00011173,-0.00009800,-0.00001519,0.00000632,0.00001383,0.00
 003272,-0.00008306,0.00008899,0.00018267,-0.00027612,-0.00062901,-0.00
 033579,0.00173935,-0.00075695,0.00189461,-0.00030642,-0.00343588,-0.00
 066512,-0.00121658,-0.00044799,-0.00277897,-0.00496912,0.00007916,-0.1
 1280755,0.05293636,-0.12148712,0.01236969,-0.00744861,0.01055209,-0.00
 133825,0.00236672,0.00208974,-0.00003577,0.00069603,0.00013420,-0.0201
 5069,0.01082595,-0.01355293,0.00025165,-0.00090973,0.00004967,-0.00016
 182,0.00021792,-0.00060660,0.00031621,0.00013854,0.00014341,0.12288841
 ,-0.05369690,0.12781510,0.00001853,0.00002319,-0.00001035,0.00002478,0
 .00000470,-0.00000947,0.00000795,0.00001911,-0.00004117,-0.00000464,-0
 .00001261,-0.00000100,-0.00001320,0.00001875,-0.00006505,0.00004271,-0
 .00034092,0.00025512,-0.00000177,0.00002196,0.00001150,-0.00000784,0.0
 0001122,0.00000284,-0.00000823,0.00000700,-0.00000031,0.00001394,0.000
 00036,0.00000986,-0.00002308,0.00001677,-0.00008555,0.00000807,0.00002
 400,0.00001768,-0.00000109,-0.00013212,0.00023884,0.00000262,0.0000009
 9,-0.00001365,-0.00003957,0.00013456,0.00013873,-0.00000703,0.00001791
 ,-0.00004146,0.00001284,-0.00000106,-0.00001906,-0.00026167,0.00055668
 ,-0.00002684,0.00015832,-0.00068151,0.00102544,-0.00000649,0.00003173,
 -0.00003969,-0.00032953,-0.00003908,0.00004176,-0.00502807,-0.00145118
 ,-0.00118849,-0.00051500,0.00024627,-0.00076929,-0.00686561,-0.0111027
 2,0.02579013,-0.00117232,-0.00055443,-0.00350115,0.00003023,0.00018648
 ,0.00013782,-0.10461198,-0.04388504,0.10009680,0.00104386,0.00090675,-
 0.00005103,0.00951066,0.00747544,-0.01597050,0.00031834,0.00029037,-0.
 00072648,0.00208873,-0.00009806,-0.00069449,-0.00004431,-0.00001070,-0
 .00000588,-0.00003641,0.00003478,-0.00014257,0.00022641,-0.00019783,0.
 00020770,0.00011005,0.00010923,0.00001135,0.00019100,0.00020018,0.0000
 2979,-0.00019503,0.00000960,0.00087670,-0.00001628,0.00002788,0.000159
 23,-0.00006834,-0.00006135,-0.00001251,-0.00022624,-0.00008067,0.00003
 310,-0.00037394,-0.00017786,-0.00002635,-0.00000910,0.00002492,-0.0000
 7659,0.00000098,0.00000189,-0.00001183,-0.00000868,-0.00000195,0.00000
 852,-0.00000752,-0.00000696,-0.00000645,-0.00000335,-0.00000207,-0.000
 00090,0.00002895,0.00000451,0.00000128,0.10604738,0.00000229,0.0000552
 7,-0.00000367,-0.00000031,-0.00001001,0.00001802,-0.00001125,0.0000042
 4,0.00000274,0.00000978,0.00000653,-0.00000160,-0.00001210,0.00000869,
 -0.00001817,0.00003235,-0.00006399,0.00003749,0.00000554,-0.00001144,-
 0.00000919,0.00000219,0.00000038,-0.00000135,-0.00000322,0.00000110,-0
 .00000353,0.00000318,-0.00000198,0.00000387,0.00001785,0.00002169,0.00
 012762,-0.00005549,-0.00003830,-0.00008371,-0.00007814,0.00031740,-0.0
 0021045,0.00000139,-0.00000742,0.00000751,0.00000600,-0.00003171,0.000
 10978,-0.00006042,-0.00001561,0.00001554,0.00000553,-0.00000223,0.0000
 1563,-0.00008330,0.00019262,-0.00009906,0.00034040,-0.00036020,0.00035
 948,-0.00002836,0.00000910,-0.00003049,-0.00006012,-0.00004959,0.00001
 546,-0.00215945,0.00622334,0.00231685,-0.00071428,-0.00079000,-0.00085
 750,-0.00011450,0.00384178,0.00533527,0.00001442,0.00717575,0.00203639
 ,0.00006504,-0.00102670,-0.00033066,-0.04520756,-0.07607333,0.08645355
 ,0.00071091,-0.00361748,-0.00145593,0.00067337,-0.00196712,0.00371648,
 -0.00014660,0.00009545,0.00011221,-0.00499254,-0.00031074,0.00136050,0
 .00011177,-0.00000684,0.00003228,-0.00008350,-0.00005606,0.00010487,0.
 00146892,0.00070421,-0.00084497,-0.00018421,-0.00004527,0.00001212,-0.
 00026938,-0.00004740,0.00025526,0.00231472,-0.00034380,-0.00129009,-0.
 00004910,0.00054243,0.00027657,-0.00002078,0.00001949,0.00000514,0.000
 31444,-0.00011073,-0.00008998,-0.00037346,-0.00069919,-0.00023418,0.00
 015293,0.00014666,0.00008955,-0.00000753,0.00000736,0.00000709,0.00003
 986,-0.00000291,-0.00001495,0.00003271,0.00001167,-0.00000176,-0.00004
 244,0.00000532,0.00002067,0.00000157,0.00000051,-0.00000192,0.04843087
 ,0.06629905,0.00000760,-0.00000015,0.00002463,-0.00000378,-0.00000045,
 0.00000571,-0.00000691,-0.00000874,0.00001378,0.00000166,0.00000747,-0
 .00001019,0.00000168,-0.00002582,0.00001112,-0.00000790,0.00015161,-0.
 00009942,0.00000471,-0.00001869,-0.00000640,0.00000150,-0.00000162,-0.
 00000027,-0.00000114,-0.00000201,0.00000061,-0.00000966,0.00000044,-0.
 00000159,-0.00000196,-0.00000408,0.00018781,-0.00006538,0.00001163,-0.
 00006423,0.00004268,0.00021588,-0.00025919,-0.00000257,0.00000068,0.00
 001626,0.00017428,-0.00019606,-0.00017945,-0.00001488,0.00000791,-0.00
 001044,0.00000907,0.00001699,0.00001186,0.00009923,-0.00018842,-0.0000
 3294,-0.00023954,0.00003609,0.00014097,0.00000645,-0.00001849,-0.00001
 453,0.00002707,-0.00003314,-0.00000988,-0.00059940,0.00141271,0.002369
 86,-0.00095935,-0.00047222,0.00013348,-0.00279470,0.00045933,0.0030241
 0,-0.00360646,0.00222626,-0.00222908,0.00009887,-0.00028014,-0.0001312
 5,0.10169587,0.08803118,-0.25939491,0.00044584,-0.00128373,0.00008398,
 0.01067616,0.00691196,-0.01492901,0.00053444,0.00045402,-0.00072118,0.
 00016666,-0.00092637,-0.00020040,0.00001579,-0.00003440,0.00005002,-0.
 00007441,0.00000853,0.00014214,0.00051571,0.00069946,0.00003266,-0.000
 10680,0.00002358,0.00004976,-0.00021120,-0.00012339,-0.00004824,-0.000
 16645,0.00043536,0.00023272,0.00010385,0.00014939,0.00017870,-0.000070
 49,-0.00003592,0.00000141,0.00021265,-0.00015173,-0.00013576,-0.000367
 12,-0.00021839,-0.00016782,0.00001502,0.00001412,0.00002576,-0.0000045
 8,0.00001034,0.00000039,0.00001417,0.00000078,-0.00000219,-0.00001110,
 -0.00000705,-0.00000333,-0.00001147,-0.00000104,-0.00000389,0.00002239
 ,0.00001107,0.00000922,-0.10555609,-0.09726474,0.27190864\\-0.00000047
 ,-0.00000006,0.00000063,-0.00000011,-0.00000001,0.00000033,-0.00000018
 ,-0.00000009,0.00000053,-0.00000016,0.00000009,0.00000071,-0.00000027,
 0.00000022,0.00000087,0.00000010,0.00000050,0.00000090,-0.00000006,-0.
 00000010,0.00000012,-0.00000030,-0.00000015,0.00000046,-0.00000034,-0.
 00000004,0.00000093,-0.00000022,0.00000012,0.00000102,0.00000096,-0.00
 000019,-0.00000058,0.00000032,0.00000066,0.00000036,-0.00000003,0.0000
 0283,-0.00000033,0.00000048,0.00000038,0.00000043,0.00000008,0.0000005
 6,0.00000086,0.00000139,-0.00000016,-0.00000039,0.00000054,0.00000025,
 -0.00000045,-0.00000077,-0.00000042,0.00000003,0.00000032,0.00000087,0
 .00000105,-0.00000028,0.00000034,0.00000088,0.00000017,0.00000010,0.00
 000088,-0.00000001,-0.00000058,0.00000021,0.00000151,-0.00000078,0.000
 00088,-0.00000076,-0.00000045,-0.00000167,0.00000304,-0.00000038,0.000
 00166,0.00000038,0.00000038,0.00000064,0.00000169,-0.00000023,0.000000
 50,-0.00000037,-0.00000004,0.00000039,-0.00000553,-0.00000125,-0.00000
 350,-0.00000009,0.00000060,0.00000053,0.00000415,-0.00000148,0.0000023
 8,0.00000008,0.00000117,0.00000072,0.00000097,0.00000080,0.00000159,-0
 .00000169,0.00000440,0.00000239,-0.00000006,-0.00000060,-0.00000130,-0
 .00000216,-0.00000415,-0.00000390,0.00000456,0.00000850,0.00000181,-0.
 00000250,-0.00000895,-0.00000284,-0.00000023,0.00000045,-0.00000177,0.
 00000092,-0.00000171,-0.00000036,-0.00000406,0.00000040,-0.00000172,0.
 00000010,-0.00000055,-0.00000080,0.00000080,-0.00000121,-0.00000133,-0
 .00000003,-0.00000020,-0.00000102,-0.00000027,-0.00000017,-0.00000076,
 -0.00000036,-0.00000029,-0.00000072,-0.00000032,0.00000040,-0.00000011
 ,-0.00000091,0.00000021,-0.00000114\\\@


 CHRISTMAS IS ON TOP OF A STEEP HILL.
 THE CLOSER YOU GET, THE STEEPER THE HILL IS.
          -- LINUS, OF PEANUTS
 Job cpu time:       0 days 16 hours 59 minutes 10.7 seconds.
 Elapsed time:       0 days  0 hours 16 minutes  6.4 seconds.
 File lengths (MBytes):  RWF=   1476 Int=      0 D2E=      0 Chk=     26 Scr=      1
 Normal termination of Gaussian 16 at Thu Nov  9 01:57:02 2023.
