 Entering Gaussian System, Link 0=/jet/home/xzhangj/programs/g16/g16
 Input=/jet/home/xzhangj/scratch/ch_1c_para_c2/ch_1c_para_c2.com
 Output=/jet/home/xzhangj/scratch/ch_1c_para_c2/ch_1c_para_c2.log
 Initial command:
 /jet/home/xzhangj/programs/g16/l1.exe "/ocean/projects/che220035p/xzhangj/scratch/ch_1c_para_c2/Gau-65660.inp" -scrdir="/ocean/projects/che220035p/xzhangj/scratch/ch_1c_para_c2/"
 Entering Link 1 = /jet/home/xzhangj/programs/g16/l1.exe PID=     65662.
  
 Copyright (c) 1988-2017, Gaussian, Inc.  All Rights Reserved.
  
 This is part of the Gaussian(R) 16 program.  It is based on
 the Gaussian(R) 09 system (copyright 2009, Gaussian, Inc.),
 the Gaussian(R) 03 system (copyright 2003, Gaussian, Inc.),
 the Gaussian(R) 98 system (copyright 1998, Gaussian, Inc.),
 the Gaussian(R) 94 system (copyright 1995, Gaussian, Inc.),
 the Gaussian 92(TM) system (copyright 1992, Gaussian, Inc.),
 the Gaussian 90(TM) system (copyright 1990, Gaussian, Inc.),
 the Gaussian 88(TM) system (copyright 1988, Gaussian, Inc.),
 the Gaussian 86(TM) system (copyright 1986, Carnegie Mellon
 University), and the Gaussian 82(TM) system (copyright 1983,
 Carnegie Mellon University). Gaussian is a federally registered
 trademark of Gaussian, Inc.
  
 This software contains proprietary and confidential information,
 including trade secrets, belonging to Gaussian, Inc.
  
 This software is provided under written license and may be
 used, copied, transmitted, or stored only in accord with that
 written license.
  
 The following legend is applicable only to US Government
 contracts under FAR:
  
                    RESTRICTED RIGHTS LEGEND
  
 Use, reproduction and disclosure by the US Government is
 subject to restrictions as set forth in subparagraphs (a)
 and (c) of the Commercial Computer Software - Restricted
 Rights clause in FAR 52.227-19.
  
 Gaussian, Inc.
 340 Quinnipiac St., Bldg. 40, Wallingford CT 06492
  
  
 ---------------------------------------------------------------
 Warning -- This program may not be used in any manner that
 competes with the business of Gaussian, Inc. or will provide
 assistance to any competitor of Gaussian, Inc.  The licensee
 of this program is prohibited from giving any competitor of
 Gaussian, Inc. access to this program.  By using this program,
 the user acknowledges that Gaussian, Inc. is engaged in the
 business of creating and licensing software in the field of
 computational chemistry and represents and warrants to the
 licensee that it is not a competitor of Gaussian, Inc. and that
 it will not use this program in any manner prohibited above.
 ---------------------------------------------------------------
  

 Cite this work as:
 Gaussian 16, Revision B.01,
 M. J. Frisch, G. W. Trucks, H. B. Schlegel, G. E. Scuseria, 
 M. A. Robb, J. R. Cheeseman, G. Scalmani, V. Barone, 
 G. A. Petersson, H. Nakatsuji, X. Li, M. Caricato, A. V. Marenich, 
 J. Bloino, B. G. Janesko, R. Gomperts, B. Mennucci, H. P. Hratchian, 
 J. V. Ortiz, A. F. Izmaylov, J. L. Sonnenberg, D. Williams-Young, 
 F. Ding, F. Lipparini, F. Egidi, J. Goings, B. Peng, A. Petrone, 
 T. Henderson, D. Ranasinghe, V. G. Zakrzewski, J. Gao, N. Rega, 
 G. Zheng, W. Liang, M. Hada, M. Ehara, K. Toyota, R. Fukuda, 
 J. Hasegawa, M. Ishida, T. Nakajima, Y. Honda, O. Kitao, H. Nakai, 
 T. Vreven, K. Throssell, J. A. Montgomery, Jr., J. E. Peralta, 
 F. Ogliaro, M. J. Bearpark, J. J. Heyd, E. N. Brothers, K. N. Kudin, 
 V. N. Staroverov, T. A. Keith, R. Kobayashi, J. Normand, 
 K. Raghavachari, A. P. Rendell, J. C. Burant, S. S. Iyengar, 
 J. Tomasi, M. Cossi, J. M. Millam, M. Klene, C. Adamo, R. Cammi, 
 J. W. Ochterski, R. L. Martin, K. Morokuma, O. Farkas, 
 J. B. Foresman, and D. J. Fox, Gaussian, Inc., Wallingford CT, 2016.
 
 ******************************************
 Gaussian 16:  ES64L-G16RevB.01 20-Dec-2017
                 8-Nov-2023 
 ******************************************
 %chk=ch_1c_para_c2.chk
 %nprocshared=64
 Will use up to   64 processors via shared memory.
 %mem=32GB
 ---------------------------------------------------------
 # opt=(ts,calcfc,noeigentest,maxstep=10) freq mn15 genecp
 ---------------------------------------------------------
 1/5=1,8=10,10=4,11=1,18=20,26=3,38=1/1,3;
 2/9=110,12=2,17=6,18=5,40=1/2;
 3/5=7,11=2,16=1,17=8,25=1,30=1,71=2,74=-73,140=1/1,2,3;
 4//1;
 5/5=2,38=5/2;
 8/6=4,10=90,11=11/1;
 11/6=1,8=1,9=11,15=111,16=1/1,2,10;
 10/6=1,13=1/2;
 6/7=2,8=2,9=2,10=2,28=1/1;
 7/10=1,18=20,25=1/1,2,3,16;
 1/5=1,8=10,10=4,11=1,18=20,26=3/3(2);
 2/9=110/2;
 99//99;
 2/9=110/2;
 3/5=7,6=1,11=2,16=1,17=8,25=1,30=1,71=1,74=-73,82=7/1,2,3;
 4/5=5,16=3,69=1/1;
 5/5=2,38=5/2;
 7//1,2,3,16;
 1/5=1,8=10,11=1,18=20,26=3/3(-5);
 2/9=110/2;
 6/7=2,8=2,9=2,10=2,19=2,28=1/1;
 99/9=1/99;
 ------------
 Gaussian job
 ------------
 Symbolic Z-matrix:
 Charge =  0 Multiplicity = 1
 C                     3.7177   -1.2371   -0.11941 
 C                     4.42827  -2.43385  -0.03441 
 C                     5.54068  -2.66433  -0.81818 
 C                     5.9619   -1.69117  -1.71037 
 C                     5.29423  -0.48514  -1.77993 
 C                     4.1799   -0.23336  -0.98225 
 H                     4.06889  -3.20053   0.6362 
 H                     6.06862  -3.60189  -0.74229 
 H                     6.82077  -1.86534  -2.33991 
 H                     5.61935   0.29398  -2.45147 
 C                     2.47881  -1.11054   0.65987 
 C                     2.42147  -1.34356   2.03432 
 C                     1.26374  -0.79634   0.04903 
 H                     3.30643  -1.59372   2.60433 
 H                     1.1967   -0.66457  -1.02621 
 C                     0.20124  -0.93069   2.06193 
 H                    -0.72538  -0.85818   2.63276 
 O                     3.60874   1.00239  -1.12677 
 C                     3.28087   1.75839   0.03072 
 H                     3.71456   1.30226   0.92846 
 H                     3.75347   2.74104  -0.11037 
 C                     1.79446   1.94654   0.20547 
 C                     0.96089   1.95452  -0.90523 
 C                     1.24656   2.10546   1.47744 
 C                    -0.42221   2.02093  -0.74389 
 H                     1.4041    1.88344  -1.88907 
 C                    -0.12604   2.16185   1.64284 
 H                     1.90303   2.15105   2.3361 
 C                    -1.00126   2.10255   0.54405 
 H                    -1.05141   2.13356  -1.63075 
 H                    -2.27734   2.40496   0.62909 
 N                     1.28766  -1.27251   2.71339 
 N                     0.14355  -0.66823   0.75375 
 Pd                   -1.60025   0.05783   0.08896 
 O                    -3.84986  -2.94866  -1.25603 
 O                    -2.2294   -1.81775  -0.28076 
 O                    -3.58637   2.57885   0.47999 
 N                    -3.45591   0.54155  -0.481 
 C                    -4.09026  -0.56427  -1.17901 
 C                    -3.35442  -1.90246  -0.89642 
 C                    -4.11957   1.61797  -0.14421 
 C                    -5.57802   1.77233  -0.5228 
 H                    -5.13559  -0.6984   -0.87977 
 H                    -5.89637   2.77474  -0.25141 
 H                    -5.71299   1.62011  -1.59119 
 H                    -6.18663   1.04863   0.016 
 H                    -4.06692  -0.3989   -2.26635 
 H                    -0.53276   2.27787   2.63982 
 
 Add virtual bond connecting atoms H31        and C29        Dist= 2.48D+00.
 Add virtual bond connecting atoms H31        and O37        Dist= 2.51D+00.

 GradGradGradGradGradGradGradGradGradGradGradGradGradGradGradGradGradGrad
 Berny optimization.
 Initialization pass.
                           ----------------------------
                           !    Initial Parameters    !
                           ! (Angstroms and Degrees)  !
 --------------------------                            --------------------------
 ! Name  Definition              Value          Derivative Info.                !
 --------------------------------------------------------------------------------
 ! R1    R(1,2)                  1.3944         calculate D2E/DX2 analytically  !
 ! R2    R(1,6)                  1.402          calculate D2E/DX2 analytically  !
 ! R3    R(1,11)                 1.4691         calculate D2E/DX2 analytically  !
 ! R4    R(2,3)                  1.3802         calculate D2E/DX2 analytically  !
 ! R5    R(2,7)                  1.0801         calculate D2E/DX2 analytically  !
 ! R6    R(3,4)                  1.3858         calculate D2E/DX2 analytically  !
 ! R7    R(3,8)                  1.0787         calculate D2E/DX2 analytically  !
 ! R8    R(4,5)                  1.3803         calculate D2E/DX2 analytically  !
 ! R9    R(4,9)                  1.079          calculate D2E/DX2 analytically  !
 ! R10   R(5,6)                  1.3934         calculate D2E/DX2 analytically  !
 ! R11   R(5,10)                 1.0788         calculate D2E/DX2 analytically  !
 ! R12   R(6,18)                 1.369          calculate D2E/DX2 analytically  !
 ! R13   R(11,12)                1.3952         calculate D2E/DX2 analytically  !
 ! R14   R(11,13)                1.3958         calculate D2E/DX2 analytically  !
 ! R15   R(12,14)                1.082          calculate D2E/DX2 analytically  !
 ! R16   R(12,32)                1.3235         calculate D2E/DX2 analytically  !
 ! R17   R(13,15)                1.0854         calculate D2E/DX2 analytically  !
 ! R18   R(13,33)                1.3296         calculate D2E/DX2 analytically  !
 ! R19   R(16,17)                1.0907         calculate D2E/DX2 analytically  !
 ! R20   R(16,32)                1.3121         calculate D2E/DX2 analytically  !
 ! R21   R(16,33)                1.3355         calculate D2E/DX2 analytically  !
 ! R22   R(18,19)                1.4209         calculate D2E/DX2 analytically  !
 ! R23   R(19,20)                1.0964         calculate D2E/DX2 analytically  !
 ! R24   R(19,21)                1.0995         calculate D2E/DX2 analytically  !
 ! R25   R(19,22)                1.5084         calculate D2E/DX2 analytically  !
 ! R26   R(22,23)                1.3887         calculate D2E/DX2 analytically  !
 ! R27   R(22,24)                1.394          calculate D2E/DX2 analytically  !
 ! R28   R(23,25)                1.3941         calculate D2E/DX2 analytically  !
 ! R29   R(23,26)                1.0814         calculate D2E/DX2 analytically  !
 ! R30   R(24,27)                1.3837         calculate D2E/DX2 analytically  !
 ! R31   R(24,28)                1.0818         calculate D2E/DX2 analytically  !
 ! R32   R(25,29)                1.4145         calculate D2E/DX2 analytically  !
 ! R33   R(25,30)                1.0932         calculate D2E/DX2 analytically  !
 ! R34   R(25,34)                2.4362         calculate D2E/DX2 analytically  !
 ! R35   R(27,29)                1.406          calculate D2E/DX2 analytically  !
 ! R36   R(27,48)                1.083          calculate D2E/DX2 analytically  !
 ! R37   R(29,31)                1.3142         calculate D2E/DX2 analytically  !
 ! R38   R(29,34)                2.1787         calculate D2E/DX2 analytically  !
 ! R39   R(31,37)                1.3289         calculate D2E/DX2 analytically  !
 ! R40   R(33,34)                2.0025         calculate D2E/DX2 analytically  !
 ! R41   R(34,36)                2.0125         calculate D2E/DX2 analytically  !
 ! R42   R(34,38)                2.0006         calculate D2E/DX2 analytically  !
 ! R43   R(35,40)                1.2122         calculate D2E/DX2 analytically  !
 ! R44   R(36,40)                1.2853         calculate D2E/DX2 analytically  !
 ! R45   R(37,41)                1.2638         calculate D2E/DX2 analytically  !
 ! R46   R(38,39)                1.4534         calculate D2E/DX2 analytically  !
 ! R47   R(38,41)                1.3086         calculate D2E/DX2 analytically  !
 ! R48   R(39,40)                1.5531         calculate D2E/DX2 analytically  !
 ! R49   R(39,43)                1.0956         calculate D2E/DX2 analytically  !
 ! R50   R(39,47)                1.1001         calculate D2E/DX2 analytically  !
 ! R51   R(41,42)                1.5147         calculate D2E/DX2 analytically  !
 ! R52   R(42,44)                1.0862         calculate D2E/DX2 analytically  !
 ! R53   R(42,45)                1.0876         calculate D2E/DX2 analytically  !
 ! R54   R(42,46)                1.0883         calculate D2E/DX2 analytically  !
 ! A1    A(2,1,6)              118.9457         calculate D2E/DX2 analytically  !
 ! A2    A(2,1,11)             118.1217         calculate D2E/DX2 analytically  !
 ! A3    A(6,1,11)             122.8745         calculate D2E/DX2 analytically  !
 ! A4    A(1,2,3)              121.294          calculate D2E/DX2 analytically  !
 ! A5    A(1,2,7)              118.5221         calculate D2E/DX2 analytically  !
 ! A6    A(3,2,7)              120.1463         calculate D2E/DX2 analytically  !
 ! A7    A(2,3,4)              119.5588         calculate D2E/DX2 analytically  !
 ! A8    A(2,3,8)              119.9793         calculate D2E/DX2 analytically  !
 ! A9    A(4,3,8)              120.4577         calculate D2E/DX2 analytically  !
 ! A10   A(3,4,5)              119.9346         calculate D2E/DX2 analytically  !
 ! A11   A(3,4,9)              120.2781         calculate D2E/DX2 analytically  !
 ! A12   A(5,4,9)              119.779          calculate D2E/DX2 analytically  !
 ! A13   A(4,5,6)              121.0574         calculate D2E/DX2 analytically  !
 ! A14   A(4,5,10)             121.1093         calculate D2E/DX2 analytically  !
 ! A15   A(6,5,10)             117.8331         calculate D2E/DX2 analytically  !
 ! A16   A(1,6,5)              119.1178         calculate D2E/DX2 analytically  !
 ! A17   A(1,6,18)             125.0071         calculate D2E/DX2 analytically  !
 ! A18   A(5,6,18)             115.8705         calculate D2E/DX2 analytically  !
 ! A19   A(1,11,12)            122.8763         calculate D2E/DX2 analytically  !
 ! A20   A(1,11,13)            121.4244         calculate D2E/DX2 analytically  !
 ! A21   A(12,11,13)           115.6536         calculate D2E/DX2 analytically  !
 ! A22   A(11,12,14)           121.6001         calculate D2E/DX2 analytically  !
 ! A23   A(11,12,32)           122.1186         calculate D2E/DX2 analytically  !
 ! A24   A(14,12,32)           116.2813         calculate D2E/DX2 analytically  !
 ! A25   A(11,13,15)           120.9745         calculate D2E/DX2 analytically  !
 ! A26   A(11,13,33)           121.5432         calculate D2E/DX2 analytically  !
 ! A27   A(15,13,33)           117.4737         calculate D2E/DX2 analytically  !
 ! A28   A(17,16,32)           117.4448         calculate D2E/DX2 analytically  !
 ! A29   A(17,16,33)           117.5729         calculate D2E/DX2 analytically  !
 ! A30   A(32,16,33)           124.982          calculate D2E/DX2 analytically  !
 ! A31   A(6,18,19)            119.3768         calculate D2E/DX2 analytically  !
 ! A32   A(18,19,20)           110.7574         calculate D2E/DX2 analytically  !
 ! A33   A(18,19,21)           105.7719         calculate D2E/DX2 analytically  !
 ! A34   A(18,19,22)           112.838          calculate D2E/DX2 analytically  !
 ! A35   A(20,19,21)           107.8705         calculate D2E/DX2 analytically  !
 ! A36   A(20,19,22)           110.293          calculate D2E/DX2 analytically  !
 ! A37   A(21,19,22)           109.084          calculate D2E/DX2 analytically  !
 ! A38   A(19,22,23)           119.9695         calculate D2E/DX2 analytically  !
 ! A39   A(19,22,24)           120.4789         calculate D2E/DX2 analytically  !
 ! A40   A(23,22,24)           119.5505         calculate D2E/DX2 analytically  !
 ! A41   A(22,23,25)           120.2139         calculate D2E/DX2 analytically  !
 ! A42   A(22,23,26)           118.7673         calculate D2E/DX2 analytically  !
 ! A43   A(25,23,26)           121.0012         calculate D2E/DX2 analytically  !
 ! A44   A(22,24,27)           120.2385         calculate D2E/DX2 analytically  !
 ! A45   A(22,24,28)           119.3743         calculate D2E/DX2 analytically  !
 ! A46   A(27,24,28)           120.356          calculate D2E/DX2 analytically  !
 ! A47   A(23,25,29)           120.9497         calculate D2E/DX2 analytically  !
 ! A48   A(23,25,30)           118.8197         calculate D2E/DX2 analytically  !
 ! A49   A(23,25,34)           118.7458         calculate D2E/DX2 analytically  !
 ! A50   A(29,25,30)           119.8087         calculate D2E/DX2 analytically  !
 ! A51   A(30,25,34)            94.7052         calculate D2E/DX2 analytically  !
 ! A52   A(24,27,29)           121.4912         calculate D2E/DX2 analytically  !
 ! A53   A(24,27,48)           119.1411         calculate D2E/DX2 analytically  !
 ! A54   A(29,27,48)           119.3516         calculate D2E/DX2 analytically  !
 ! A55   A(25,29,27)           117.3346         calculate D2E/DX2 analytically  !
 ! A56   A(25,29,31)           118.015          calculate D2E/DX2 analytically  !
 ! A57   A(27,29,31)           122.9677         calculate D2E/DX2 analytically  !
 ! A58   A(27,29,34)           111.9603         calculate D2E/DX2 analytically  !
 ! A59   A(31,29,34)            87.852          calculate D2E/DX2 analytically  !
 ! A60   A(12,32,16)           117.9409         calculate D2E/DX2 analytically  !
 ! A61   A(13,33,16)           117.6363         calculate D2E/DX2 analytically  !
 ! A62   A(13,33,34)           126.3441         calculate D2E/DX2 analytically  !
 ! A63   A(16,33,34)           115.7256         calculate D2E/DX2 analytically  !
 ! A64   A(25,34,33)            89.116          calculate D2E/DX2 analytically  !
 ! A65   A(25,34,36)           147.0687         calculate D2E/DX2 analytically  !
 ! A66   A(25,34,38)            98.992          calculate D2E/DX2 analytically  !
 ! A67   A(29,34,33)            91.8063         calculate D2E/DX2 analytically  !
 ! A68   A(29,34,38)            95.0258         calculate D2E/DX2 analytically  !
 ! A69   A(33,34,36)            89.7315         calculate D2E/DX2 analytically  !
 ! A70   A(36,34,38)            83.2826         calculate D2E/DX2 analytically  !
 ! A71   A(34,36,40)           115.0282         calculate D2E/DX2 analytically  !
 ! A72   A(31,37,41)           111.8087         calculate D2E/DX2 analytically  !
 ! A73   A(34,38,39)           110.9587         calculate D2E/DX2 analytically  !
 ! A74   A(34,38,41)           126.5809         calculate D2E/DX2 analytically  !
 ! A75   A(39,38,41)           121.876          calculate D2E/DX2 analytically  !
 ! A76   A(38,39,40)           111.1854         calculate D2E/DX2 analytically  !
 ! A77   A(38,39,43)           112.2355         calculate D2E/DX2 analytically  !
 ! A78   A(38,39,47)           110.5513         calculate D2E/DX2 analytically  !
 ! A79   A(40,39,43)           107.2705         calculate D2E/DX2 analytically  !
 ! A80   A(40,39,47)           107.4169         calculate D2E/DX2 analytically  !
 ! A81   A(43,39,47)           107.9765         calculate D2E/DX2 analytically  !
 ! A82   A(35,40,36)           123.8326         calculate D2E/DX2 analytically  !
 ! A83   A(35,40,39)           119.7378         calculate D2E/DX2 analytically  !
 ! A84   A(36,40,39)           116.4295         calculate D2E/DX2 analytically  !
 ! A85   A(37,41,38)           122.5845         calculate D2E/DX2 analytically  !
 ! A86   A(37,41,42)           116.885          calculate D2E/DX2 analytically  !
 ! A87   A(38,41,42)           120.5179         calculate D2E/DX2 analytically  !
 ! A88   A(41,42,44)           108.2886         calculate D2E/DX2 analytically  !
 ! A89   A(41,42,45)           110.5342         calculate D2E/DX2 analytically  !
 ! A90   A(41,42,46)           110.301          calculate D2E/DX2 analytically  !
 ! A91   A(44,42,45)           109.7693         calculate D2E/DX2 analytically  !
 ! A92   A(44,42,46)           109.0307         calculate D2E/DX2 analytically  !
 ! A93   A(45,42,46)           108.8972         calculate D2E/DX2 analytically  !
 ! A94   L(29,31,37,35,-1)     171.3151         calculate D2E/DX2 analytically  !
 ! A95   L(29,34,36,38,-1)     178.3084         calculate D2E/DX2 analytically  !
 ! A96   L(33,34,38,25,-1)     188.108          calculate D2E/DX2 analytically  !
 ! A97   L(29,31,37,35,-2)     187.8469         calculate D2E/DX2 analytically  !
 ! A98   L(29,34,36,38,-2)     182.0166         calculate D2E/DX2 analytically  !
 ! A99   L(33,34,38,25,-2)     179.6573         calculate D2E/DX2 analytically  !
 ! D1    D(6,1,2,3)             -2.5315         calculate D2E/DX2 analytically  !
 ! D2    D(6,1,2,7)            179.6953         calculate D2E/DX2 analytically  !
 ! D3    D(11,1,2,3)           174.7746         calculate D2E/DX2 analytically  !
 ! D4    D(11,1,2,7)            -2.9985         calculate D2E/DX2 analytically  !
 ! D5    D(2,1,6,5)              3.2709         calculate D2E/DX2 analytically  !
 ! D6    D(2,1,6,18)          -177.5467         calculate D2E/DX2 analytically  !
 ! D7    D(11,1,6,5)          -173.9001         calculate D2E/DX2 analytically  !
 ! D8    D(11,1,6,18)            5.2823         calculate D2E/DX2 analytically  !
 ! D9    D(2,1,11,12)           53.7191         calculate D2E/DX2 analytically  !
 ! D10   D(2,1,11,13)         -123.7143         calculate D2E/DX2 analytically  !
 ! D11   D(6,1,11,12)         -129.0878         calculate D2E/DX2 analytically  !
 ! D12   D(6,1,11,13)           53.4787         calculate D2E/DX2 analytically  !
 ! D13   D(1,2,3,4)             -0.1245         calculate D2E/DX2 analytically  !
 ! D14   D(1,2,3,8)           -179.3793         calculate D2E/DX2 analytically  !
 ! D15   D(7,2,3,4)            177.6129         calculate D2E/DX2 analytically  !
 ! D16   D(7,2,3,8)             -1.6419         calculate D2E/DX2 analytically  !
 ! D17   D(2,3,4,5)              2.0214         calculate D2E/DX2 analytically  !
 ! D18   D(2,3,4,9)           -179.0284         calculate D2E/DX2 analytically  !
 ! D19   D(8,3,4,5)           -178.7274         calculate D2E/DX2 analytically  !
 ! D20   D(8,3,4,9)              0.2228         calculate D2E/DX2 analytically  !
 ! D21   D(3,4,5,6)             -1.2368         calculate D2E/DX2 analytically  !
 ! D22   D(3,4,5,10)           178.6044         calculate D2E/DX2 analytically  !
 ! D23   D(9,4,5,6)            179.8078         calculate D2E/DX2 analytically  !
 ! D24   D(9,4,5,10)            -0.3511         calculate D2E/DX2 analytically  !
 ! D25   D(4,5,6,1)             -1.4368         calculate D2E/DX2 analytically  !
 ! D26   D(4,5,6,18)           179.3075         calculate D2E/DX2 analytically  !
 ! D27   D(10,5,6,1)           178.717          calculate D2E/DX2 analytically  !
 ! D28   D(10,5,6,18)           -0.5388         calculate D2E/DX2 analytically  !
 ! D29   D(1,6,18,19)           47.9652         calculate D2E/DX2 analytically  !
 ! D30   D(5,6,18,19)         -132.8287         calculate D2E/DX2 analytically  !
 ! D31   D(1,11,12,14)           2.4761         calculate D2E/DX2 analytically  !
 ! D32   D(1,11,12,32)        -177.4948         calculate D2E/DX2 analytically  !
 ! D33   D(13,11,12,14)       -179.9534         calculate D2E/DX2 analytically  !
 ! D34   D(13,11,12,32)          0.0757         calculate D2E/DX2 analytically  !
 ! D35   D(1,11,13,15)           1.7704         calculate D2E/DX2 analytically  !
 ! D36   D(1,11,13,33)        -179.3259         calculate D2E/DX2 analytically  !
 ! D37   D(12,11,13,15)       -175.8385         calculate D2E/DX2 analytically  !
 ! D38   D(12,11,13,33)          3.0652         calculate D2E/DX2 analytically  !
 ! D39   D(11,12,32,16)         -2.1057         calculate D2E/DX2 analytically  !
 ! D40   D(14,12,32,16)        177.922          calculate D2E/DX2 analytically  !
 ! D41   D(11,13,33,16)         -3.9913         calculate D2E/DX2 analytically  !
 ! D42   D(11,13,33,34)        169.4873         calculate D2E/DX2 analytically  !
 ! D43   D(15,13,33,16)        174.9493         calculate D2E/DX2 analytically  !
 ! D44   D(15,13,33,34)        -11.5721         calculate D2E/DX2 analytically  !
 ! D45   D(17,16,32,12)       -178.9873         calculate D2E/DX2 analytically  !
 ! D46   D(33,16,32,12)          1.1814         calculate D2E/DX2 analytically  !
 ! D47   D(17,16,33,13)       -177.97           calculate D2E/DX2 analytically  !
 ! D48   D(17,16,33,34)          7.8582         calculate D2E/DX2 analytically  !
 ! D49   D(32,16,33,13)          1.861          calculate D2E/DX2 analytically  !
 ! D50   D(32,16,33,34)       -172.3108         calculate D2E/DX2 analytically  !
 ! D51   D(6,18,19,20)          10.6328         calculate D2E/DX2 analytically  !
 ! D52   D(6,18,19,21)         127.2517         calculate D2E/DX2 analytically  !
 ! D53   D(6,18,19,22)        -113.5658         calculate D2E/DX2 analytically  !
 ! D54   D(18,19,22,23)        -28.1602         calculate D2E/DX2 analytically  !
 ! D55   D(18,19,22,24)        151.4681         calculate D2E/DX2 analytically  !
 ! D56   D(20,19,22,23)       -152.6134         calculate D2E/DX2 analytically  !
 ! D57   D(20,19,22,24)         27.0149         calculate D2E/DX2 analytically  !
 ! D58   D(21,19,22,23)         89.0839         calculate D2E/DX2 analytically  !
 ! D59   D(21,19,22,24)        -91.2878         calculate D2E/DX2 analytically  !
 ! D60   D(19,22,23,25)        174.8818         calculate D2E/DX2 analytically  !
 ! D61   D(19,22,23,26)         -3.605          calculate D2E/DX2 analytically  !
 ! D62   D(24,22,23,25)         -4.75           calculate D2E/DX2 analytically  !
 ! D63   D(24,22,23,26)        176.7632         calculate D2E/DX2 analytically  !
 ! D64   D(19,22,24,27)       -174.4062         calculate D2E/DX2 analytically  !
 ! D65   D(19,22,24,28)          3.57           calculate D2E/DX2 analytically  !
 ! D66   D(23,22,24,27)          5.2237         calculate D2E/DX2 analytically  !
 ! D67   D(23,22,24,28)       -176.8001         calculate D2E/DX2 analytically  !
 ! D68   D(22,23,25,29)          1.0109         calculate D2E/DX2 analytically  !
 ! D69   D(22,23,25,30)        173.5415         calculate D2E/DX2 analytically  !
 ! D70   D(22,23,25,34)        -72.3426         calculate D2E/DX2 analytically  !
 ! D71   D(26,23,25,29)        179.4634         calculate D2E/DX2 analytically  !
 ! D72   D(26,23,25,30)         -8.0061         calculate D2E/DX2 analytically  !
 ! D73   D(26,23,25,34)        106.1099         calculate D2E/DX2 analytically  !
 ! D74   D(22,24,27,29)         -1.9447         calculate D2E/DX2 analytically  !
 ! D75   D(22,24,27,48)        179.523          calculate D2E/DX2 analytically  !
 ! D76   D(28,24,27,29)       -179.9009         calculate D2E/DX2 analytically  !
 ! D77   D(28,24,27,48)          1.5668         calculate D2E/DX2 analytically  !
 ! D78   D(23,25,29,27)          2.2156         calculate D2E/DX2 analytically  !
 ! D79   D(23,25,29,31)        167.8854         calculate D2E/DX2 analytically  !
 ! D80   D(30,25,29,27)       -170.2417         calculate D2E/DX2 analytically  !
 ! D81   D(30,25,29,31)         -4.5719         calculate D2E/DX2 analytically  !
 ! D82   D(23,25,34,33)         17.6474         calculate D2E/DX2 analytically  !
 ! D83   D(23,25,34,36)        -70.4933         calculate D2E/DX2 analytically  !
 ! D84   D(23,25,34,38)       -162.0098         calculate D2E/DX2 analytically  !
 ! D85   D(30,25,34,33)        144.2899         calculate D2E/DX2 analytically  !
 ! D86   D(30,25,34,36)         56.1491         calculate D2E/DX2 analytically  !
 ! D87   D(30,25,34,38)        -35.3674         calculate D2E/DX2 analytically  !
 ! D88   D(24,27,29,25)         -1.7509         calculate D2E/DX2 analytically  !
 ! D89   D(24,27,29,31)       -166.6545         calculate D2E/DX2 analytically  !
 ! D90   D(24,27,29,34)         91.0261         calculate D2E/DX2 analytically  !
 ! D91   D(48,27,29,25)        176.7783         calculate D2E/DX2 analytically  !
 ! D92   D(48,27,29,31)         11.8748         calculate D2E/DX2 analytically  !
 ! D93   D(48,27,29,34)        -90.4446         calculate D2E/DX2 analytically  !
 ! D94   D(27,29,36,40)        155.3074         calculate D2E/DX2 analytically  !
 ! D95   D(31,29,36,40)         30.894          calculate D2E/DX2 analytically  !
 ! D96   D(25,29,37,41)         60.5056         calculate D2E/DX2 analytically  !
 ! D97   D(27,29,37,41)       -131.9586         calculate D2E/DX2 analytically  !
 ! D98   D(34,29,37,41)        -18.6015         calculate D2E/DX2 analytically  !
 ! D99   D(27,29,34,33)        -30.5857         calculate D2E/DX2 analytically  !
 ! D100  D(27,29,34,38)        145.0309         calculate D2E/DX2 analytically  !
 ! D101  D(31,29,34,33)       -155.4773         calculate D2E/DX2 analytically  !
 ! D102  D(31,29,34,38)         20.1392         calculate D2E/DX2 analytically  !
 ! D103  D(13,33,34,25)        -51.46           calculate D2E/DX2 analytically  !
 ! D104  D(13,33,34,29)        -86.4986         calculate D2E/DX2 analytically  !
 ! D105  D(13,33,34,36)         95.6278         calculate D2E/DX2 analytically  !
 ! D106  D(16,33,34,25)        122.1274         calculate D2E/DX2 analytically  !
 ! D107  D(16,33,34,29)         87.0888         calculate D2E/DX2 analytically  !
 ! D108  D(16,33,34,36)        -90.7847         calculate D2E/DX2 analytically  !
 ! D109  D(13,33,38,39)         77.9656         calculate D2E/DX2 analytically  !
 ! D110  D(13,33,38,41)       -114.3998         calculate D2E/DX2 analytically  !
 ! D111  D(16,33,38,39)       -104.2849         calculate D2E/DX2 analytically  !
 ! D112  D(16,33,38,41)         63.3498         calculate D2E/DX2 analytically  !
 ! D113  D(25,34,36,40)        -85.0543         calculate D2E/DX2 analytically  !
 ! D114  D(33,34,36,40)       -173.0132         calculate D2E/DX2 analytically  !
 ! D115  D(38,34,36,40)         11.1254         calculate D2E/DX2 analytically  !
 ! D116  D(25,34,38,39)        130.9111         calculate D2E/DX2 analytically  !
 ! D117  D(25,34,38,41)        -57.7917         calculate D2E/DX2 analytically  !
 ! D118  D(29,34,38,39)        166.1027         calculate D2E/DX2 analytically  !
 ! D119  D(29,34,38,41)        -22.6            calculate D2E/DX2 analytically  !
 ! D120  D(36,34,38,39)        -15.9139         calculate D2E/DX2 analytically  !
 ! D121  D(36,34,38,41)        155.3834         calculate D2E/DX2 analytically  !
 ! D122  D(34,36,40,35)        176.279          calculate D2E/DX2 analytically  !
 ! D123  D(34,36,40,39)         -3.6436         calculate D2E/DX2 analytically  !
 ! D124  D(31,37,41,38)          5.7415         calculate D2E/DX2 analytically  !
 ! D125  D(31,37,41,42)       -172.9678         calculate D2E/DX2 analytically  !
 ! D126  D(34,38,39,40)         17.8278         calculate D2E/DX2 analytically  !
 ! D127  D(34,38,39,43)        137.9887         calculate D2E/DX2 analytically  !
 ! D128  D(34,38,39,47)       -101.3908         calculate D2E/DX2 analytically  !
 ! D129  D(41,38,39,40)       -153.9461         calculate D2E/DX2 analytically  !
 ! D130  D(41,38,39,43)        -33.7852         calculate D2E/DX2 analytically  !
 ! D131  D(41,38,39,47)         86.8354         calculate D2E/DX2 analytically  !
 ! D132  D(34,38,41,37)          8.5159         calculate D2E/DX2 analytically  !
 ! D133  D(34,38,41,42)       -172.8204         calculate D2E/DX2 analytically  !
 ! D134  D(39,38,41,37)        178.9379         calculate D2E/DX2 analytically  !
 ! D135  D(39,38,41,42)         -2.3984         calculate D2E/DX2 analytically  !
 ! D136  D(38,39,40,35)        170.3982         calculate D2E/DX2 analytically  !
 ! D137  D(38,39,40,36)         -9.6758         calculate D2E/DX2 analytically  !
 ! D138  D(43,39,40,35)         47.3392         calculate D2E/DX2 analytically  !
 ! D139  D(43,39,40,36)       -132.7349         calculate D2E/DX2 analytically  !
 ! D140  D(47,39,40,35)        -68.5263         calculate D2E/DX2 analytically  !
 ! D141  D(47,39,40,36)        111.3997         calculate D2E/DX2 analytically  !
 ! D142  D(37,41,42,44)          5.2484         calculate D2E/DX2 analytically  !
 ! D143  D(37,41,42,45)        125.526          calculate D2E/DX2 analytically  !
 ! D144  D(37,41,42,46)       -113.9889         calculate D2E/DX2 analytically  !
 ! D145  D(38,41,42,44)       -173.4892         calculate D2E/DX2 analytically  !
 ! D146  D(38,41,42,45)        -53.2115         calculate D2E/DX2 analytically  !
 ! D147  D(38,41,42,46)         67.2735         calculate D2E/DX2 analytically  !
 --------------------------------------------------------------------------------
 Trust Radius=1.00D-01 FncErr=1.00D-07 GrdErr=1.00D-06 EigMax=2.50D+02 EigMin=1.00D-04
 Number of steps in this run=    288 maximum allowed number of steps=    288.
 Search for a saddle point of order  1.
 GradGradGradGradGradGradGradGradGradGradGradGradGradGradGradGradGradGrad

                          Input orientation:                          
 ---------------------------------------------------------------------
 Center     Atomic      Atomic             Coordinates (Angstroms)
 Number     Number       Type             X           Y           Z
 ---------------------------------------------------------------------
      1          6           0        3.717704   -1.237096   -0.119410
      2          6           0        4.428268   -2.433852   -0.034412
      3          6           0        5.540679   -2.664331   -0.818180
      4          6           0        5.961897   -1.691173   -1.710365
      5          6           0        5.294235   -0.485144   -1.779934
      6          6           0        4.179895   -0.233355   -0.982246
      7          1           0        4.068895   -3.200531    0.636202
      8          1           0        6.068620   -3.601885   -0.742290
      9          1           0        6.820774   -1.865343   -2.339910
     10          1           0        5.619350    0.293984   -2.451472
     11          6           0        2.478813   -1.110537    0.659873
     12          6           0        2.421474   -1.343558    2.034317
     13          6           0        1.263742   -0.796342    0.049027
     14          1           0        3.306426   -1.593718    2.604333
     15          1           0        1.196696   -0.664575   -1.026214
     16          6           0        0.201238   -0.930685    2.061930
     17          1           0       -0.725376   -0.858179    2.632756
     18          8           0        3.608736    1.002394   -1.126771
     19          6           0        3.280873    1.758391    0.030723
     20          1           0        3.714564    1.302264    0.928462
     21          1           0        3.753470    2.741038   -0.110368
     22          6           0        1.794463    1.946540    0.205475
     23          6           0        0.960889    1.954518   -0.905232
     24          6           0        1.246557    2.105462    1.477440
     25          6           0       -0.422206    2.020934   -0.743890
     26          1           0        1.404104    1.883435   -1.889071
     27          6           0       -0.126035    2.161855    1.642838
     28          1           0        1.903031    2.151051    2.336098
     29          6           0       -1.001256    2.102553    0.544054
     30          1           0       -1.051415    2.133555   -1.630746
     31          1           0       -2.277338    2.404963    0.629094
     32          7           0        1.287656   -1.272513    2.713393
     33          7           0        0.143554   -0.668231    0.753752
     34         46           0       -1.600249    0.057830    0.088958
     35          8           0       -3.849855   -2.948657   -1.256033
     36          8           0       -2.229398   -1.817746   -0.280759
     37          8           0       -3.586372    2.578850    0.479994
     38          7           0       -3.455912    0.541548   -0.481003
     39          6           0       -4.090263   -0.564272   -1.179009
     40          6           0       -3.354417   -1.902458   -0.896417
     41          6           0       -4.119566    1.617969   -0.144211
     42          6           0       -5.578022    1.772330   -0.522798
     43          1           0       -5.135588   -0.698402   -0.879765
     44          1           0       -5.896369    2.774736   -0.251406
     45          1           0       -5.712993    1.620115   -1.591190
     46          1           0       -6.186632    1.048632    0.016004
     47          1           0       -4.066921   -0.398897   -2.266353
     48          1           0       -0.532761    2.277869    2.639820
 ---------------------------------------------------------------------
                    Distance matrix (angstroms):
                    1          2          3          4          5
     1  C    0.000000
     2  C    1.394400   0.000000
     3  C    2.418371   1.380171   0.000000
     4  C    2.788140   2.390065   1.385805   0.000000
     5  C    2.410025   2.755759   2.394694   1.380260   0.000000
     6  C    1.401999   2.408788   2.790751   2.414729   1.393361
     7  H    2.132924   1.080125   2.137496   3.371647   3.835688
     8  H    3.392199   2.134514   1.078651   2.144617   3.374974
     9  H    3.867086   3.370846   2.143055   1.079042   2.132802
    10  H    3.376237   3.834311   3.380157   2.146491   1.078751
    11  C    1.469064   2.456332   3.738173   4.252886   3.777614
    12  C    2.515967   3.081493   4.428388   5.165082   4.851612
    13  C    2.498913   3.564074   4.746959   5.095963   4.436982
    14  H    2.777609   2.987864   4.225127   5.067312   4.939851
    15  H    2.739626   3.815372   4.786699   4.922306   4.170145
    16  C    4.149418   4.951964   6.309532   6.927752   6.395080
    17  H    5.240129   6.013033   7.377980   8.017243   7.473065
    18  O    2.458041   3.697657   4.156021   3.623983   2.341004
    19  C    3.030892   4.346914   5.038634   4.703060   3.516470
    20  H    2.747070   3.923654   4.703119   4.579801   3.609100
    21  H    3.978305   5.219253   5.736996   5.204001   3.945841
    22  C    3.733623   5.116864   6.028444   5.854135   4.701419
    23  C    4.289982   5.660285   6.505061   6.240944   5.049251
    24  C    4.452998   5.745811   6.816178   6.841854   5.805637
    25  C    5.305053   6.623864   7.583748   7.447858   6.327046
    26  H    4.268742   5.587870   6.240211   5.795104   4.555787
    27  C    5.425193   6.683963   7.839664   7.946868   6.935510
    28  H    4.560931   5.746083   6.809541   6.900068   5.949076
    29  C    5.819109   7.098826   8.208276   8.243802   7.192379
    30  H    6.032406   7.310021   8.193636   7.988831   6.866376
    31  H    7.054459   8.295753   9.429408   9.494019   8.454872
    32  N    3.732448   4.331580   5.700647   6.449298   6.071459
    33  N    3.722979   4.700786   5.965262   6.400891   5.743048
    34  Pd   5.477305   6.524317   7.695837   7.967598   7.163901
    35  O    7.841512   8.383597   9.405035   9.902432   9.484606
    36  O    5.977559   6.690649   7.834515   8.316075   7.786424
    37  O    8.262582   9.467114  10.605625  10.686450   9.662325
    38  N    7.399669   8.438764   9.556673   9.756613   8.905413
    39  C    7.908210   8.796067   9.863847  10.129075   9.404050
    40  C    7.145722   7.848288   8.928007   9.354190   8.808437
    41  C    8.341152   9.460168  10.588327  10.725631   9.783574
    42  C    9.779053  10.865372  11.974836  12.106853  11.175085
    43  H    8.902197   9.756728  10.855936  11.172720  10.470768
    44  H   10.418379  11.566097  12.677174  12.755053  11.755545
    45  H    9.963325  11.031925  12.066447  12.135975  11.208336
    46  H   10.165568  11.171676  12.329306  12.572734  11.721270
    47  H    8.118641   9.016143   9.976741  10.127008   9.374181
    48  H    6.167235   7.345994   8.559777   8.766868   7.818078
                    6          7          8          9         10
     6  C    0.000000
     7  H    3.381690   0.000000
     8  H    3.869348   2.461753   0.000000
     9  H    3.388344   4.267647   2.476631   0.000000
    10  H    2.123379   4.914192   4.277960   2.473573   0.000000
    11  C    2.521841   2.626213   4.589073   5.331139   4.638546
    12  C    3.663912   2.849047   5.109918   6.225750   5.747196
    13  C    3.143951   3.740826   5.619974   6.142506   5.139321
    14  H    3.934093   2.652687   4.781458   6.072064   5.871474
    15  H    3.014525   4.176629   5.695968   5.898973   4.744477
    16  C    5.057964   4.705706   7.030302   8.004251   7.157273
    17  H    6.125384   5.697181   8.067047   9.093193   8.211723
    18  O    1.369010   4.580874   5.234333   4.473568   2.509830
    19  C    2.408610   5.057519   6.091112   5.593054   3.711369
    20  H    2.495089   4.526160   5.690665   5.510402   4.008590
    21  H    3.128742   5.996591   6.781734   5.966402   3.866568
    22  C    3.442806   5.643661   7.067651   6.802443   4.941666
    23  C    3.892907   6.213715   7.549111   7.140581   5.181649
    24  C    4.486045   6.068512   7.794441   7.836539   6.151351
    25  C    5.130105   7.024126   8.587603   8.373243   6.511420
    26  H    3.606681   6.270951   7.291197   6.602795   4.539928
    27  C    5.582933   6.882292   8.791092   8.963189   7.298066
    28  H    4.677704   6.018309   7.741116   7.885472   6.338813
    29  C    5.884760   7.337413   9.174882   9.232855   7.488426
    30  H    5.778358   7.733635   9.185833   8.858073   6.968265
    31  H    7.159121   8.467366  10.373907  10.479797   8.735205
    32  N    4.806522   3.970802   6.342346   7.516829   6.920500
    33  N    4.415299   4.672758   6.778708   7.455809   6.417450
    34  Pd   5.885774   6.561675   8.537918   8.972827   7.657164
    35  O    8.480844   8.145587   9.953231  10.780106  10.080161
    36  O    6.639384   6.513171   8.500192   9.281593   8.412743
    37  O    8.388180   9.593162  11.528849  11.662393   9.927710
    38  N    7.691377   8.477855  10.390045  10.717226   9.290017
    39  C    8.279115   8.764514  10.612291  11.049488   9.830175
    40  C    7.717457   7.690220   9.576296  10.277138   9.368621
    41  C    8.544634   9.532989  11.463146  11.689551  10.095686
    42  C    9.972503  10.914926  12.828664  13.048551  11.458028
    43  H    9.327648   9.658225  11.575120  12.101585  10.914385
    44  H   10.541055  11.653246  13.566991  13.697369  11.983581
    45  H   10.083422  11.130374  12.914965  13.030898  11.442059
    46  H   10.493088  11.118267  13.129872  13.536403  12.084666
    47  H    8.347833   9.081051  10.738301  10.986254   9.712785
    48  H    6.452499   7.429844   9.465116   9.799918   8.228336
                   11         12         13         14         15
    11  C    0.000000
    12  C    1.395237   0.000000
    13  C    1.395797   2.362449   0.000000
    14  H    2.167795   1.081960   3.367188   0.000000
    15  H    2.164623   3.365702   1.085358   4.300598   0.000000
    16  C    2.680571   2.258468   2.280075   3.221181   3.255517
    17  H    3.771310   3.239813   3.261298   4.098445   4.137620
    18  O    2.988862   4.111637   3.180715   4.555473   2.933740
    19  C    3.044647   3.791443   3.255121   4.226199   3.366255
    20  H    2.724119   3.145690   3.344261   3.370732   3.745514
    21  H    4.129485   4.801855   4.328649   5.134157   4.355923
    22  C    3.165522   3.816091   2.798131   4.535855   2.948271
    23  C    3.761410   4.653124   2.927381   5.514397   2.632468
    24  C    3.539706   3.685957   3.234366   4.381425   3.734150
    25  C    4.493615   5.208144   3.377600   6.178916   3.148414
    26  H    4.076270   5.180879   3.310156   5.991670   2.698128
    27  C    4.296511   4.350975   3.636295   5.177895   4.106356
    28  H    3.712035   3.545722   3.785037   4.008087   4.442049
    29  C    4.737958   5.080517   3.711989   6.038485   3.867006
    30  H    5.313528   6.130576   4.094617   7.128761   3.639917
    31  H    5.914445   6.172917   4.808751   7.146289   4.922502
    32  N    2.379504   1.323532   2.706687   2.047071   3.789792
    33  N    2.378631   2.699044   1.329613   3.779542   2.068188
    34  Pd   4.281328   4.682154   2.988921   5.755882   3.096511
    35  O    6.863048   7.261703   5.699519   8.243218   5.544144
    36  O    4.853059   5.216804   3.654320   6.246542   3.691020
    37  O    7.101437   7.341351   5.924632   8.332696   5.972120
    38  N    6.265138   6.665144   4.934169   7.733556   4.837226
    39  C    6.843439   7.303114   5.497936   8.371645   5.290118
    40  C    6.088987   6.500961   4.841979   7.531096   4.718245
    41  C    7.185395   7.503455   5.903071   8.544869   5.852400
    42  C    8.638415   8.957652   7.330402  10.002132   7.217253
    43  H    7.779425   8.125103   6.467123   9.176499   6.334068
    44  H    9.277362   9.558839   8.006875  10.579701   7.920907
    45  H    8.923533   9.386012   7.563360  10.453758   7.299508
    46  H    8.953576   9.159458   7.675487  10.188210   7.650806
    47  H    7.205267   7.841392   5.825369   8.917254   5.414259
    48  H    4.946824   4.712629   4.403453   5.452504   5.008872
                   16         17         18         19         20
    16  C    0.000000
    17  H    1.090739   0.000000
    18  O    5.051302   6.031608   0.000000
    19  C    4.565204   5.446746   1.420852   0.000000
    20  H    4.314426   5.223523   2.079689   1.096392   0.000000
    21  H    5.551467   6.367036   2.019135   1.099477   1.775036
    22  C    3.776668   4.484164   2.440876   1.508427   2.150486
    23  C    4.207793   4.824118   2.822536   2.509343   3.372032
    24  C    3.263819   3.742518   3.684910   2.520295   2.652841
    25  C    4.119875   4.447802   4.175226   3.792327   4.519526
    26  H    4.997657   5.700706   2.493539   2.687658   3.689780
    27  C    3.137921   3.234154   4.792035   3.790609   3.999929
    28  H    3.531057   4.006494   4.027443   2.714292   2.446125
    29  C    3.598677   3.633830   5.025339   4.326498   4.798666
    30  H    4.959291   5.218642   4.821879   4.655099   5.473130
    31  H    4.395783   4.131748   6.300486   5.627594   6.099874
    32  N    1.312079   2.056810   5.030852   4.511763   3.962996
    33  N    1.335493   2.078888   4.281920   4.031629   4.082338
    34  Pd   2.848708   2.841721   5.431733   5.169202   5.522737
    35  O    5.611813   5.408803   8.441451   8.640563   8.947781
    36  O    3.490424   3.416345   6.538557   6.576386   6.821097
    37  O    5.400496   4.963150   7.538998   6.930660   7.425259
    38  N    4.691347   4.371563   7.109054   6.864899   7.347177
    39  C    5.390262   5.092975   7.856956   7.822522   8.297031
    40  C    4.726399   4.522990   7.548293   7.634689   7.973138
    41  C    5.480150   5.036207   7.814794   7.403838   7.913526
    42  C    6.883818   6.358087   9.238728   8.876181   9.416967
    43  H    6.098299   5.640329   8.911617   8.814853   9.251894
    44  H    7.500832   6.946627   9.708475   9.237658   9.794402
    45  H    7.404728   6.989992   9.353710   9.139986   9.763632
    46  H    6.993454   6.348909   9.861912   9.494084   9.946386
    47  H    6.101968   5.947952   7.885301   7.995031   8.582092
    48  H    3.341785   3.141965   5.741606   4.649843   4.681914
                   21         22         23         24         25
    21  H    0.000000
    22  C    2.137450   0.000000
    23  C    3.008144   1.388733   0.000000
    24  C    3.034749   1.394042   2.404479   0.000000
    25  C    4.284410   2.412561   1.394057   2.779608   0.000000
    26  H    3.069004   2.131545   1.081403   3.377501   2.160036
    27  C    4.296481   2.408462   2.777959   1.383672   2.409159
    28  H    3.123685   2.143167   3.381194   1.081817   3.861344
    29  C    4.841834   2.820465   2.443841   2.433903   1.414483
    30  H    5.076170   3.392006   2.146577   3.865525   1.093207
    31  H    6.085261   4.119365   3.611533   3.636926   2.339675
    32  N    5.492036   4.112032   4.859522   3.597219   5.071807
    33  N    5.039971   3.140563   3.209217   3.071435   3.129637
    34  Pd   5.991798   3.886498   3.338453   3.771603   2.436227
    35  O    9.565340   7.612968   6.878041   7.680457   6.058705
    36  O    7.523712   5.531521   4.979746   5.528570   4.268009
    37  O    7.365332   5.424810   4.794395   4.957439   3.438184
    38  N    7.546543   5.478293   4.656671   5.328653   3.385419
    39  C    8.578532   6.546065   5.650964   6.531910   4.508577
    40  C    8.526546   6.522263   5.787764   6.547334   4.900422
    41  C    7.952806   5.933463   5.148149   5.626960   3.767289
    42  C    9.390699   7.410416   6.552618   7.119467   5.166538
    43  H    9.562274   7.496604   6.648734   7.358659   5.443274
    44  H    9.650928   7.748777   6.937019   7.379582   5.547722
    45  H    9.646928   7.726348   6.717370   7.621509   5.373174
    46  H   10.083940   8.033680   7.263358   7.648856   5.895034
    47  H    8.698619   6.779884   5.715775   6.965691   4.632216
    48  H    5.113691   3.384049   3.860432   2.132328   3.395250
                   26         27         28         29         30
    26  H    0.000000
    27  C    3.859174   0.000000
    28  H    4.262933   2.144257   0.000000
    29  C    3.428392   1.406006   3.413013   0.000000
    30  H    2.481707   3.401982   4.946201   2.175599   0.000000
    31  H    4.490676   2.390582   4.522590   1.314180   2.585232
    32  N    5.581778   3.865164   3.498832   4.619114   5.995339
    33  N    3.883877   2.978681   3.680751   3.005297   3.868305
    34  Pd   4.033804   3.002461   4.658775   2.178715   2.750861
    35  O    7.166167   6.956121   8.485642   6.072030   5.813825
    36  O    5.430262   4.895057   6.298909   4.190154   4.338536
    37  O    5.567848   3.674238   5.810481   2.629408   3.328591
    38  N    5.234795   4.268978   6.264569   3.084285   3.104513
    39  C    6.056693   5.577606   7.459794   4.429771   4.088635
    40  C    6.161321   5.778313   7.383823   4.863377   4.704515
    41  C    5.798788   4.408814   6.535119   3.229920   3.448067
    42  C    7.115415   5.879274   8.017660   4.711051   4.674206
    43  H    7.102969   6.296048   8.246413   5.192814   5.026373
    44  H    7.534804   6.104141   8.241044   5.004669   5.078117
    45  H    7.128194   6.478157   8.585413   5.195429   4.689936
    46  H    7.870546   6.373123   8.487686   5.317679   5.500846
    47  H    5.939991   6.113085   7.957708   4.853240   3.988808
    48  H    4.941445   1.082985   2.457929   2.154636   4.304365
                   31         32         33         34         35
    31  H    0.000000
    32  N    5.529675   0.000000
    33  N    3.914177   2.348259   0.000000
    34  Pd   2.501846   4.122798   2.002489   0.000000
    35  O    5.889632   6.705209   5.018655   3.988570   0.000000
    36  O    4.319885   4.651009   2.832401   2.012537   2.203634
    37  O    1.328924   6.601304   4.952861   3.233132   5.799702
    38  N    2.468535   5.999702   3.993037   2.000582   3.596859
    39  C    3.920751   6.676407   4.655274   2.862677   2.397711
    40  C    4.694801   5.914085   4.059825   2.809056   1.212153
    41  C    2.147362   6.764528   4.920086   2.972434   4.707756
    42  C    3.552688   8.178112   6.349987   4.374521   5.080542
    43  H    4.480751   7.382307   5.526177   3.742852   2.618842
    44  H    3.742913   8.762446   7.024602   5.094514   6.160740
    45  H    4.165258   8.712394   6.710769   4.709384   4.945431
    46  H    4.183072   8.278200   6.600238   4.692752   4.801762
    47  H    4.409972   7.364276   5.188610   3.441012   2.751207
    48  H    2.665093   3.990556   3.562886   3.546124   7.314188
                   36         37         38         39         40
    36  O    0.000000
    37  O    4.663709   0.000000
    38  N    2.666591   2.256354   0.000000
    39  C    2.416789   3.589626   1.453428   0.000000
    40  C    1.285255   4.693659   2.481136   1.553083   0.000000
    41  C    3.923713   1.263811   1.308643   2.415335   3.680309
    42  C    4.915334   2.371231   2.453552   2.846708   4.311388
    43  H    3.171385   3.871615   2.125512   1.095556   2.150022
    44  H    5.876941   2.430926   3.315972   3.907870   5.362248
    45  H    5.066711   3.119534   2.736829   2.752216   4.295824
    46  H    4.895293   3.052574   2.821521   2.902461   4.190809
    47  H    3.054867   4.079255   2.108374   1.100096   2.155246
    48  H    5.308711   3.752330   4.615101   5.942814   6.159695
                   41         42         43         44         45
    41  C    0.000000
    42  C    1.514677   0.000000
    43  H    2.634183   2.535289   0.000000
    44  H    2.122882   1.086194   3.610584   0.000000
    45  H    2.152385   1.087588   2.492999   1.778145   0.000000
    46  H    2.150018   1.088326   2.226932   1.770649   1.770311
    47  H    2.928141   3.168222   1.776057   4.180770   2.691060
    48  H    4.588187   5.975983   6.513961   6.113456   6.720780
                   46         47         48
    46  H    0.000000
    47  H    3.434773   0.000000
    48  H    6.353085   6.612555   0.000000
 Stoichiometry    C21H19N3O4Pd
 Framework group  C1[X(C21H19N3O4Pd)]
 Deg. of freedom   138
 Full point group                 C1      NOp   1
 Largest Abelian subgroup         C1      NOp   1
 Largest concise Abelian subgroup C1      NOp   1
                         Standard orientation:                         
 ---------------------------------------------------------------------
 Center     Atomic      Atomic             Coordinates (Angstroms)
 Number     Number       Type             X           Y           Z
 ---------------------------------------------------------------------
      1          6           0       -3.814290    0.639081    0.057177
      2          6           0       -4.708475    1.673182    0.331799
      3          6           0       -5.856078    1.845919   -0.415223
      4          6           0       -6.127866    0.978583   -1.461319
      5          6           0       -5.274249   -0.074085   -1.722748
      6          6           0       -4.121055   -0.269540   -0.965518
      7          1           0       -4.467718    2.366325    1.124427
      8          1           0       -6.528107    2.659187   -0.190587
      9          1           0       -7.013694    1.112318   -2.062779
     10          1           0       -5.479200   -0.773601   -2.517970
     11          6           0       -2.558872    0.588775    0.818455
     12          6           0       -2.517966    0.597033    2.213067
     13          6           0       -1.318923    0.582417    0.177570
     14          1           0       -3.422480    0.601676    2.806758
     15          1           0       -1.248739    0.643338   -0.903802
     16          6           0       -0.259992    0.552729    2.196611
     17          1           0        0.675187    0.538643    2.757817
     18          8           0       -3.359025   -1.354423   -1.306876
     19          6           0       -2.893964   -2.228070   -0.287425
     20          1           0       -3.381465   -2.003856    0.668685
     21          1           0       -3.202758   -3.237454   -0.595060
     22          6           0       -1.394112   -2.197776   -0.129698
     23          6           0       -0.588392   -1.885655   -1.216885
     24          6           0       -0.807172   -2.473802    1.104265
     25          6           0        0.789528   -1.751579   -1.053318
     26          1           0       -1.053112   -1.725742   -2.180158
     27          6           0        0.558823   -2.332359    1.273378
     28          1           0       -1.433537   -2.767398    1.936009
     29          6           0        1.394886   -1.949989    0.209589
     30          1           0        1.414256   -1.611631   -1.939450
     31          1           0        2.704359   -2.050242    0.257520
     32          7           0       -1.376852    0.600201    2.883579
     33          7           0       -0.181565    0.523610    0.863741
     34         46           0        1.646092    0.211771    0.107180
     35          8           0        3.355014    3.725410   -0.694456
     36          8           0        1.955926    2.199783    0.061202
     37          8           0        4.021665   -1.981326    0.096295
     38          7           0        3.546247    0.138155   -0.514367
     39          6           0        3.981035    1.432730   -1.011848
     40          6           0        3.042111    2.567530   -0.519182
     41          6           0        4.381409   -0.856436   -0.353623
     42          6           0        5.839246   -0.706154   -0.736214
     43          1           0        4.995352    1.683967   -0.682782
     44          1           0        6.320651   -1.674198   -0.631535
     45          1           0        5.930391   -0.359091   -1.762902
     46          1           0        6.330748    0.007643   -0.077903
     47          1           0        3.967313    1.448238   -2.111749
     48          1           0        0.995060   -2.544098    2.241738
 ---------------------------------------------------------------------
 Rotational constants (GHZ):           0.3180943           0.0979449           0.0883291
 General basis read from cards:  (5D, 7F)
 ======================================================================================================
                                       Pseudopotential Parameters
 ======================================================================================================
  Center     Atomic      Valence      Angular      Power
  Number     Number     Electrons     Momentum     of R      Exponent        Coefficient   SO-Coeffient
 ======================================================================================================
    1          6
                                   No pseudopotential on this center.
    2          6
                                   No pseudopotential on this center.
    3          6
                                   No pseudopotential on this center.
    4          6
                                   No pseudopotential on this center.
    5          6
                                   No pseudopotential on this center.
    6          6
                                   No pseudopotential on this center.
    7          1
                                   No pseudopotential on this center.
    8          1
                                   No pseudopotential on this center.
    9          1
                                   No pseudopotential on this center.
   10          1
                                   No pseudopotential on this center.
   11          6
                                   No pseudopotential on this center.
   12          6
                                   No pseudopotential on this center.
   13          6
                                   No pseudopotential on this center.
   14          1
                                   No pseudopotential on this center.
   15          1
                                   No pseudopotential on this center.
   16          6
                                   No pseudopotential on this center.
   17          1
                                   No pseudopotential on this center.
   18          8
                                   No pseudopotential on this center.
   19          6
                                   No pseudopotential on this center.
   20          1
                                   No pseudopotential on this center.
   21          1
                                   No pseudopotential on this center.
   22          6
                                   No pseudopotential on this center.
   23          6
                                   No pseudopotential on this center.
   24          6
                                   No pseudopotential on this center.
   25          6
                                   No pseudopotential on this center.
   26          1
                                   No pseudopotential on this center.
   27          6
                                   No pseudopotential on this center.
   28          1
                                   No pseudopotential on this center.
   29          6
                                   No pseudopotential on this center.
   30          1
                                   No pseudopotential on this center.
   31          1
                                   No pseudopotential on this center.
   32          7
                                   No pseudopotential on this center.
   33          7
                                   No pseudopotential on this center.
   34         46           18
                                      F and up 
                                                     2       13.2700000      -31.92955431    0.00000000
                                                     2        6.6300000       -5.39821694    0.00000000
                                      S - F
                                                     2       12.4300000      240.22904033    0.00000000
                                                     2        6.1707594       35.17194347    0.00000000
                                                     2       13.2700000       31.92955431    0.00000000
                                                     2        6.6300000        5.39821694    0.00000000
                                      P - F
                                                     2       11.0800000      170.41727605    0.00000000
                                                     2        5.8295541       28.47213287    0.00000000
                                                     2       13.2700000       31.92955431    0.00000000
                                                     2        6.6300000        5.39821694    0.00000000
                                      D - F
                                                     2        9.5100000       69.01384488    0.00000000
                                                     2        4.1397811       11.75086158    0.00000000
                                                     2       13.2700000       31.92955431    0.00000000
                                                     2        6.6300000        5.39821694    0.00000000
   35          8
                                   No pseudopotential on this center.
   36          8
                                   No pseudopotential on this center.
   37          8
                                   No pseudopotential on this center.
   38          7
                                   No pseudopotential on this center.
   39          6
                                   No pseudopotential on this center.
   40          6
                                   No pseudopotential on this center.
   41          6
                                   No pseudopotential on this center.
   42          6
                                   No pseudopotential on this center.
   43          1
                                   No pseudopotential on this center.
   44          1
                                   No pseudopotential on this center.
   45          1
                                   No pseudopotential on this center.
   46          1
                                   No pseudopotential on this center.
   47          1
                                   No pseudopotential on this center.
   48          1
                                   No pseudopotential on this center.
 ======================================================================================================
 There are   586 symmetry adapted cartesian basis functions of A   symmetry.
 There are   543 symmetry adapted basis functions of A   symmetry.
   543 basis functions,   932 primitive gaussians,   586 cartesian basis functions
   108 alpha electrons      108 beta electrons
       nuclear repulsion energy      3082.6021802321 Hartrees.
 NAtoms=   48 NActive=   48 NUniq=   48 SFac= 1.00D+00 NAtFMM=   60 NAOKFM=F Big=F
 Integral buffers will be    131072 words long.
 Raffenetti 2 integral format.
 Two-electron integral symmetry is turned on.
 One-electron integrals computed using PRISM.
   1 Symmetry operations used in ECPInt.
 ECPInt:  NShTT=   29161 NPrTT=  103719 LenC2=   25259 LenP2D=   61122.
 LDataN:  DoStor=T MaxTD1= 8 Len=  415
 NBasis=   543 RedAO= T EigKep=  2.00D-04  NBF=   543
 NBsUse=   543 1.00D-06 EigRej= -1.00D+00 NBFU=   543
 Defaulting to unpruned grid for atomic number  46.
 ExpMin= 3.70D-02 ExpMax= 2.27D+03 ExpMxC= 3.41D+02 IAcc=3 IRadAn=         5 AccDes= 0.00D+00
 Harris functional with IExCor= 1009 and IRadAn=       5 diagonalized for initial guess.
 HarFok:  IExCor= 1009 AccDes= 0.00D+00 IRadAn=         5 IDoV= 1 UseB2=F ITyADJ=14
 ICtDFT=  3500011 ScaDFX=  1.000000  1.000000  1.000000  1.000000
 Defaulting to unpruned grid for atomic number  46.
 FoFCou: FMM=F IPFlag=           0 FMFlag=      100000 FMFlg1=           0
         NFxFlg=           0 DoJE=T BraDBF=F KetDBF=T FulRan=T
         wScrn=  0.000000 ICntrl=       500 IOpCl=  0 I1Cent=   200000004 NGrid=           0
         NMat0=    1 NMatS0=      1 NMatT0=    0 NMatD0=    1 NMtDS0=    0 NMtDT0=    0
 Petite list used in FoFCou.
 Requested convergence on RMS density matrix=1.00D-08 within 128 cycles.
 Requested convergence on MAX density matrix=1.00D-06.
 Requested convergence on             energy=1.00D-06.
 No special actions if energy rises.
 Defaulting to unpruned grid for atomic number  46.
 Defaulting to unpruned grid for atomic number  46.
 Defaulting to unpruned grid for atomic number  46.
 Defaulting to unpruned grid for atomic number  46.
 Defaulting to unpruned grid for atomic number  46.
 Defaulting to unpruned grid for atomic number  46.
 Defaulting to unpruned grid for atomic number  46.
 Defaulting to unpruned grid for atomic number  46.
 Defaulting to unpruned grid for atomic number  46.
 Defaulting to unpruned grid for atomic number  46.
 Defaulting to unpruned grid for atomic number  46.
 Defaulting to unpruned grid for atomic number  46.
 Defaulting to unpruned grid for atomic number  46.
 Defaulting to unpruned grid for atomic number  46.
 Defaulting to unpruned grid for atomic number  46.
 Defaulting to unpruned grid for atomic number  46.
 Defaulting to unpruned grid for atomic number  46.
 Defaulting to unpruned grid for atomic number  46.
 Defaulting to unpruned grid for atomic number  46.
 Defaulting to unpruned grid for atomic number  46.
 Defaulting to unpruned grid for atomic number  46.
 Defaulting to unpruned grid for atomic number  46.
 Defaulting to unpruned grid for atomic number  46.
 Defaulting to unpruned grid for atomic number  46.
 Defaulting to unpruned grid for atomic number  46.
 Defaulting to unpruned grid for atomic number  46.
 Defaulting to unpruned grid for atomic number  46.
 Defaulting to unpruned grid for atomic number  46.
 Defaulting to unpruned grid for atomic number  46.
 Defaulting to unpruned grid for atomic number  46.
 Defaulting to unpruned grid for atomic number  46.
 Defaulting to unpruned grid for atomic number  46.
 Defaulting to unpruned grid for atomic number  46.
 Defaulting to unpruned grid for atomic number  46.
 Defaulting to unpruned grid for atomic number  46.
 Defaulting to unpruned grid for atomic number  46.
 Defaulting to unpruned grid for atomic number  46.
 Defaulting to unpruned grid for atomic number  46.
 Defaulting to unpruned grid for atomic number  46.
 Defaulting to unpruned grid for atomic number  46.
 Defaulting to unpruned grid for atomic number  46.
 Defaulting to unpruned grid for atomic number  46.
 Defaulting to unpruned grid for atomic number  46.
 Defaulting to unpruned grid for atomic number  46.
 Defaulting to unpruned grid for atomic number  46.
 Defaulting to unpruned grid for atomic number  46.
 Defaulting to unpruned grid for atomic number  46.
 Defaulting to unpruned grid for atomic number  46.
 Defaulting to unpruned grid for atomic number  46.
 Defaulting to unpruned grid for atomic number  46.
 Defaulting to unpruned grid for atomic number  46.
 Defaulting to unpruned grid for atomic number  46.
 Defaulting to unpruned grid for atomic number  46.
 Defaulting to unpruned grid for atomic number  46.
 Defaulting to unpruned grid for atomic number  46.
 Defaulting to unpruned grid for atomic number  46.
 Defaulting to unpruned grid for atomic number  46.
 Defaulting to unpruned grid for atomic number  46.
 Defaulting to unpruned grid for atomic number  46.
 Defaulting to unpruned grid for atomic number  46.
 Defaulting to unpruned grid for atomic number  46.
 Defaulting to unpruned grid for atomic number  46.
 Defaulting to unpruned grid for atomic number  46.
 Defaulting to unpruned grid for atomic number  46.
 EnCoef did     8 forward-backward iterations
 EnCoef did   100 forward-backward iterations
 EnCoef did     2 forward-backward iterations
 Restarting incremental Fock formation.
 SCF Done:  E(RMN15) =  -1401.97810416     A.U. after   22 cycles
            NFock= 22  Conv=0.68D-08     -V/T= 2.0720
 DoSCS=F DFT=T ScalE2(SS,OS)=  1.000000  1.000000
 Range of M.O.s used for correlation:     1   543
 NBasis=   543 NAE=   108 NBE=   108 NFC=     0 NFV=     0
 NROrb=    543 NOA=   108 NOB=   108 NVA=   435 NVB=   435

 **** Warning!!: The largest alpha MO coefficient is  0.12496661D+02

   1 Symmetry operations used in ECPInt.
 ECPInt:  NShTT=   29161 NPrTT=  103719 LenC2=   25259 LenP2D=   61122.
 LDataN:  DoStor=T MaxTD1= 9 Len=  602
 Number of processors reduced to  12 by ecpmxn.
 Symmetrizing basis deriv contribution to polar:
 IMax=3 JMax=2 DiffMx= 0.00D+00
 G2DrvN: will do    49 centers at a time, making    1 passes.
 Calling FoFCou, ICntrl=  3107 FMM=F I1Cent=   0 AccDes= 0.00D+00.
 Defaulting to unpruned grid for atomic number  46.
 Defaulting to unpruned grid for atomic number  46.
 Defaulting to unpruned grid for atomic number  46.
 Defaulting to unpruned grid for atomic number  46.
 Defaulting to unpruned grid for atomic number  46.
 Defaulting to unpruned grid for atomic number  46.
 Defaulting to unpruned grid for atomic number  46.
 Defaulting to unpruned grid for atomic number  46.
 Defaulting to unpruned grid for atomic number  46.
 Defaulting to unpruned grid for atomic number  46.
 Defaulting to unpruned grid for atomic number  46.
 Defaulting to unpruned grid for atomic number  46.
 Defaulting to unpruned grid for atomic number  46.
 Defaulting to unpruned grid for atomic number  46.
 Defaulting to unpruned grid for atomic number  46.
 Defaulting to unpruned grid for atomic number  46.
 Defaulting to unpruned grid for atomic number  46.
 Defaulting to unpruned grid for atomic number  46.
 Defaulting to unpruned grid for atomic number  46.
 Defaulting to unpruned grid for atomic number  46.
 Defaulting to unpruned grid for atomic number  46.
 Defaulting to unpruned grid for atomic number  46.
 Defaulting to unpruned grid for atomic number  46.
 Defaulting to unpruned grid for atomic number  46.
 Defaulting to unpruned grid for atomic number  46.
 Defaulting to unpruned grid for atomic number  46.
 Defaulting to unpruned grid for atomic number  46.
 Defaulting to unpruned grid for atomic number  46.
 Defaulting to unpruned grid for atomic number  46.
 Defaulting to unpruned grid for atomic number  46.
 Defaulting to unpruned grid for atomic number  46.
 Defaulting to unpruned grid for atomic number  46.
 Defaulting to unpruned grid for atomic number  46.
 Defaulting to unpruned grid for atomic number  46.
 Defaulting to unpruned grid for atomic number  46.
 Defaulting to unpruned grid for atomic number  46.
 Defaulting to unpruned grid for atomic number  46.
 Defaulting to unpruned grid for atomic number  46.
 Defaulting to unpruned grid for atomic number  46.
 Defaulting to unpruned grid for atomic number  46.
 Defaulting to unpruned grid for atomic number  46.
 Defaulting to unpruned grid for atomic number  46.
 Defaulting to unpruned grid for atomic number  46.
 Defaulting to unpruned grid for atomic number  46.
 Defaulting to unpruned grid for atomic number  46.
 Defaulting to unpruned grid for atomic number  46.
 Defaulting to unpruned grid for atomic number  46.
 Defaulting to unpruned grid for atomic number  46.
 Defaulting to unpruned grid for atomic number  46.
 Defaulting to unpruned grid for atomic number  46.
 Defaulting to unpruned grid for atomic number  46.
 Defaulting to unpruned grid for atomic number  46.
 Defaulting to unpruned grid for atomic number  46.
 Defaulting to unpruned grid for atomic number  46.
 Defaulting to unpruned grid for atomic number  46.
 Defaulting to unpruned grid for atomic number  46.
 Defaulting to unpruned grid for atomic number  46.
 Defaulting to unpruned grid for atomic number  46.
 Defaulting to unpruned grid for atomic number  46.
 Defaulting to unpruned grid for atomic number  46.
 Defaulting to unpruned grid for atomic number  46.
 Defaulting to unpruned grid for atomic number  46.
 Defaulting to unpruned grid for atomic number  46.
 Defaulting to unpruned grid for atomic number  46.
 End of G2Drv F.D. properties file   721 does not exist.
 End of G2Drv F.D. properties file   722 does not exist.
 End of G2Drv F.D. properties file   788 does not exist.
          IDoAtm=111111111111111111111111111111111111111111111111
          Differentiating once with respect to nuclear coordinates.
 Defaulting to unpruned grid for atomic number  46.
 CalDSu exits because no D1Ps are significant.
 Defaulting to unpruned grid for atomic number  46.
 Defaulting to unpruned grid for atomic number  46.
 Defaulting to unpruned grid for atomic number  46.
 Defaulting to unpruned grid for atomic number  46.
 Defaulting to unpruned grid for atomic number  46.
 Defaulting to unpruned grid for atomic number  46.
 Defaulting to unpruned grid for atomic number  46.
 Defaulting to unpruned grid for atomic number  46.
 Defaulting to unpruned grid for atomic number  46.
 Defaulting to unpruned grid for atomic number  46.
 Defaulting to unpruned grid for atomic number  46.
 Defaulting to unpruned grid for atomic number  46.
 Defaulting to unpruned grid for atomic number  46.
 Defaulting to unpruned grid for atomic number  46.
 Defaulting to unpruned grid for atomic number  46.
 Defaulting to unpruned grid for atomic number  46.
 Defaulting to unpruned grid for atomic number  46.
 Defaulting to unpruned grid for atomic number  46.
 Defaulting to unpruned grid for atomic number  46.
 Defaulting to unpruned grid for atomic number  46.
 Defaulting to unpruned grid for atomic number  46.
 Defaulting to unpruned grid for atomic number  46.
 Defaulting to unpruned grid for atomic number  46.
 Defaulting to unpruned grid for atomic number  46.
 Defaulting to unpruned grid for atomic number  46.
 Defaulting to unpruned grid for atomic number  46.
 Defaulting to unpruned grid for atomic number  46.
 Defaulting to unpruned grid for atomic number  46.
 Defaulting to unpruned grid for atomic number  46.
 Defaulting to unpruned grid for atomic number  46.
 Defaulting to unpruned grid for atomic number  46.
 Defaulting to unpruned grid for atomic number  46.
 Defaulting to unpruned grid for atomic number  46.
 Defaulting to unpruned grid for atomic number  46.
 Defaulting to unpruned grid for atomic number  46.
 Defaulting to unpruned grid for atomic number  46.
 Defaulting to unpruned grid for atomic number  46.
 Defaulting to unpruned grid for atomic number  46.
 Defaulting to unpruned grid for atomic number  46.
 Defaulting to unpruned grid for atomic number  46.
 Defaulting to unpruned grid for atomic number  46.
 Defaulting to unpruned grid for atomic number  46.
 Defaulting to unpruned grid for atomic number  46.
 Defaulting to unpruned grid for atomic number  46.
 Defaulting to unpruned grid for atomic number  46.
 Defaulting to unpruned grid for atomic number  46.
 Defaulting to unpruned grid for atomic number  46.
 Defaulting to unpruned grid for atomic number  46.
 Defaulting to unpruned grid for atomic number  46.
 Defaulting to unpruned grid for atomic number  46.
 Defaulting to unpruned grid for atomic number  46.
 Defaulting to unpruned grid for atomic number  46.
 Defaulting to unpruned grid for atomic number  46.
 Defaulting to unpruned grid for atomic number  46.
 Defaulting to unpruned grid for atomic number  46.
 Defaulting to unpruned grid for atomic number  46.
 Defaulting to unpruned grid for atomic number  46.
 Defaulting to unpruned grid for atomic number  46.
 Defaulting to unpruned grid for atomic number  46.
 Defaulting to unpruned grid for atomic number  46.
 Defaulting to unpruned grid for atomic number  46.
 Defaulting to unpruned grid for atomic number  46.
 Defaulting to unpruned grid for atomic number  46.
 Defaulting to unpruned grid for atomic number  46.
          There are   147 degrees of freedom in the 1st order CPHF.  IDoFFX=6 NUNeed=     0.
    141 vectors produced by pass  0 Test12= 4.70D-14 1.00D-09 XBig12= 1.21D-01 9.47D-02.
 AX will form    64 AO Fock derivatives at one time.
    141 vectors produced by pass  1 Test12= 4.70D-14 1.00D-09 XBig12= 1.71D-02 3.76D-02.
    141 vectors produced by pass  2 Test12= 4.70D-14 1.00D-09 XBig12= 3.24D-04 2.99D-03.
    141 vectors produced by pass  3 Test12= 4.70D-14 1.00D-09 XBig12= 3.80D-06 1.99D-04.
    141 vectors produced by pass  4 Test12= 4.70D-14 1.00D-09 XBig12= 3.13D-08 1.48D-05.
    141 vectors produced by pass  5 Test12= 4.70D-14 1.00D-09 XBig12= 1.27D-10 9.31D-07.
    115 vectors produced by pass  6 Test12= 4.70D-14 1.00D-09 XBig12= 3.91D-13 4.46D-08.
     23 vectors produced by pass  7 Test12= 4.70D-14 1.00D-09 XBig12= 1.11D-15 2.69D-09.
 InvSVY:  IOpt=1 It=  1 EMax= 1.17D-15
 Solved reduced A of dimension   984 with   147 vectors.
 End of Minotr F.D. properties file   721 does not exist.
 End of Minotr F.D. properties file   722 does not exist.
 End of Minotr F.D. properties file   788 does not exist.

 **********************************************************************

            Population analysis using the SCF Density.

 **********************************************************************

 Orbital symmetries:
       Occupied  (A) (A) (A) (A) (A) (A) (A) (A) (A) (A) (A) (A)
                 (A) (A) (A) (A) (A) (A) (A) (A) (A) (A) (A) (A)
                 (A) (A) (A) (A) (A) (A) (A) (A) (A) (A) (A) (A)
                 (A) (A) (A) (A) (A) (A) (A) (A) (A) (A) (A) (A)
                 (A) (A) (A) (A) (A) (A) (A) (A) (A) (A) (A) (A)
                 (A) (A) (A) (A) (A) (A) (A) (A) (A) (A) (A) (A)
                 (A) (A) (A) (A) (A) (A) (A) (A) (A) (A) (A) (A)
                 (A) (A) (A) (A) (A) (A) (A) (A) (A) (A) (A) (A)
                 (A) (A) (A) (A) (A) (A) (A) (A) (A) (A) (A) (A)
       Virtual   (A) (A) (A) (A) (A) (A) (A) (A) (A) (A) (A) (A)
                 (A) (A) (A) (A) (A) (A) (A) (A) (A) (A) (A) (A)
                 (A) (A) (A) (A) (A) (A) (A) (A) (A) (A) (A) (A)
                 (A) (A) (A) (A) (A) (A) (A) (A) (A) (A) (A) (A)
                 (A) (A) (A) (A) (A) (A) (A) (A) (A) (A) (A) (A)
                 (A) (A) (A) (A) (A) (A) (A) (A) (A) (A) (A) (A)
                 (A) (A) (A) (A) (A) (A) (A) (A) (A) (A) (A) (A)
                 (A) (A) (A) (A) (A) (A) (A) (A) (A) (A) (A) (A)
                 (A) (A) (A) (A) (A) (A) (A) (A) (A) (A) (A) (A)
                 (A) (A) (A) (A) (A) (A) (A) (A) (A) (A) (A) (A)
                 (A) (A) (A) (A) (A) (A) (A) (A) (A) (A) (A) (A)
                 (A) (A) (A) (A) (A) (A) (A) (A) (A) (A) (A) (A)
                 (A) (A) (A) (A) (A) (A) (A) (A) (A) (A) (A) (A)
                 (A) (A) (A) (A) (A) (A) (A) (A) (A) (A) (A) (A)
[...]
 0000543,-0.00000166,0.00000060,-0.00000081,0.00000043,-0.00000010,0.00
 000019,0.00000004,-0.00000046,0.00000018,0.00000014,-0.00000056,-0.000
 00037,-0.00000002,-0.00000039,-0.00000148,-0.00000102,0.00000341,0.000
 00058,0.00000188,-0.00000153,0.00000800,-0.00001401,-0.00000044,0.0000
 0078,-0.00000032,-0.00000210,0.00000229,-0.00000112,0.00002027,0.00000
 263,0.00000911,0.00000385,0.00000156,0.00000274,-0.00000108,-0.0000037
 2,0.00000435,0.00000277,-0.00000026,-0.00000080,0.00000088,-0.00000033
 ,0.00000047,-0.00000256,0.00000025,0.00000058,-0.00000191,0.00000083,-
 0.00001963,0.00001312,-0.00000969,0.00002058,-0.00001721,-0.00000420,0
 .00001339,-0.00003120,-0.00002263,-0.00005359,-0.00000586,0.00000246,0
 .00000060,0.00000705,-0.00000348,0.00002559,-0.00000248,0.00000126,0.0
 0000011,-0.00012837,0.00002897,-0.00002420,-0.00000849,0.00001058,0.00
 001799,0.00027744,0.00003451,-0.00002153,-0.00001021,-0.00000442,0.000
 00042,-0.00005649,0.00001945,0.00004576,0.00026063,0.00015892,-0.00015
 151,-0.00017501,0.00015871,-0.00006547,-0.00050248,-0.00001346,-0.0001
 9847,-0.00035702,0.00078718,-0.00026960,0.00057040,-0.00209524,-0.0012
 6322,0.00138136,0.00067988,0.00218025,0.00067304,-0.00048847,0.0001537
 9,-0.00239888,0.00131113,0.00694015,-0.02141705,-0.08034126,-0.0935791
 5,-0.00020434,-0.00023729,0.00023208,-0.00778056,-0.00546814,-0.026032
 91,0.02566692,0.08169053,0.00000037,0.00000337,-0.00000343,-0.00000043
 ,-0.00000204,0.00000209,-0.00000110,0.00000078,0.00000037,0.00000004,-
 0.00000037,0.00000031,-0.00000307,0.00000377,0.00000161,0.00001147,-0.
 00001995,0.00000131,0.00000036,-0.00000040,-0.00000071,-0.00000074,0.0
 0000050,-0.00000006,-0.00000074,0.00000014,0.00000013,0.00000056,-0.00
 000040,-0.00000039,-0.00000169,0.00000105,-0.00000462,0.00000087,-0.00
 000375,0.00000396,0.00000449,-0.00000172,-0.00000901,-0.00000084,-0.00
 000025,-0.00000013,0.00000103,-0.00000369,0.00000061,-0.00000865,-0.00
 001021,0.00000713,-0.00000044,-0.00000454,-0.00000253,-0.00002036,0.00
 002419,0.00000825,0.00001508,-0.00001181,-0.00000980,-0.00000131,0.000
 00158,-0.00000039,-0.00000468,0.00000253,0.00000262,-0.00000709,-0.000
 00165,-0.00000299,-0.00000586,-0.00001411,-0.00001071,-0.00000849,-0.0
 0001789,0.00001368,0.00001605,-0.00001341,-0.00002427,-0.00000070,0.00
 000030,0.00000215,0.00000720,-0.00000916,0.00001382,-0.00000192,0.0000
 0047,-0.00000230,-0.00022139,0.00023742,0.00000205,0.00000742,0.000006
 74,0.00000463,0.00060225,-0.00015553,-0.00002176,-0.00000261,0.0000094
 3,-0.00000527,-0.00003978,-0.00000282,-0.00001858,-0.00009567,-0.00023
 184,-0.00006857,0.00014197,-0.00007851,0.00006156,0.00066682,-0.000087
 09,0.00018093,-0.00027957,0.00110865,-0.00012577,-0.00083844,-0.000673
 40,0.00082990,0.00077719,-0.00080051,0.00075534,-0.00033770,0.00051407
 ,-0.00002005,0.00053476,-0.00164636,-0.00294203,-0.06565443,-0.0926222
 7,-0.27593270,0.00008237,0.00008174,-0.00078266,0.00101781,0.00180897,
 0.00188080,0.07026437,0.09989850,0.29256327,-0.00000097,0.00000579,-0.
 00001004,-0.00000070,-0.00000485,0.00000332,-0.00000366,0.00000010,0.0
 0000161,-0.00000108,0.00000094,0.00000006,-0.00000403,0.00000627,0.000
 00235,0.00001872,-0.00003018,0.00000282,0.00000150,-0.00000117,-0.0000
 0046,-0.00000125,0.00000116,0.00000041,-0.00000144,0.00000049,0.000000
 54,0.00000076,-0.00000079,-0.00000028,-0.00002341,0.00000172,-0.000024
 60,-0.00001357,-0.00000685,0.00002769,-0.00000560,0.00000978,-0.000053
 79,-0.00000135,0.00000122,0.00000031,0.00000362,-0.00000066,-0.0000015
 2,-0.00000821,-0.00002192,0.00006732,-0.00000062,-0.00000480,0.0000105
 6,-0.00003671,0.00003749,0.00001258,0.00003270,-0.00002201,-0.00001872
 ,-0.00000407,0.00000450,-0.00000144,-0.00001520,0.00000555,0.00000763,
 -0.00004097,0.00000156,-0.00005741,0.00005043,-0.00005559,-0.00000945,
 -0.00004035,-0.00003242,0.00005760,-0.00009301,-0.00011759,-0.00002648
 ,-0.00000386,0.00000752,0.00000513,0.00010338,-0.00006370,0.00007110,-
 0.00000577,0.00000661,-0.00000490,-0.00049997,0.00053479,0.00022561,-0
 .00000170,0.00003746,-0.00000463,0.00124561,-0.00038657,-0.00061332,0.
 00001025,0.00000509,-0.00002337,-0.00019197,0.00001349,0.00021243,-0.0
 0003257,-0.00022756,-0.00097971,0.00014192,-0.00003307,0.00004494,0.00
 048354,0.00003626,0.00015406,-0.00344117,0.00133717,-0.00294941,0.0003
 9264,-0.00018292,-0.00261371,0.00009504,-0.00051035,0.00069870,-0.0003
 2664,0.00037238,-0.00026609,-0.01548698,-0.01460529,0.02273266,-0.1366
 8562,-0.07514142,0.11419093,0.00017018,0.00083590,0.00006272,0.0034170
 4,0.00309383,-0.00522173,0.00476077,0.00420246,-0.00630918,0.14592029,
 0.00000058,0.00000121,-0.00000016,-0.00000014,-0.00000027,-0.00000036,
 -0.00000051,-0.00000036,-0.00000030,0.00000024,-0.00000029,-0.00000043
 ,-0.00000130,0.00000073,0.00000010,0.00000348,-0.00000519,0.00000005,0
 .00000053,-0.00000008,0.00000058,0.00000016,0.00000033,0.00000029,-0.0
 0000008,0.00000012,0.00000041,0.00000053,0.,0.00000029,0.00000463,0.00
 000336,-0.00000463,0.00000206,0.00000017,0.00000254,0.00001950,-0.0000
 0773,0.00001334,-0.00000060,0.00000022,0.00000047,0.00000333,-0.000000
 13,0.00000154,-0.00001718,0.00000658,0.00000051,-0.00000129,0.00000487
 ,0.00000148,-0.00000614,0.00000484,-0.00000090,0.00000454,-0.00000137,
 -0.00000084,-0.00000087,0.00000119,-0.00000069,-0.00000147,0.00000047,
 0.00000153,-0.00000051,-0.00000177,0.00000711,-0.00001066,-0.00000306,
 -0.00000869,0.00000068,-0.00000741,-0.00001145,-0.00000337,0.00000258,
 -0.00000653,-0.00000005,0.00000086,0.00000036,-0.00001785,-0.00001210,
 0.00003209,-0.00000394,0.00000084,-0.00000136,-0.00010729,0.00003987,-
 0.00000007,-0.00000116,-0.00000138,-0.00000270,0.00022921,-0.00001867,
 0.00008855,-0.00000169,-0.00000116,-0.00000986,0.00003432,0.00001675,-
 0.00010916,0.00007894,0.00003771,0.00050727,-0.00019149,0.00007906,0.0
 0000297,-0.00043682,-0.00003085,-0.00011517,-0.00051004,0.00064900,0.0
 0001803,-0.00012851,-0.00289382,0.00082262,0.00254283,0.00107785,-0.00
 077403,0.00057053,-0.00026348,0.00006272,0.00110385,0.00275380,-0.0072
 6916,-0.07276290,-0.10311721,0.09114392,-0.00037152,-0.00063063,0.0004
 4207,-0.01717553,-0.00886280,0.01996989,0.00701224,0.00416337,-0.00770
 218,0.08067454,0.10685008,-0.00000011,0.00000043,-0.00000152,0.0000001
 3,-0.00000091,0.00000010,-0.00000142,-0.00000111,0.00000072,-0.0000008
 0,0.00000112,-0.00000017,0.00000056,0.00000009,-0.00000019,-0.00000068
 ,0.00000278,-0.00000040,0.00000069,-0.00000054,0.00000054,-0.00000003,
 0.00000023,0.00000025,-0.00000026,0.00000019,0.00000024,-0.00000026,-0
 .00000020,0.00000018,-0.00000675,-0.00000027,-0.00000926,-0.00000490,0
 .00000014,0.00000948,0.00000156,0.00000488,-0.00001492,-0.00000038,0.0
 0000088,0.00000028,0.00000097,0.00000271,-0.00000152,0.00001018,0.0000
 0058,0.00001802,-0.00000085,0.00000343,0.00000730,-0.00000244,-0.00000
 205,0.00000139,0.00000515,-0.00000142,-0.00000099,-0.00000045,0.000000
 85,-0.00000023,-0.00000441,0.00000073,0.00000177,-0.00001292,0.0000013
 1,-0.00002213,0.00002275,-0.00001405,0.00000958,-0.00001183,-0.0000030
 3,0.00001580,-0.00004971,-0.00004479,-0.00002094,-0.00000407,0.0000036
 5,0.00000090,0.00002927,-0.00002149,0.00002983,-0.00000275,0.00000332,
 -0.00000045,-0.00009076,0.00006916,0.00009251,-0.00000924,0.00001049,0
 .00000244,0.00028212,-0.00005596,-0.00042125,0.00000097,-0.00000569,-0
 .00000466,-0.00002873,0.00001410,0.00008220,0.00012172,0.00005766,-0.0
 0034011,-0.00013792,0.00009811,-0.00003783,-0.00049974,0.00009629,-0.0
 0023897,-0.00163512,-0.00051016,-0.00183019,0.00074520,0.00005318,0.00
 039631,-0.00067217,0.00099932,0.00029907,0.00027574,-0.00043459,0.0002
 8494,-0.00497723,-0.00429871,0.00624205,0.11176848,0.09036488,-0.17057
 547,0.00020974,-0.00059161,0.00025988,-0.00258465,-0.00205108,0.001551
 65,0.01630433,0.01307703,-0.01628748,-0.11928441,-0.09712560,0.1809016
 4,0.00000317,0.00001127,-0.00001382,-0.00000259,-0.00000590,0.00000807
 ,-0.00000492,0.00000027,0.00000359,-0.00000316,0.00000229,0.00000224,-
 0.00000506,0.00000744,0.00000482,0.00001926,-0.00003175,-0.00000111,0.
 00000199,-0.00000320,-0.00000245,-0.00000312,0.00000135,-0.00000034,-0
 .00000260,0.00000024,0.00000012,-0.00000070,-0.00000181,-0.00000104,-0
 .00003381,-0.00001834,-0.00001940,-0.00000124,-0.00000767,0.00002242,0
 .00002721,0.00002956,-0.00012725,-0.00000299,0.00000356,0.00000073,0.0
 0000912,0.00000073,-0.00000043,-0.00005578,-0.00002489,0.00012181,0.00
 000804,-0.00002689,0.00000298,-0.00004179,0.00004385,0.00002471,0.0000
 3307,-0.00003087,-0.00002384,-0.00000066,0.00000327,0.00000094,-0.0000
 1343,0.00000557,0.00000699,-0.00001537,-0.00000836,-0.00000935,-0.0000
 0587,-0.00000633,-0.00000098,-0.00001685,-0.00000690,0.00003130,-0.000
 02758,-0.00002225,-0.00008977,-0.00001249,0.00000373,0.00000277,0.0000
 2055,-0.00004418,0.00004751,-0.00000891,0.00000517,-0.00000357,-0.0002
 1353,0.00022896,0.00002013,0.00000105,-0.00002143,0.00000286,0.0008554
 4,-0.00008327,0.00003521,-0.00002463,0.00001615,-0.00006254,-0.0003342
 5,0.00025536,0.00005980,0.00065339,-0.00112293,-0.00035968,0.00029687,
 -0.00166040,0.00259682,-0.00190538,0.00160161,0.00193290,-0.00079972,-
 0.00131183,0.00050970,-0.00848425,-0.00646870,-0.01819493,-0.06196123,
 0.00441468,-0.07419275,-0.00488523,0.00220077,-0.01851934,-0.00161948,
 0.00394276,-0.00079857,0.00112175,0.00007545,0.00015169,0.00710271,-0.
 00187558,0.02346555,-0.00006977,-0.00005801,-0.00001967,0.00015975,0.0
 0002327,-0.00030726,0.00012659,-0.00052738,0.00024568,0.07010153,-0.00
 000011,0.00000630,-0.00001189,-0.00000208,-0.00000519,0.00000434,-0.00
 000229,0.00000152,0.00000126,-0.00000088,0.00000012,0.00000036,-0.0000
 0390,0.00000585,0.00000228,0.00001719,-0.00002856,0.00000227,0.0000005
 4,-0.00000090,-0.00000148,-0.00000141,0.00000089,0.00000032,-0.0000011
 4,0.00000040,0.00000029,0.00000063,-0.00000063,-0.00000045,-0.00002946
 ,-0.00001784,-0.00001257,-0.00001115,-0.00000752,0.00001750,-0.0000311
 9,0.00000899,-0.00007965,-0.00000059,0.00000250,0.00000044,0.00000833,
 0.00000437,0.00000720,-0.00006197,-0.00003875,0.00009553,0.00000411,-0
 .00002088,-0.00000968,-0.00003244,0.00003568,0.00001328,0.00002742,-0.
 00001807,-0.00001519,-0.00000160,0.00000299,-0.00000099,-0.00000916,0.
 00000374,0.00000483,-0.00002144,0.00000180,-0.00002335,0.00001578,-0.0
 0003430,-0.00000838,-0.00002335,-0.00004125,0.00003646,-0.00000791,-0.
 00002745,-0.00001836,-0.00000234,0.00000030,0.00000300,0.00005378,0.00
 000429,0.00001662,-0.00000398,0.00000402,-0.00000455,-0.00033227,0.000
 54568,0.00002187,-0.00001075,0.00000712,-0.00000231,0.00143194,-0.0002
 9806,0.00011779,0.00000953,0.00002035,-0.00004158,-0.00035187,0.000235
 70,0.00013642,0.00029781,-0.00214773,-0.00047453,0.00066575,0.00002722
 ,-0.00358804,0.00466420,-0.00201583,-0.00183256,-0.00219545,-0.0029689
 8,0.00080030,-0.01138962,-0.00736432,-0.02723589,0.00447331,-0.0437319
 2,0.02095934,0.00329386,0.00095650,0.02649566,-0.00171648,0.00515627,-
 0.00191696,-0.00060217,0.00014859,-0.00091888,0.00075085,0.00055113,-0
 .00060569,-0.00005700,0.00007486,0.00017658,0.00052655,-0.00037517,0.0
 0040132,0.00018581,0.00015385,0.00028875,0.00048167,0.05116098,0.00000
 309,0.00000871,-0.00001054,-0.00000142,-0.00000725,0.00000699,-0.00000
 553,-0.00000125,0.00000285,-0.00000193,0.00000178,0.00000095,-0.000006
 04,0.00000695,0.00000380,0.00002027,-0.00002970,-0.00000191,0.00000240
 ,-0.00000300,-0.00000109,-0.00000235,0.00000168,0.00000003,-0.00000244
 ,0.00000043,0.00000079,0.00000023,-0.00000145,-0.00000037,-0.00000787,
 0.00000058,-0.00002172,0.00000452,-0.00000738,0.00001640,0.00001624,0.
 00001957,-0.00005660,-0.00000417,0.00000104,-0.00000064,0.00000278,-0.
 00000663,-0.00000268,0.00002129,-0.00002286,0.00004006,0.00000853,-0.0
 0000485,0.00001239,-0.00004353,0.00003990,0.00001912,0.00003182,-0.000
 02243,-0.00001990,-0.00000117,0.00000371,0.00000054,-0.00001228,0.0000
 0361,0.00000701,-0.00000822,-0.00000686,-0.00001571,-0.00000405,-0.000
 00026,-0.00000529,-0.00002428,0.00000031,0.00002508,-0.00001180,-0.000
 02705,-0.00004472,-0.00000783,0.00000304,0.00000303,0.00002583,-0.0000
 2480,0.00003238,-0.00000771,0.00000633,-0.00000343,-0.00011892,0.00009
 183,0.00000819,0.00001093,-0.00000576,-0.00000717,0.00053931,-0.000042
 23,0.00005767,-0.00004014,0.00001590,-0.00001779,-0.00014349,0.0000205
 8,0.00008020,0.00079044,-0.00030187,-0.00038855,0.00023821,0.00029073,
 0.00164855,0.00057754,0.00035644,0.00008414,-0.00021181,-0.00122709,-0
 .00032635,-0.00461237,-0.00796712,-0.00081726,-0.07256124,0.01669240,-
 0.29352014,-0.00039676,-0.00098942,-0.00295304,-0.00280572,0.00333803,
 0.00067884,0.00052823,0.00093720,0.00035808,-0.00568597,0.00243411,-0.
 01583584,0.00020724,0.00012452,0.00030274,0.00034861,-0.00092969,-0.00
 006241,-0.00010194,0.00003504,-0.00039468,0.08344484,-0.01280652,0.311
 10941,-0.00002150,0.00001366,-0.00003639,0.00000501,0.00000965,-0.0000
 1546,0.00000576,0.00002611,-0.00000939,0.00000611,-0.00002368,0.000005
 27,-0.00004985,0.00008402,0.00000674,0.00013520,-0.00039636,0.00012130
 ,-0.00000379,0.00001171,-0.00000169,0.00000256,0.00000213,-0.00000018,
 -0.00000477,0.00000550,-0.00000059,0.00001173,-0.00000218,-0.00000785,
 -0.00004065,0.00008784,-0.00002246,-0.00016659,0.00001764,0.00008746,0
 .00004685,-0.00007603,0.00002602,0.00000282,-0.00000610,0.00000965,-0.
 00001031,-0.00001182,-0.00000973,0.00002729,0.00002698,0.00015285,0.00
 005692,0.00003935,0.00001872,-0.00050839,0.00060377,0.00030125,0.00042
 801,-0.00002022,0.00086440,-0.00000828,0.00004024,-0.00003464,-0.00011
 589,-0.00003284,-0.00003840,-0.00551021,-0.00075344,-0.00117903,-0.000
 23697,-0.00002394,-0.00073707,-0.00935277,-0.00373146,0.02751109,-0.00
 089182,-0.00121315,-0.00309481,0.00005706,0.00019041,0.00008098,-0.117
 55621,-0.01499691,0.11784887,0.00114611,0.00041316,-0.00023544,0.01023
 020,0.00247910,-0.01594599,0.00031035,0.00014408,-0.00064923,0.0014902
 4,-0.00006842,0.00023203,0.00003098,-0.00012043,-0.00011987,-0.0000047
 2,0.00003206,-0.00002721,0.00015082,-0.00023722,0.00025688,0.00009009,
 0.00007520,0.00002657,0.00016887,0.00022585,0.00003260,-0.00052625,0.0
 0007118,0.00026096,-0.00002096,0.00000794,0.00006548,-0.00002649,-0.00
 002810,0.00000107,-0.00020809,-0.00002343,-0.00006655,-0.00010316,0.00
 006079,-0.00007723,0.00001257,-0.00000976,-0.00004947,0.00000487,0.000
 00383,0.00000324,0.00000061,-0.00000188,-0.00000462,-0.00001052,0.0000
 0193,0.00000168,-0.00000253,-0.00000642,-0.00000026,0.00001491,-0.0000
 0505,0.00000864,0.12094476,0.00003635,0.00005159,-0.00001199,-0.000013
 29,-0.00000268,0.00001406,-0.00000152,0.00000399,-0.00000743,-0.000004
 95,-0.00000919,0.00001077,-0.00003508,0.00003992,0.00000295,0.00002269
 ,-0.00016336,0.00000709,0.00000312,-0.00000217,-0.00000062,-0.00000331
 ,0.00000268,0.00000017,-0.00000373,0.00000304,0.00000255,0.00000259,-0
 .00000230,-0.00000208,-0.00013761,-0.00012978,-0.00011898,0.00009758,-
 0.00004101,-0.00000056,0.00022514,-0.00013807,-0.00008356,-0.00001543,
 0.00000392,0.00000639,-0.00000948,0.00006547,-0.00000973,0.00032286,-0
 .00001009,-0.00033205,-0.00018797,-0.00005968,0.00009707,-0.00036903,0
 .00032436,0.00031507,0.00017212,-0.00021318,0.00022601,0.00002497,0.00
 000098,0.00002937,-0.00010351,0.00002160,0.00004089,-0.00087140,0.0072
 5103,0.00218314,-0.00214538,-0.00109514,-0.00102021,0.00200218,0.00578
 656,0.00245866,-0.00016057,0.00784647,-0.00147471,-0.00008704,-0.00115
 059,-0.00004457,-0.01871341,-0.04333407,0.02282550,0.00030919,-0.00436
 267,-0.00038878,0.00412757,-0.00120392,0.00217901,0.00007547,0.0002473
 3,-0.00017004,-0.00498168,-0.00034412,-0.00042949,-0.00007196,0.000182
 47,0.00011038,-0.00027112,0.00054990,0.00035136,0.00121351,0.00088304,
 -0.00052498,-0.00021420,-0.00004209,-0.00008100,-0.00040688,-0.0001231
 7,0.00005750,0.00317330,0.00014157,0.00041681,-0.00027966,0.00087682,0
 .00009844,-0.00006197,0.00000074,-0.00001766,0.00047971,-0.00014961,0.
 00017737,-0.00041436,-0.00153384,-0.00040966,0.00012972,0.00021412,0.0
 0009932,-0.00000342,0.00002092,0.00000293,-0.00005879,0.00001166,-0.00
 000598,0.00005428,0.00000126,0.00001031,0.00002982,0.00001004,0.000006
 97,0.00000989,0.00002135,0.00000103,0.01711470,0.02954789,0.00000071,-
 0.00003018,0.00000883,-0.00000179,-0.00001012,0.00001257,-0.00000657,-
 0.00001518,0.00000629,-0.00000981,0.00001402,0.00000055,0.00002413,-0.
 00002778,0.00000095,-0.00010313,0.00021106,-0.00003012,0.00000297,-0.0
 0000626,0.00000105,-0.00000208,-0.00000072,0.00000028,0.00000077,-0.00
 000199,-0.00000044,-0.00000788,0.00000032,0.00000437,0.00002350,-0.000
 01852,0.00006470,0.00009924,-0.00005155,-0.00003824,0.00001582,0.00011
 563,-0.00010030,-0.00001302,0.00000295,-0.00000149,-0.00001456,0.00002
 811,0.00002048,0.00026579,-0.00013039,-0.00012675,-0.00001614,-0.00009
 890,0.00005344,0.00011217,-0.00020277,-0.00006293,-0.00023762,0.000152
 43,0.00013530,0.00002525,-0.00000419,-0.00000463,0.00005174,-0.0000228
 2,-0.00001997,-0.00035254,0.00025707,0.00170505,-0.00080690,-0.0001256
 1,0.00027397,-0.00322772,0.00005193,0.00260329,-0.00330815,-0.00037483
 ,-0.00308200,0.00007819,-0.00001209,-0.00002804,0.12063035,0.02414157,
 -0.27626772,0.00025114,-0.00031270,0.00055176,0.01142557,0.00260550,-0
 .01739569,0.00062036,0.00022595,-0.00079438,0.00130045,-0.00069778,0.0
 0040478,-0.00011652,0.00008531,0.00006104,-0.00013507,0.00000884,0.000
 01526,-0.00001898,0.00068166,0.00025514,-0.00008734,-0.00001482,-0.000
 01285,-0.00011700,-0.00021668,-0.00017521,-0.00101523,0.00036587,-0.00
 014254,0.00008238,-0.00001526,0.00011595,-0.00002209,-0.00001030,-0.00
 000451,0.00017770,-0.00007176,0.00003557,0.00004534,0.00015327,-0.0000
 5716,-0.00003617,-0.00002760,-0.00000283,-0.00000503,0.00000559,0.0000
 0101,0.00000461,-0.00000462,-0.00000916,-0.00000207,0.00000141,0.00000
 214,-0.00001650,-0.00001152,-0.00000570,0.00000196,0.00000548,0.000008
 57,-0.12556022,-0.02659704,0.29202037\\-0.00000054,-0.00000127,0.00000
 066,-0.00000019,-0.00000039,0.00000099,-0.00000043,-0.00000075,0.00000
 095,-0.00000025,-0.00000135,0.00000073,0.00000062,-0.00000117,0.000000
 37,0.00000032,-0.00000042,0.00000038,-0.00000039,-0.00000032,0.0000007
 0,-0.00000055,-0.00000071,0.00000103,-0.00000027,-0.00000122,0.0000008
 3,0.00000008,-0.00000120,0.00000033,-0.00000028,-0.00000009,0.00000024
 ,-0.00000028,0.00000015,0.00000097,-0.00000043,-0.00000023,-0.00000006
 ,-0.00000048,0.00000024,0.00000054,-0.00000012,-0.00000026,0.00000047,
 -0.00000026,0.00000007,-0.00000004,-0.00000026,0.00000063,0.00000030,0
 .00000063,-0.00000062,-0.00000277,-0.00000019,0.00000019,0.00000104,-0
 .00000003,-0.00000023,0.00000032,0.00000074,-0.00000061,-0.00000080,0.
 00000077,0.00000104,-0.00000346,0.00000318,-0.00000065,0.00000307,-0.0
 0000141,-0.00000025,0.00000029,-0.00000919,-0.00000539,0.00000077,-0.0
 0000019,-0.00000011,-0.00000045,-0.00000245,0.00000082,0.00000229,-0.0
 0000032,0.00000004,-0.00000021,0.00000867,-0.00000371,-0.00000283,0.00
 000188,0.00000079,-0.00000143,-0.00000123,0.00000571,-0.00000134,-0.00
 000046,0.00000058,0.00000022,0.00000109,-0.00000018,-0.00000014,0.0000
 0569,0.00000027,-0.00000181,0.00000010,0.00000026,0.00000090,-0.000001
 54,0.00000329,0.00000094,-0.00000087,0.00000328,0.00000262,0.00000045,
 0.00000155,0.00000166,-0.00000144,-0.00000023,-0.00000102,0.00000058,0
 .00000064,0.00000064,-0.00000226,-0.00000197,-0.00000260,0.00000026,0.
 00000045,-0.00000232,0.00000072,-0.00000012,0.00000029,0.00000041,0.00
 000067,-0.00000078,-0.00000017,0.00000076,-0.00000090,0.00000043,0.000
 00071,-0.00000069,-0.00000030,0.00000133,-0.00000036,0.00000015,-0.000
 00004,-0.00000054\\\@


 THE ATTENTION SPAN OF A COMPUTER IS AS LONG
 AS ITS EXTENSION CORD.
 Job cpu time:       0 days 16 hours 51 minutes 27.8 seconds.
 Elapsed time:       0 days  0 hours 16 minutes  3.0 seconds.
 File lengths (MBytes):  RWF=   1476 Int=      0 D2E=      0 Chk=     26 Scr=      1
 Normal termination of Gaussian 16 at Wed Nov  8 23:31:05 2023.
