 Entering Gaussian System, Link 0=/jet/home/xzhangj/programs/g16/g16
 Input=/jet/home/xzhangj/scratch/ch_1c_para_c5/ch_1c_para_c5.com
 Output=/jet/home/xzhangj/scratch/ch_1c_para_c5/ch_1c_para_c5.log
 Initial command:
 /jet/home/xzhangj/programs/g16/l1.exe "/ocean/projects/che220035p/xzhangj/scratch/ch_1c_para_c5/Gau-36410.inp" -scrdir="/ocean/projects/che220035p/xzhangj/scratch/ch_1c_para_c5/"
 Entering Link 1 = /jet/home/xzhangj/programs/g16/l1.exe PID=     36412.
  
 Copyright (c) 1988-2017, Gaussian, Inc.  All Rights Reserved.
  
 This is part of the Gaussian(R) 16 program.  It is based on
 the Gaussian(R) 09 system (copyright 2009, Gaussian, Inc.),
 the Gaussian(R) 03 system (copyright 2003, Gaussian, Inc.),
 the Gaussian(R) 98 system (copyright 1998, Gaussian, Inc.),
 the Gaussian(R) 94 system (copyright 1995, Gaussian, Inc.),
 the Gaussian 92(TM) system (copyright 1992, Gaussian, Inc.),
 the Gaussian 90(TM) system (copyright 1990, Gaussian, Inc.),
 the Gaussian 88(TM) system (copyright 1988, Gaussian, Inc.),
 the Gaussian 86(TM) system (copyright 1986, Carnegie Mellon
 University), and the Gaussian 82(TM) system (copyright 1983,
 Carnegie Mellon University). Gaussian is a federally registered
 trademark of Gaussian, Inc.
  
 This software contains proprietary and confidential information,
 including trade secrets, belonging to Gaussian, Inc.
  
 This software is provided under written license and may be
 used, copied, transmitted, or stored only in accord with that
 written license.
  
 The following legend is applicable only to US Government
 contracts under FAR:
  
                    RESTRICTED RIGHTS LEGEND
  
 Use, reproduction and disclosure by the US Government is
 subject to restrictions as set forth in subparagraphs (a)
 and (c) of the Commercial Computer Software - Restricted
 Rights clause in FAR 52.227-19.
  
 Gaussian, Inc.
 340 Quinnipiac St., Bldg. 40, Wallingford CT 06492
  
  
 ---------------------------------------------------------------
 Warning -- This program may not be used in any manner that
 competes with the business of Gaussian, Inc. or will provide
 assistance to any competitor of Gaussian, Inc.  The licensee
 of this program is prohibited from giving any competitor of
 Gaussian, Inc. access to this program.  By using this program,
 the user acknowledges that Gaussian, Inc. is engaged in the
 business of creating and licensing software in the field of
 computational chemistry and represents and warrants to the
 licensee that it is not a competitor of Gaussian, Inc. and that
 it will not use this program in any manner prohibited above.
 ---------------------------------------------------------------
  

 Cite this work as:
 Gaussian 16, Revision B.01,
 M. J. Frisch, G. W. Trucks, H. B. Schlegel, G. E. Scuseria, 
 M. A. Robb, J. R. Cheeseman, G. Scalmani, V. Barone, 
 G. A. Petersson, H. Nakatsuji, X. Li, M. Caricato, A. V. Marenich, 
 J. Bloino, B. G. Janesko, R. Gomperts, B. Mennucci, H. P. Hratchian, 
 J. V. Ortiz, A. F. Izmaylov, J. L. Sonnenberg, D. Williams-Young, 
 F. Ding, F. Lipparini, F. Egidi, J. Goings, B. Peng, A. Petrone, 
 T. Henderson, D. Ranasinghe, V. G. Zakrzewski, J. Gao, N. Rega, 
 G. Zheng, W. Liang, M. Hada, M. Ehara, K. Toyota, R. Fukuda, 
 J. Hasegawa, M. Ishida, T. Nakajima, Y. Honda, O. Kitao, H. Nakai, 
 T. Vreven, K. Throssell, J. A. Montgomery, Jr., J. E. Peralta, 
 F. Ogliaro, M. J. Bearpark, J. J. Heyd, E. N. Brothers, K. N. Kudin, 
 V. N. Staroverov, T. A. Keith, R. Kobayashi, J. Normand, 
 K. Raghavachari, A. P. Rendell, J. C. Burant, S. S. Iyengar, 
 J. Tomasi, M. Cossi, J. M. Millam, M. Klene, C. Adamo, R. Cammi, 
 J. W. Ochterski, R. L. Martin, K. Morokuma, O. Farkas, 
 J. B. Foresman, and D. J. Fox, Gaussian, Inc., Wallingford CT, 2016.
 
 ******************************************
 Gaussian 16:  ES64L-G16RevB.01 20-Dec-2017
                 9-Nov-2023 
 ******************************************
 %chk=ch_1c_para_c5.chk
 %nprocshared=64
 Will use up to   64 processors via shared memory.
 %mem=32GB
 ---------------------------------------------------------
 # opt=(ts,calcfc,noeigentest,maxstep=10) freq mn15 genecp
 ---------------------------------------------------------
 1/5=1,8=10,10=4,11=1,18=20,26=3,38=1/1,3;
 2/9=110,12=2,17=6,18=5,40=1/2;
 3/5=7,11=2,16=1,17=8,25=1,30=1,71=2,74=-73,140=1/1,2,3;
 4//1;
 5/5=2,38=5/2;
 8/6=4,10=90,11=11/1;
 11/6=1,8=1,9=11,15=111,16=1/1,2,10;
 10/6=1,13=1/2;
 6/7=2,8=2,9=2,10=2,28=1/1;
 7/10=1,18=20,25=1/1,2,3,16;
 1/5=1,8=10,10=4,11=1,18=20,26=3/3(2);
 2/9=110/2;
 99//99;
 2/9=110/2;
 3/5=7,6=1,11=2,16=1,17=8,25=1,30=1,71=1,74=-73,82=7/1,2,3;
 4/5=5,16=3,69=1/1;
 5/5=2,38=5/2;
 7//1,2,3,16;
 1/5=1,8=10,11=1,18=20,26=3/3(-5);
 2/9=110/2;
 6/7=2,8=2,9=2,10=2,19=2,28=1/1;
 99/9=1/99;
 ------------
 Gaussian job
 ------------
 Symbolic Z-matrix:
 Charge =  0 Multiplicity = 1
 C                     3.63956  -1.01012  -0.3685 
 C                     4.01155  -1.71599  -1.50561 
 C                     5.17127  -1.38906  -2.18381 
 C                     5.95867  -0.33828  -1.74209 
 C                     5.59115   0.38467  -0.62139 
 C                     4.43964   0.05099   0.0792 
 H                     3.39127  -2.53225  -1.84511 
 H                     5.45873  -1.95003  -3.05958 
 H                     6.86243  -0.07923  -2.2723 
 H                     6.19861   1.20625  -0.27177 
 C                     2.38242  -1.2615    0.34077 
 C                     2.31522  -1.41205   1.72711 
 C                     1.16161  -1.18112  -0.32557 
 H                     3.20801  -1.47156   2.33261 
 H                     1.11593  -1.07326  -1.4037 
 C                     0.05737  -1.34831   1.6624 
 H                    -0.88627  -1.39826   2.20837 
 O                     4.07907   0.73894   1.21607 
 C                     3.49547   2.02368   1.00122 
 H                     3.50251   2.49734   1.98511 
 H                     4.11479   2.60934   0.30972 
 C                     2.08712   1.90652   0.4725 
 C                     1.86112   1.81183  -0.89765 
 C                     1.00451   1.83783   1.34402 
 C                     0.58228   1.60153  -1.38614 
 H                     2.69649   1.89029  -1.58067 
 C                    -0.28677   1.68391   0.85147 
 H                     1.17909   1.91436   2.40849 
 C                    -0.52543   1.5384   -0.53012 
 H                     0.43202   1.52087  -2.45526 
 H                    -1.67905   1.96872  -1.01116 
 N                     1.15917  -1.49086   2.36499 
 N                     0.01269  -1.17311   0.33974 
 Pd                   -1.6947   -0.22171  -0.04355 
 O                    -4.7614   -2.55793   0.94953 
 O                    -2.72437  -1.85055   0.50237 
 O                    -2.85274   2.47207  -1.33359 
 N                    -3.49771   0.56476  -0.32386 
 C                    -4.55851  -0.33381   0.09033 
 C                    -3.99607  -1.70192   0.55803 
 C                    -3.76405   1.6793   -0.94542 
 C                    -5.19141   2.08978  -1.21993 
 H                    -5.1348    0.09278   0.92338 
 H                    -5.76271   2.1137   -0.29444 
 H                    -5.18922   3.07518  -1.67641 
 H                    -5.66071   1.37934  -1.89804 
 H                    -5.25914  -0.53537  -0.73089 
 H                    -1.12685   1.77174   1.55149 
 
 Add virtual bond connecting atoms C29        and H31        Dist= 2.50D+00.
 Add virtual bond connecting atoms O37        and H31        Dist= 2.49D+00.

 GradGradGradGradGradGradGradGradGradGradGradGradGradGradGradGradGradGrad
 Berny optimization.
 Initialization pass.
                           ----------------------------
                           !    Initial Parameters    !
                           ! (Angstroms and Degrees)  !
 --------------------------                            --------------------------
 ! Name  Definition              Value          Derivative Info.                !
 --------------------------------------------------------------------------------
 ! R1    R(1,2)                  1.3891         calculate D2E/DX2 analytically  !
 ! R2    R(1,6)                  1.4023         calculate D2E/DX2 analytically  !
 ! R3    R(1,11)                 1.4652         calculate D2E/DX2 analytically  !
 ! R4    R(2,3)                  1.3827         calculate D2E/DX2 analytically  !
 ! R5    R(2,7)                  1.0799         calculate D2E/DX2 analytically  !
 ! R6    R(3,4)                  1.3854         calculate D2E/DX2 analytically  !
 ! R7    R(3,8)                  1.079          calculate D2E/DX2 analytically  !
 ! R8    R(4,5)                  1.3834         calculate D2E/DX2 analytically  !
 ! R9    R(4,9)                  1.0794         calculate D2E/DX2 analytically  !
 ! R10   R(5,6)                  1.3886         calculate D2E/DX2 analytically  !
 ! R11   R(5,10)                 1.0799         calculate D2E/DX2 analytically  !
 ! R12   R(6,18)                 1.3769         calculate D2E/DX2 analytically  !
 ! R13   R(11,12)                1.3961         calculate D2E/DX2 analytically  !
 ! R14   R(11,13)                1.3931         calculate D2E/DX2 analytically  !
 ! R15   R(12,14)                1.0804         calculate D2E/DX2 analytically  !
 ! R16   R(12,32)                1.3227         calculate D2E/DX2 analytically  !
 ! R17   R(13,15)                1.0845         calculate D2E/DX2 analytically  !
 ! R18   R(13,33)                1.3277         calculate D2E/DX2 analytically  !
 ! R19   R(16,17)                1.0914         calculate D2E/DX2 analytically  !
 ! R20   R(16,32)                1.3145         calculate D2E/DX2 analytically  !
 ! R21   R(16,33)                1.335          calculate D2E/DX2 analytically  !
 ! R22   R(18,19)                1.4273         calculate D2E/DX2 analytically  !
 ! R23   R(19,20)                1.092          calculate D2E/DX2 analytically  !
 ! R24   R(19,21)                1.0976         calculate D2E/DX2 analytically  !
 ! R25   R(19,22)                1.5089         calculate D2E/DX2 analytically  !
 ! R26   R(22,23)                1.3919         calculate D2E/DX2 analytically  !
 ! R27   R(22,24)                1.3915         calculate D2E/DX2 analytically  !
 ! R28   R(23,25)                1.385          calculate D2E/DX2 analytically  !
 ! R29   R(23,26)                1.0819         calculate D2E/DX2 analytically  !
 ! R30   R(24,27)                1.3906         calculate D2E/DX2 analytically  !
 ! R31   R(24,28)                1.0814         calculate D2E/DX2 analytically  !
 ! R32   R(25,29)                1.4014         calculate D2E/DX2 analytically  !
 ! R33   R(25,30)                1.0826         calculate D2E/DX2 analytically  !
 ! R34   R(27,29)                1.4096         calculate D2E/DX2 analytically  !
 ! R35   R(27,48)                1.097          calculate D2E/DX2 analytically  !
 ! R36   R(29,31)                1.3219         calculate D2E/DX2 analytically  !
 ! R37   R(29,34)                2.1684         calculate D2E/DX2 analytically  !
 ! R38   R(31,37)                1.3171         calculate D2E/DX2 analytically  !
 ! R39   R(33,34)                1.9918         calculate D2E/DX2 analytically  !
 ! R40   R(34,36)                2.0028         calculate D2E/DX2 analytically  !
 ! R41   R(34,38)                1.9869         calculate D2E/DX2 analytically  !
 ! R42   R(35,40)                1.2132         calculate D2E/DX2 analytically  !
 ! R43   R(36,40)                1.2816         calculate D2E/DX2 analytically  !
 ! R44   R(37,41)                1.2687         calculate D2E/DX2 analytically  !
 ! R45   R(38,39)                1.4506         calculate D2E/DX2 analytically  !
 ! R46   R(38,41)                1.3036         calculate D2E/DX2 analytically  !
 ! R47   R(39,40)                1.5514         calculate D2E/DX2 analytically  !
 ! R48   R(39,43)                1.0991         calculate D2E/DX2 analytically  !
 ! R49   R(39,47)                1.0981         calculate D2E/DX2 analytically  !
 ! R50   R(41,42)                1.5104         calculate D2E/DX2 analytically  !
 ! R51   R(42,44)                1.0879         calculate D2E/DX2 analytically  !
 ! R52   R(42,45)                1.086          calculate D2E/DX2 analytically  !
 ! R53   R(42,46)                1.0885         calculate D2E/DX2 analytically  !
 ! A1    A(2,1,6)              119.5416         calculate D2E/DX2 analytically  !
 ! A2    A(2,1,11)             122.6059         calculate D2E/DX2 analytically  !
 ! A3    A(6,1,11)             117.6983         calculate D2E/DX2 analytically  !
 ! A4    A(1,2,3)              120.3956         calculate D2E/DX2 analytically  !
 ! A5    A(1,2,7)              119.1831         calculate D2E/DX2 analytically  !
 ! A6    A(3,2,7)              120.4155         calculate D2E/DX2 analytically  !
 ! A7    A(2,3,4)              119.9785         calculate D2E/DX2 analytically  !
 ! A8    A(2,3,8)              119.909          calculate D2E/DX2 analytically  !
 ! A9    A(4,3,8)              120.1118         calculate D2E/DX2 analytically  !
 ! A10   A(3,4,5)              120.2443         calculate D2E/DX2 analytically  !
 ! A11   A(3,4,9)              120.0877         calculate D2E/DX2 analytically  !
 ! A12   A(5,4,9)              119.668          calculate D2E/DX2 analytically  !
 ! A13   A(4,5,6)              120.2297         calculate D2E/DX2 analytically  !
 ! A14   A(4,5,10)             120.6916         calculate D2E/DX2 analytically  !
 ! A15   A(6,5,10)             119.0746         calculate D2E/DX2 analytically  !
 ! A16   A(1,6,5)              119.5967         calculate D2E/DX2 analytically  !
 ! A17   A(1,6,18)             119.4896         calculate D2E/DX2 analytically  !
 ! A18   A(5,6,18)             120.9104         calculate D2E/DX2 analytically  !
 ! A19   A(1,11,12)            122.7188         calculate D2E/DX2 analytically  !
 ! A20   A(1,11,13)            120.6932         calculate D2E/DX2 analytically  !
 ! A21   A(12,11,13)           116.0398         calculate D2E/DX2 analytically  !
 ! A22   A(11,12,14)           121.5126         calculate D2E/DX2 analytically  !
 ! A23   A(11,12,32)           121.8287         calculate D2E/DX2 analytically  !
 ! A24   A(14,12,32)           116.6586         calculate D2E/DX2 analytically  !
 ! A25   A(11,13,15)           121.2089         calculate D2E/DX2 analytically  !
 ! A26   A(11,13,33)           121.2639         calculate D2E/DX2 analytically  !
 ! A27   A(15,13,33)           117.4596         calculate D2E/DX2 analytically  !
 ! A28   A(17,16,32)           116.8968         calculate D2E/DX2 analytically  !
 ! A29   A(17,16,33)           118.2121         calculate D2E/DX2 analytically  !
 ! A30   A(32,16,33)           124.8794         calculate D2E/DX2 analytically  !
 ! A31   A(6,18,19)            115.6275         calculate D2E/DX2 analytically  !
 ! A32   A(18,19,20)           104.6057         calculate D2E/DX2 analytically  !
 ! A33   A(18,19,21)           110.1451         calculate D2E/DX2 analytically  !
 ! A34   A(18,19,22)           111.3758         calculate D2E/DX2 analytically  !
 ! A35   A(20,19,21)           109.4236         calculate D2E/DX2 analytically  !
 ! A36   A(20,19,22)           110.8192         calculate D2E/DX2 analytically  !
 ! A37   A(21,19,22)           110.3242         calculate D2E/DX2 analytically  !
 ! A38   A(19,22,23)           120.1169         calculate D2E/DX2 analytically  !
 ! A39   A(19,22,24)           120.6998         calculate D2E/DX2 analytically  !
 ! A40   A(23,22,24)           119.1338         calculate D2E/DX2 analytically  !
 ! A41   A(22,23,25)           120.4933         calculate D2E/DX2 analytically  !
 ! A42   A(22,23,26)           119.4165         calculate D2E/DX2 analytically  !
 ! A43   A(25,23,26)           120.0848         calculate D2E/DX2 analytically  !
 ! A44   A(22,24,27)           120.403          calculate D2E/DX2 analytically  !
 ! A45   A(22,24,28)           119.1708         calculate D2E/DX2 analytically  !
 ! A46   A(27,24,28)           120.424          calculate D2E/DX2 analytically  !
 ! A47   A(23,25,29)           121.4161         calculate D2E/DX2 analytically  !
 ! A48   A(23,25,30)           119.1933         calculate D2E/DX2 analytically  !
 ! A49   A(29,25,30)           119.3516         calculate D2E/DX2 analytically  !
 ! A50   A(24,27,29)           121.0517         calculate D2E/DX2 analytically  !
 ! A51   A(24,27,48)           118.4389         calculate D2E/DX2 analytically  !
 ! A52   A(29,27,48)           120.2678         calculate D2E/DX2 analytically  !
 ! A53   A(25,29,27)           117.403          calculate D2E/DX2 analytically  !
 ! A54   A(25,29,31)           116.9282         calculate D2E/DX2 analytically  !
 ! A55   A(25,29,34)           126.8613         calculate D2E/DX2 analytically  !
 ! A56   A(27,29,31)           118.0881         calculate D2E/DX2 analytically  !
 ! A57   A(27,29,34)            87.4298         calculate D2E/DX2 analytically  !
 ! A58   A(31,29,34)            82.8366         calculate D2E/DX2 analytically  !
 ! A59   A(12,32,16)           117.9272         calculate D2E/DX2 analytically  !
 ! A60   A(13,33,16)           117.823          calculate D2E/DX2 analytically  !
 ! A61   A(13,33,34)           130.4098         calculate D2E/DX2 analytically  !
 ! A62   A(16,33,34)           106.3815         calculate D2E/DX2 analytically  !
 ! A63   A(29,34,33)            88.2042         calculate D2E/DX2 analytically  !
 ! A64   A(29,34,38)            97.8377         calculate D2E/DX2 analytically  !
 ! A65   A(33,34,36)            89.9875         calculate D2E/DX2 analytically  !
 ! A66   A(36,34,38)            83.9065         calculate D2E/DX2 analytically  !
 ! A67   A(34,36,40)           115.3191         calculate D2E/DX2 analytically  !
 ! A68   A(31,37,41)           109.0485         calculate D2E/DX2 analytically  !
 ! A69   A(34,38,39)           112.2168         calculate D2E/DX2 analytically  !
 ! A70   A(34,38,41)           126.2324         calculate D2E/DX2 analytically  !
 ! A71   A(39,38,41)           121.0857         calculate D2E/DX2 analytically  !
 ! A72   A(38,39,40)           111.5443         calculate D2E/DX2 analytically  !
 ! A73   A(38,39,43)           111.0642         calculate D2E/DX2 analytically  !
 ! A74   A(38,39,47)           111.5146         calculate D2E/DX2 analytically  !
 ! A75   A(40,39,43)           107.6895         calculate D2E/DX2 analytically  !
 ! A76   A(40,39,47)           107.1516         calculate D2E/DX2 analytically  !
 ! A77   A(43,39,47)           107.6685         calculate D2E/DX2 analytically  !
 ! A78   A(35,40,36)           123.9299         calculate D2E/DX2 analytically  !
 ! A79   A(35,40,39)           119.3945         calculate D2E/DX2 analytically  !
 ! A80   A(36,40,39)           116.6756         calculate D2E/DX2 analytically  !
 ! A81   A(37,41,38)           122.2316         calculate D2E/DX2 analytically  !
 ! A82   A(37,41,42)           116.9612         calculate D2E/DX2 analytically  !
 ! A83   A(38,41,42)           120.8031         calculate D2E/DX2 analytically  !
 ! A84   A(41,42,44)           110.3435         calculate D2E/DX2 analytically  !
 ! A85   A(41,42,45)           108.7291         calculate D2E/DX2 analytically  !
 ! A86   A(41,42,46)           110.0776         calculate D2E/DX2 analytically  !
 ! A87   A(44,42,45)           109.797          calculate D2E/DX2 analytically  !
 ! A88   A(44,42,46)           108.537          calculate D2E/DX2 analytically  !
 ! A89   A(45,42,46)           109.3444         calculate D2E/DX2 analytically  !
 ! A90   L(29,31,37,35,-1)     179.6653         calculate D2E/DX2 analytically  !
 ! A91   L(29,34,36,38,-1)     181.7442         calculate D2E/DX2 analytically  !
 ! A92   L(33,34,38,36,-1)     173.894          calculate D2E/DX2 analytically  !
 ! A93   L(29,31,37,35,-2)     172.3415         calculate D2E/DX2 analytically  !
 ! A94   L(29,34,36,38,-2)     182.6006         calculate D2E/DX2 analytically  !
 ! A95   L(33,34,38,36,-2)     178.7025         calculate D2E/DX2 analytically  !
 ! D1    D(6,1,2,3)              0.8567         calculate D2E/DX2 analytically  !
 ! D2    D(6,1,2,7)            179.9854         calculate D2E/DX2 analytically  !
 ! D3    D(11,1,2,3)           176.2369         calculate D2E/DX2 analytically  !
 ! D4    D(11,1,2,7)            -4.6345         calculate D2E/DX2 analytically  !
 ! D5    D(2,1,6,5)              0.1634         calculate D2E/DX2 analytically  !
 ! D6    D(2,1,6,18)          -179.1755         calculate D2E/DX2 analytically  !
 ! D7    D(11,1,6,5)          -175.4416         calculate D2E/DX2 analytically  !
 ! D8    D(11,1,6,18)            5.2195         calculate D2E/DX2 analytically  !
 ! D9    D(2,1,11,12)          132.5957         calculate D2E/DX2 analytically  !
 ! D10   D(2,1,11,13)          -56.235          calculate D2E/DX2 analytically  !
 ! D11   D(6,1,11,12)          -51.9436         calculate D2E/DX2 analytically  !
 ! D12   D(6,1,11,13)          119.2257         calculate D2E/DX2 analytically  !
 ! D13   D(1,2,3,4)             -1.0263         calculate D2E/DX2 analytically  !
 ! D14   D(1,2,3,8)            179.2861         calculate D2E/DX2 analytically  !
 ! D15   D(7,2,3,4)            179.8558         calculate D2E/DX2 analytically  !
 ! D16   D(7,2,3,8)              0.1683         calculate D2E/DX2 analytically  !
 ! D17   D(2,3,4,5)              0.1675         calculate D2E/DX2 analytically  !
 ! D18   D(2,3,4,9)           -179.7739         calculate D2E/DX2 analytically  !
 ! D19   D(8,3,4,5)            179.8545         calculate D2E/DX2 analytically  !
 ! D20   D(8,3,4,9)             -0.087          calculate D2E/DX2 analytically  !
 ! D21   D(3,4,5,6)              0.8564         calculate D2E/DX2 analytically  !
 ! D22   D(3,4,5,10)          -179.8895         calculate D2E/DX2 analytically  !
 ! D23   D(9,4,5,6)           -179.2018         calculate D2E/DX2 analytically  !
 ! D24   D(9,4,5,10)             0.0522         calculate D2E/DX2 analytically  !
 ! D25   D(4,5,6,1)             -1.0162         calculate D2E/DX2 analytically  !
 ! D26   D(4,5,6,18)           178.3131         calculate D2E/DX2 analytically  !
 ! D27   D(10,5,6,1)           179.7177         calculate D2E/DX2 analytically  !
 ! D28   D(10,5,6,18)           -0.953          calculate D2E/DX2 analytically  !
 ! D29   D(1,6,18,19)         -103.7721         calculate D2E/DX2 analytically  !
 ! D30   D(5,6,18,19)           76.8978         calculate D2E/DX2 analytically  !
 ! D31   D(1,11,12,14)          -7.6974         calculate D2E/DX2 analytically  !
 ! D32   D(1,11,12,32)         172.3995         calculate D2E/DX2 analytically  !
 ! D33   D(13,11,12,14)       -179.2487         calculate D2E/DX2 analytically  !
 ! D34   D(13,11,12,32)          0.8483         calculate D2E/DX2 analytically  !
 ! D35   D(1,11,13,15)           8.8701         calculate D2E/DX2 analytically  !
 ! D36   D(1,11,13,33)        -168.0635         calculate D2E/DX2 analytically  !
 ! D37   D(12,11,13,15)       -179.3947         calculate D2E/DX2 analytically  !
 ! D38   D(12,11,13,33)          3.6717         calculate D2E/DX2 analytically  !
 ! D39   D(11,12,32,16)         -3.7241         calculate D2E/DX2 analytically  !
 ! D40   D(14,12,32,16)        176.3684         calculate D2E/DX2 analytically  !
 ! D41   D(11,13,33,16)         -5.0578         calculate D2E/DX2 analytically  !
 ! D42   D(11,13,33,34)        145.1836         calculate D2E/DX2 analytically  !
 ! D43   D(15,13,33,16)        177.8978         calculate D2E/DX2 analytically  !
 ! D44   D(15,13,33,34)        -31.8609         calculate D2E/DX2 analytically  !
 ! D45   D(17,16,32,12)       -178.9216         calculate D2E/DX2 analytically  !
 ! D46   D(33,16,32,12)          2.3498         calculate D2E/DX2 analytically  !
 ! D47   D(17,16,33,13)       -176.6658         calculate D2E/DX2 analytically  !
 ! D48   D(17,16,33,34)         26.5331         calculate D2E/DX2 analytically  !
 ! D49   D(32,16,33,13)          2.0475         calculate D2E/DX2 analytically  !
 ! D50   D(32,16,33,34)       -154.7536         calculate D2E/DX2 analytically  !
 ! D51   D(6,18,19,20)        -166.9417         calculate D2E/DX2 analytically  !
 ! D52   D(6,18,19,21)         -49.4485         calculate D2E/DX2 analytically  !
 ! D53   D(6,18,19,22)          73.295          calculate D2E/DX2 analytically  !
 ! D54   D(18,19,22,23)        -87.8972         calculate D2E/DX2 analytically  !
 ! D55   D(18,19,22,24)         89.5219         calculate D2E/DX2 analytically  !
 ! D56   D(20,19,22,23)        156.0919         calculate D2E/DX2 analytically  !
 ! D57   D(20,19,22,24)        -26.489          calculate D2E/DX2 analytically  !
 ! D58   D(21,19,22,23)         34.7435         calculate D2E/DX2 analytically  !
 ! D59   D(21,19,22,24)       -147.8375         calculate D2E/DX2 analytically  !
 ! D60   D(19,22,23,25)        175.0468         calculate D2E/DX2 analytically  !
 ! D61   D(19,22,23,26)         -4.1107         calculate D2E/DX2 analytically  !
 ! D62   D(24,22,23,25)         -2.4126         calculate D2E/DX2 analytically  !
 ! D63   D(24,22,23,26)        178.4299         calculate D2E/DX2 analytically  !
 ! D64   D(19,22,24,27)       -177.7912         calculate D2E/DX2 analytically  !
 ! D65   D(19,22,24,28)          2.7409         calculate D2E/DX2 analytically  !
 ! D66   D(23,22,24,27)         -0.347          calculate D2E/DX2 analytically  !
 ! D67   D(23,22,24,28)       -179.8149         calculate D2E/DX2 analytically  !
 ! D68   D(22,23,25,29)          2.9234         calculate D2E/DX2 analytically  !
 ! D69   D(22,23,25,30)       -179.3634         calculate D2E/DX2 analytically  !
 ! D70   D(26,23,25,29)       -177.9247         calculate D2E/DX2 analytically  !
 ! D71   D(26,23,25,30)         -0.2116         calculate D2E/DX2 analytically  !
 ! D72   D(22,24,27,29)          2.6612         calculate D2E/DX2 analytically  !
 ! D73   D(22,24,27,48)       -171.706          calculate D2E/DX2 analytically  !
 ! D74   D(28,24,27,29)       -177.8777         calculate D2E/DX2 analytically  !
 ! D75   D(28,24,27,48)          7.7552         calculate D2E/DX2 analytically  !
 ! D76   D(23,25,29,27)         -0.6244         calculate D2E/DX2 analytically  !
 ! D77   D(23,25,29,31)        148.4863         calculate D2E/DX2 analytically  !
 ! D78   D(23,25,29,34)       -109.6239         calculate D2E/DX2 analytically  !
 ! D79   D(30,25,29,27)       -178.334          calculate D2E/DX2 analytically  !
 ! D80   D(30,25,29,31)        -29.2233         calculate D2E/DX2 analytically  !
 ! D81   D(30,25,29,34)         72.6665         calculate D2E/DX2 analytically  !
 ! D82   D(24,27,29,25)         -2.1517         calculate D2E/DX2 analytically  !
 ! D83   D(24,27,29,31)       -150.8984         calculate D2E/DX2 analytically  !
 ! D84   D(24,27,29,34)        128.6248         calculate D2E/DX2 analytically  !
 ! D85   D(48,27,29,25)        172.1131         calculate D2E/DX2 analytically  !
 ! D86   D(48,27,29,31)         23.3664         calculate D2E/DX2 analytically  !
 ! D87   D(48,27,29,34)        -57.1105         calculate D2E/DX2 analytically  !
 ! D88   D(25,29,36,40)       -138.9873         calculate D2E/DX2 analytically  !
 ! D89   D(27,29,36,40)         99.2515         calculate D2E/DX2 analytically  !
 ! D90   D(31,29,36,40)        -19.5657         calculate D2E/DX2 analytically  !
 ! D91   D(25,29,37,41)        139.3486         calculate D2E/DX2 analytically  !
 ! D92   D(27,29,37,41)        -73.47           calculate D2E/DX2 analytically  !
 ! D93   D(34,29,37,41)         10.5378         calculate D2E/DX2 analytically  !
 ! D94   D(25,29,34,33)         49.466          calculate D2E/DX2 analytically  !
 ! D95   D(25,29,34,38)       -132.1075         calculate D2E/DX2 analytically  !
 ! D96   D(27,29,34,33)        -73.3653         calculate D2E/DX2 analytically  !
 ! D97   D(27,29,34,38)        105.0612         calculate D2E/DX2 analytically  !
 ! D98   D(31,29,34,33)        167.9067         calculate D2E/DX2 analytically  !
 ! D99   D(31,29,34,38)        -13.6668         calculate D2E/DX2 analytically  !
 ! D100  D(13,33,34,29)        -43.3005         calculate D2E/DX2 analytically  !
 ! D101  D(13,33,34,36)        139.2367         calculate D2E/DX2 analytically  !
 ! D102  D(16,33,34,29)        109.471          calculate D2E/DX2 analytically  !
 ! D103  D(16,33,34,36)        -67.9918         calculate D2E/DX2 analytically  !
 ! D104  D(13,33,38,39)        142.6608         calculate D2E/DX2 analytically  !
 ! D105  D(13,33,38,41)        -29.6507         calculate D2E/DX2 analytically  !
 ! D106  D(16,33,38,39)        -62.4824         calculate D2E/DX2 analytically  !
 ! D107  D(16,33,38,41)        125.2061         calculate D2E/DX2 analytically  !
 ! D108  D(33,34,36,40)        173.2905         calculate D2E/DX2 analytically  !
 ! D109  D(38,34,36,40)         -5.412          calculate D2E/DX2 analytically  !
 ! D110  D(29,34,38,39)       -172.6837         calculate D2E/DX2 analytically  !
 ! D111  D(29,34,38,41)         15.1312         calculate D2E/DX2 analytically  !
 ! D112  D(36,34,38,39)          4.7156         calculate D2E/DX2 analytically  !
 ! D113  D(36,34,38,41)       -167.4695         calculate D2E/DX2 analytically  !
 ! D114  D(34,36,40,35)       -175.2315         calculate D2E/DX2 analytically  !
 ! D115  D(34,36,40,39)          4.7367         calculate D2E/DX2 analytically  !
 ! D116  D(31,37,41,38)          0.4001         calculate D2E/DX2 analytically  !
 ! D117  D(31,37,41,42)        179.6699         calculate D2E/DX2 analytically  !
 ! D118  D(34,38,39,40)         -3.5588         calculate D2E/DX2 analytically  !
 ! D119  D(34,38,39,43)        116.5825         calculate D2E/DX2 analytically  !
 ! D120  D(34,38,39,47)       -123.3229         calculate D2E/DX2 analytically  !
 ! D121  D(41,38,39,40)        169.0831         calculate D2E/DX2 analytically  !
 ! D122  D(41,38,39,43)        -70.7756         calculate D2E/DX2 analytically  !
 ! D123  D(41,38,39,47)         49.3189         calculate D2E/DX2 analytically  !
 ! D124  D(34,38,41,37)         -7.4648         calculate D2E/DX2 analytically  !
 ! D125  D(34,38,41,42)        173.2928         calculate D2E/DX2 analytically  !
 ! D126  D(39,38,41,37)       -179.0125         calculate D2E/DX2 analytically  !
 ! D127  D(39,38,41,42)          1.7452         calculate D2E/DX2 analytically  !
 ! D128  D(38,39,40,35)        179.2261         calculate D2E/DX2 analytically  !
 ! D129  D(38,39,40,36)         -0.7437         calculate D2E/DX2 analytically  !
 ! D130  D(43,39,40,35)         57.1187         calculate D2E/DX2 analytically  !
 ! D131  D(43,39,40,36)       -122.851          calculate D2E/DX2 analytically  !
 ! D132  D(47,39,40,35)        -58.4651         calculate D2E/DX2 analytically  !
 ! D133  D(47,39,40,36)        121.5651         calculate D2E/DX2 analytically  !
 ! D134  D(37,41,42,44)       -123.9014         calculate D2E/DX2 analytically  !
 ! D135  D(37,41,42,45)         -3.4288         calculate D2E/DX2 analytically  !
 ! D136  D(37,41,42,46)        116.3282         calculate D2E/DX2 analytically  !
 ! D137  D(38,41,42,44)         55.3795         calculate D2E/DX2 analytically  !
 ! D138  D(38,41,42,45)        175.8522         calculate D2E/DX2 analytically  !
 ! D139  D(38,41,42,46)        -64.3908         calculate D2E/DX2 analytically  !
 --------------------------------------------------------------------------------
 Trust Radius=1.00D-01 FncErr=1.00D-07 GrdErr=1.00D-06 EigMax=2.50D+02 EigMin=1.00D-04
 Number of steps in this run=    288 maximum allowed number of steps=    288.
 Search for a saddle point of order  1.
 GradGradGradGradGradGradGradGradGradGradGradGradGradGradGradGradGradGrad

                          Input orientation:                          
 ---------------------------------------------------------------------
 Center     Atomic      Atomic             Coordinates (Angstroms)
 Number     Number       Type             X           Y           Z
 ---------------------------------------------------------------------
      1          6           0        3.639564   -1.010116   -0.368501
      2          6           0        4.011551   -1.715990   -1.505610
      3          6           0        5.171268   -1.389057   -2.183806
      4          6           0        5.958671   -0.338285   -1.742094
      5          6           0        5.591152    0.384671   -0.621390
      6          6           0        4.439644    0.050990    0.079197
      7          1           0        3.391273   -2.532250   -1.845110
      8          1           0        5.458730   -1.950035   -3.059579
      9          1           0        6.862426   -0.079226   -2.272304
     10          1           0        6.198615    1.206246   -0.271770
     11          6           0        2.382425   -1.261501    0.340775
     12          6           0        2.315219   -1.412053    1.727106
     13          6           0        1.161615   -1.181117   -0.325574
     14          1           0        3.208009   -1.471563    2.332610
     15          1           0        1.115930   -1.073264   -1.403699
     16          6           0        0.057370   -1.348309    1.662400
     17          1           0       -0.886273   -1.398263    2.208375
     18          8           0        4.079069    0.738938    1.216067
     19          6           0        3.495469    2.023679    1.001219
     20          1           0        3.502514    2.497344    1.985111
     21          1           0        4.114794    2.609341    0.309724
     22          6           0        2.087121    1.906517    0.472496
     23          6           0        1.861125    1.811833   -0.897649
     24          6           0        1.004514    1.837832    1.344017
     25          6           0        0.582281    1.601533   -1.386144
     26          1           0        2.696489    1.890285   -1.580667
     27          6           0       -0.286774    1.683911    0.851474
     28          1           0        1.179091    1.914359    2.408489
     29          6           0       -0.525428    1.538400   -0.530115
     30          1           0        0.432022    1.520871   -2.455257
     31          1           0       -1.679053    1.968716   -1.011159
     32          7           0        1.159168   -1.490862    2.364995
     33          7           0        0.012695   -1.173113    0.339736
     34         46           0       -1.694703   -0.221714   -0.043550
     35          8           0       -4.761399   -2.557926    0.949527
     36          8           0       -2.724370   -1.850555    0.502373
     37          8           0       -2.852736    2.472071   -1.333590
     38          7           0       -3.497706    0.564759   -0.323859
     39          6           0       -4.558507   -0.333811    0.090328
     40          6           0       -3.996066   -1.701915    0.558030
     41          6           0       -3.764048    1.679299   -0.945423
     42          6           0       -5.191407    2.089783   -1.219932
     43          1           0       -5.134797    0.092778    0.923380
     44          1           0       -5.762714    2.113703   -0.294441
     45          1           0       -5.189221    3.075183   -1.676405
     46          1           0       -5.660707    1.379336   -1.898037
     47          1           0       -5.259141   -0.535366   -0.730892
     48          1           0       -1.126855    1.771745    1.551490
 ---------------------------------------------------------------------
                    Distance matrix (angstroms):
                    1          2          3          4          5
     1  C    0.000000
     2  C    1.389118   0.000000
     3  C    2.405212   1.382670   0.000000
     4  C    2.777836   2.396930   1.385365   0.000000
     5  C    2.412069   2.773041   2.400741   1.383370   0.000000
     6  C    1.402323   2.411865   2.780322   2.403347   1.388572
     7  H    2.135161   1.079947   2.142426   3.378702   3.852971
     8  H    3.381525   2.136334   1.079032   2.140898   3.378336
     9  H    3.857182   3.375544   2.140912   1.079355   2.134679
    10  H    3.386792   3.852931   3.383330   2.145927   1.079922
    11  C    1.465151   2.503947   3.763964   4.240307   3.732502
    12  C    2.511377   3.663383   4.842807   5.144227   4.413093
    13  C    2.484214   3.130609   4.424205   5.072341   4.707441
    14  H    2.774018   3.929040   4.925363   5.045163   4.225054
    15  H    2.728434   2.967845   4.141746   4.909873   4.771288
    16  C    4.131713   5.080062   6.398978   6.887386   6.232308
    17  H    5.222466   6.154942   7.482322   7.973896   7.289955
    18  O    2.400669   3.665891   4.156970   3.666610   2.405857
    19  C    3.331788   4.531628   4.959783   4.378584   3.116262
    20  H    4.226175   5.495128   5.938747   5.288247   3.952170
    21  H    3.712992   4.691971   4.829184   4.037120   2.827678
    22  C    3.409415   4.553998   5.237243   4.993240   3.973769
    23  C    3.377313   4.176061   4.780893   4.703826   4.003275
    24  C    4.241111   5.458232   6.341938   6.229224   5.197283
    25  C    4.147685   4.772854   5.535223   5.726707   5.210988
    26  H    3.281930   3.839302   4.152396   3.954038   3.400906
    27  C    4.915512   5.965800   6.960336   7.058431   6.197367
    28  H    4.724210   6.043379   6.923814   6.719086   5.566542
    29  C    4.885511   5.668053   6.614910   6.858162   6.225108
    30  H    4.587894   4.918549   5.567927   5.874428   5.592015
    31  H    6.129775   6.797391   7.718590   8.011951   7.450973
    32  N    3.722295   4.813351   6.066209   6.421202   5.663796
    33  N    3.698966   4.437440   5.746805   6.354966   5.871085
    34  Pd   5.401997   6.077155   7.285941   7.840457   7.333844
    35  O    8.643442   9.148836  10.480548  11.273488  10.876670
    36  O    6.477995   7.030131   8.352822   9.095043   8.683720
    37  O    7.430140   8.042878   8.945156   9.257747   8.727182
    38  N    7.309094   7.936454   9.078981   9.604683   9.095509
    39  C    8.238707   8.826287  10.047575  10.675619  10.199919
    40  C    7.722687   8.269265   9.573691  10.307611   9.882288
    41  C    7.898055   8.503043   9.528288   9.961757   9.449911
    42  C    9.397892   9.962930  10.973442  11.423328  10.932943
    43  H    8.937268   9.634694  10.865791  11.417338  10.840549
    44  H    9.907904  10.567391  11.635763  12.062289  11.489418
    45  H    9.815688  10.374908  11.292769  11.658970  11.161019
    46  H    9.723374  10.163052  11.183798  11.746679  11.367652
    47  H    8.918726   9.377623  10.565661  11.265021  10.889780
    48  H    5.843276   6.921949   7.975553   8.093491   7.195623
                    6          7          8          9         10
     6  C    0.000000
     7  H    3.387502   0.000000
     8  H    3.859346   2.467446   0.000000
     9  H    3.378813   4.271852   2.467810   0.000000
    10  H    2.133488   4.932841   4.275678   2.468850   0.000000
    11  C    2.454223   2.722254   4.636824   5.319432   4.585662
    12  C    3.060929   3.895312   5.751821   6.200709   5.092324
    13  C    3.525253   3.017603   5.150847   6.123983   5.574385
    14  H    2.985458   4.314161   5.862626   6.041406   4.785099
    15  H    3.809200   2.738735   4.729755   5.896168   5.684287
    16  C    4.865070   4.981892   7.199574   7.962490   6.926880
    17  H    5.916006   6.001172   8.265280   9.047578   7.945453
    18  O    1.376866   4.532608   5.235952   4.537091   2.631447
    19  C    2.373414   5.372982   6.011229   5.145343   3.097691
    20  H    3.239656   6.322957   7.003917   6.004440   3.745585
    21  H    2.589176   5.621633   5.826344   4.630847   2.578589
    22  C    3.021926   5.174434   6.222242   5.854967   4.236590
    23  C    3.271630   4.702137   5.636343   5.520760   4.424057
    24  C    4.073413   5.913101   7.319811   7.146189   5.476162
    25  C    4.408023   5.018889   6.260494   6.561285   5.739451
    26  H    3.029314   4.484581   4.956331   4.659653   3.800790
    27  C    5.059829   6.210926   7.843004   7.998606   6.599251
    28  H    4.419157   6.539050   7.946610   7.627876   5.734181
    29  C    5.218773   5.799996   7.374111   7.760948   6.737197
    30  H    4.964377   5.055416   6.138419   6.629017   6.174155
    31  H    6.504230   6.830986   8.396463   8.873636   7.948944
    32  N    4.285289   4.877680   6.937080   7.484944   6.294676
    33  N    4.600456   4.246833   6.466703   7.412028   6.655892
    34  Pd   6.141632   5.869527   7.953309   8.843760   8.024688
    35  O    9.603287   8.618393  10.995158  12.314116  11.652573
    36  O    7.424154   6.586082   8.925275  10.136227   9.463773
    37  O    7.812580   8.018262   9.571548  10.088343   9.200909
    38  N    7.964166   7.704784   9.696706  10.561415   9.717657
    39  C    9.006383   8.472193  10.624460  11.665529  10.872837
    40  C    8.629205   7.812638  10.126294  11.338023  10.633790
    41  C    8.426257   8.351359  10.134168  10.852418   9.996611
    42  C    9.929833   9.768134  11.538192  12.292558  11.463519
    43  H    9.611677   9.340727  11.500429  12.416736  11.450521
    44  H   10.415494  10.381952  12.250746  12.965918  11.995724
    45  H   10.244166  10.251665  11.855161  12.471872  11.625349
    46  H   10.377430   9.861117  11.665152  12.613339  11.971558
    47  H    9.750205   8.947552  11.058791  12.227690  11.598456
    48  H    6.009539   7.104558   8.859093   9.048541   7.570110
                   11         12         13         14         15
    11  C    0.000000
    12  C    1.396100   0.000000
    13  C    1.393147   2.365930   0.000000
    14  H    2.166361   1.080394   3.367199   0.000000
    15  H    2.163939   3.369720   1.084469   4.300632   0.000000
    16  C    2.675838   2.259675   2.280208   3.223492   3.255328
    17  H    3.767097   3.237493   3.265255   4.096822   4.142646
    18  O    2.765229   2.828266   3.817696   2.625209   4.350568
    19  C    3.530930   3.704614   4.180667   3.751260   4.586600
    20  H    4.252923   4.093852   4.934587   3.994960   5.470746
    21  H    4.240930   4.628073   4.846900   4.644147   5.048820
    22  C    3.184478   3.555135   3.320687   4.015948   3.652727
    23  C    3.354226   4.181983   3.126393   4.798891   3.022447
    24  C    3.537089   3.525118   3.453443   4.096926   4.004602
    25  C    3.797333   4.666595   3.033740   5.492495   2.727569
    26  H    3.704636   4.689581   3.655764   5.184342   3.363348
    27  C    4.007604   4.137885   3.419306   4.936019   3.828237
    28  H    3.976121   3.580515   4.130057   3.948003   4.843827
    29  C    4.129589   4.676484   3.206825   5.585125   3.205931
    30  H    4.400393   5.444321   3.516901   6.291615   2.881499
    31  H    5.362614   5.906091   4.296611   6.848335   4.149658
    32  N    2.376221   1.322711   2.708340   2.049188   3.792006
    33  N    2.371378   2.698797   1.327674   3.777652   2.065590
    34  Pd   4.225143   4.542202   3.026308   5.589708   3.236479
    35  O    7.285981   7.210837   6.213177   8.161162   6.502683
    36  O    5.143195   5.204778   4.029209   6.219850   4.357201
    37  O    6.644544   7.152764   5.520588   8.107151   5.322088
    38  N    6.192972   6.473356   4.975676   7.494668   5.013463
    39  C    7.007130   7.147710   5.797473   8.163399   5.914232
    40  C    6.397368   6.425191   5.258674   7.422998   5.511450
    41  C    6.934100   7.325050   5.729603   8.323642   5.621459
    42  C    8.427921   8.791890   7.201358   9.790502   7.058409
    43  H    7.660426   7.642855   6.544272   8.604389   6.771007
    44  H    8.839615   9.042710   7.668320  10.011464   7.661786
    45  H    8.955762   9.382739   7.763630  10.356571   7.552411
    46  H    8.756613   9.195048   7.454705  10.231330   7.223740
    47  H    7.750437   8.011321   6.465863   9.052853   6.433004
    48  H    4.793898   4.692044   4.180891   5.469939   4.675179
                   16         17         18         19         20
    16  C    0.000000
    17  H    1.091350   0.000000
    18  O    4.553007   5.496082   0.000000
    19  C    4.860863   5.689164   1.427343   0.000000
    20  H    5.173220   5.872567   2.003955   1.091995   0.000000
    21  H    5.827128   6.684043   2.078736   1.097601   1.787275
    22  C    4.016174   4.772412   2.425695   1.508881   2.154163
    23  C    4.449031   5.244072   3.246256   2.514291   3.387387
    24  C    3.339153   3.846362   3.267541   2.521291   2.661946
    25  C    4.274426   4.906729   4.443321   3.790037   4.549242
    26  H    5.288754   6.165028   3.325485   2.705974   3.705802
    27  C    3.157593   3.420581   4.481795   3.800425   4.038008
    28  H    3.529860   3.908867   3.348635   2.712557   2.432573
    29  C    3.671494   4.031567   4.988956   4.329907   4.844611
    30  H    5.032659   5.657623   5.233640   4.645939   5.486191
    31  H    4.600623   4.725510   6.295146   5.552330   6.008804
    32  N    1.314504   2.053518   3.849397   4.435108   4.641267
    33  N    1.334964   2.085820   4.578132   4.773548   5.325256
    34  Pd   2.692441   2.666269   5.987146   5.750758   6.206432
    35  O    5.019152   4.236286   9.438973   9.442968   9.742712
    36  O    3.055485   2.548256   7.314480   7.344722   7.738011
    37  O    5.660386   5.602854   7.586463   6.778798   7.169631
    38  N    4.499290   4.133430   7.733642   7.265589   7.620322
    39  C    4.980656   4.370868   8.776434   8.441210   8.751326
    40  C    4.216042   3.533646   8.461594   8.378519   8.712005
    41  C    5.529049   5.263024   8.189676   7.523869   7.877826
    42  C    6.904924   6.515668   9.679907   8.966589   9.274841
    43  H    5.438886   4.682347   9.241132   8.843978   9.028419
    44  H    7.048981   6.509814  10.051483   9.348839   9.549240
    45  H    7.631619   7.322472   9.986272   9.148725   9.449172
    46  H    7.267266   6.882797  10.245535   9.625820  10.014659
    47  H    5.886766   5.339087   9.623755   9.283971   9.661294
    48  H    3.339075   3.246279   5.317973   4.661775   4.705908
                   21         22         23         24         25
    21  H    0.000000
    22  C    2.152188   0.000000
    23  C    2.678207   1.391882   0.000000
    24  C    3.367318   1.391511   2.399901   0.000000
    25  C    4.046022   2.410830   1.385026   2.772706   0.000000
    26  H    2.470265   2.141745   1.081897   3.379246   2.142684
    27  C    4.530310   2.414240   2.772952   1.390581   2.401870
    28  H    3.675073   2.138375   3.377311   1.081404   3.853996
    29  C    4.835691   2.822437   2.430119   2.437776   1.401353
    30  H    4.732092   3.385234   2.133808   3.855216   1.082629
    31  H    5.976939   4.048354   3.545470   3.572887   2.321437
    32  N    5.456329   3.998104   4.695251   3.485185   4.895585
    33  N    5.579882   3.715507   3.722596   3.325369   3.316889
    34  Pd   6.472242   4.370110   4.184340   3.667811   3.211143
    35  O   10.290617   8.189080   8.146451   7.261134   7.163196
    36  O    8.167126   6.104665   6.033234   5.311981   5.139781
    37  O    7.160014   5.289989   4.779795   4.738166   3.544000
    38  N    7.907711   5.798688   5.531862   4.967143   4.341617
    39  C    9.161683   7.023496   6.840436   6.102047   5.687990
    40  C    9.188832   7.073420   6.983703   6.176843   5.971084
    41  C    8.032218   6.024807   5.626937   5.292056   4.369308
    42  C    9.445378   7.474950   7.065361   6.710198   5.796679
    43  H    9.605446   7.459829   7.430627   6.396350   6.347852
    44  H    9.908372   7.889932   7.653620   6.968215   6.458567
    45  H    9.525041   7.676503   7.204852   7.001167   5.963734
    46  H   10.096907   8.119493   7.600380   7.426056   6.267878
    47  H    9.941968   7.834443   7.499022   7.012182   6.254431
    48  H    5.451461   3.392938   3.863665   2.142462   3.402912
                   26         27         28         29         30
    26  H    0.000000
    27  C    3.854576   0.000000
    28  H    4.268072   2.150851   0.000000
    29  C    3.407085   1.409581   3.417912   0.000000
    30  H    2.455440   3.387878   4.936493   2.150160   0.000000
    31  H    4.413146   2.342853   4.457122   1.321903   2.596656
    32  N    5.418833   3.802719   3.405557   4.516188   5.730105
    33  N    4.502789   2.917901   3.895216   2.898021   3.904532
    34  Pd   5.109386   2.532733   4.339815   2.168398   3.657306
    35  O    9.044808   6.166447   7.577554   6.075581   7.429721
    36  O    6.907869   4.307690   5.748466   4.169700   5.484241
    37  O    5.585107   3.461194   5.528999   2.633187   3.598966
    38  N    6.457913   3.597776   5.582077   3.134479   4.571627
    39  C    7.770058   4.785212   6.583934   4.489527   5.901291
    40  C    7.891021   5.030783   6.579050   4.871246   6.250937
    41  C    6.495120   3.914115   5.978177   3.268179   4.462253
    42  C    7.898661   5.339559   7.333448   4.748814   5.785555
    43  H    8.416075   5.102961   6.737128   5.044676   6.666642
    44  H    8.559346   5.611040   7.452129   5.274057   6.587513
    45  H    7.974808   5.688568   7.654363   5.042484   5.883950
    46  H    8.378813   6.044149   8.100324   5.316728   6.119793
    47  H    8.360499   5.670406   7.570185   5.171930   6.292129
    48  H    4.943927   1.097029   2.464178   2.179277   4.306630
                   31         32         33         34         35
    31  H    0.000000
    32  N    5.605586   0.000000
    33  N    3.815497   2.348838   0.000000
    34  Pd   2.394680   3.944161   1.991802   0.000000
    35  O    5.816840   6.180234   5.008145   3.981045   0.000000
    36  O    4.239138   4.322107   2.824341   2.002841   2.202227
    37  O    1.317140   6.743867   4.929308   3.203392   5.844355
    38  N    2.398119   5.756908   3.972841   1.986941   3.601332
    39  C    3.847877   6.261365   4.654301   2.869123   2.392922
    40  C    4.615673   5.466819   4.049376   2.801637   1.213161
    41  C    2.106012   6.726578   4.904251   2.951172   4.747592
    42  C    3.520635   8.124194   6.337329   4.353600   5.147102
    43  H    4.382208   6.648321   5.332897   3.587215   2.677003
    44  H    4.148613   8.244874   6.675379   4.697429   4.937025
    45  H    3.740067   8.802484   7.012330   5.074190   6.229806
    46  H    4.121587   8.539448   6.611362   4.661724   4.941600
    47  H    4.377899   7.189728   5.417123   3.643630   2.676248
    48  H    2.628858   4.065992   3.382176   2.615431   5.684921
                   36         37         38         39         40
    36  O    0.000000
    37  O    4.698120   0.000000
    38  N    2.667292   2.252417   0.000000
    39  C    2.415440   3.579130   1.450613   0.000000
    40  C    1.281562   4.723091   2.482721   1.551385   0.000000
    41  C    3.954354   1.268719   1.303641   2.399283   3.707670
    42  C    4.957708   2.372435   2.448933   2.826863   4.355108
    43  H    3.124731   3.995341   2.111502   1.099120   2.156644
    44  H    5.057844   3.110664   2.744150   2.754721   4.290303
    45  H    5.923298   2.437299   3.315545   3.891065   5.407124
    46  H    4.981590   3.065513   2.796452   2.846632   4.277547
    47  H    3.110583   3.898552   2.116271   1.098141   2.148841
    48  H    4.095578   3.434066   3.254948   4.283060   4.613638
                   41         42         43         44         45
    41  C    0.000000
    42  C    1.510367   0.000000
    43  H    2.808635   2.930021   0.000000
    44  H    2.146427   1.087886   2.441620   0.000000
    45  H    2.124605   1.085996   3.956841   1.778528   0.000000
    46  H    2.143540   1.088487   3.145188   1.766698   1.774068
    47  H    2.680684   2.671171   1.773877   2.731601   3.732954
    48  H    3.632893   4.929759   4.390565   5.001559   5.349867
                   46         47         48
    46  H    0.000000
    47  H    2.278062   0.000000
    48  H    5.710432   5.254314   0.000000
 Stoichiometry    C21H19N3O4Pd
 Framework group  C1[X(C21H19N3O4Pd)]
 Deg. of freedom   138
 Full point group                 C1      NOp   1
 Largest Abelian subgroup         C1      NOp   1
 Largest concise Abelian subgroup C1      NOp   1
                         Standard orientation:                         
 ---------------------------------------------------------------------
 Center     Atomic      Atomic             Coordinates (Angstroms)
 Number     Number       Type             X           Y           Z
 ---------------------------------------------------------------------
      1          6           0        3.601996   -0.834064   -0.569886
      2          6           0        4.016277   -1.123349   -1.863847
      3          6           0        5.186575   -0.580667   -2.361517
      4          6           0        5.942367    0.273917   -1.575577
      5          6           0        5.532648    0.584768   -0.291360
      6          6           0        4.370109    0.028432    0.225483
      7          1           0        3.420466   -1.788481   -2.471214
      8          1           0        5.506939   -0.819825   -3.363754
      9          1           0        6.854330    0.701426   -1.963604
     10          1           0        6.115290    1.251472    0.326917
     11          6           0        2.332098   -1.316539   -0.021031
     12          6           0        2.232285   -1.915081    1.236300
     13          6           0        1.127443   -1.033148   -0.660842
     14          1           0        3.110248   -2.161866    1.815549
     15          1           0        1.107341   -0.577317   -1.644655
     16          6           0       -0.023970   -1.855010    1.127492
     17          1           0       -0.980165   -2.090606    1.597843
     18          8           0        3.967580    0.300974    1.513680
     19          6           0        3.365441    1.579351    1.714908
     20          1           0        3.338320    1.703301    2.799507
     21          1           0        3.991061    2.365620    1.273199
     22          6           0        1.973562    1.629165    1.134467
     23          6           0        1.784552    1.988011   -0.197014
     24          6           0        0.870494    1.267546    1.901783
     25          6           0        0.522847    1.937872   -0.766119
     26          1           0        2.635493    2.294544   -0.790679
     27          6           0       -0.404614    1.271861    1.346989
     28          1           0        1.016280    0.991548    2.937160
     29          6           0       -0.605020    1.586351   -0.012369
     30          1           0        0.401563    2.211720   -1.806496
     31          1           0       -1.753896    2.139931   -0.360306
     32          7           0        1.061983   -2.210154    1.777493
     33          7           0       -0.038078   -1.255185   -0.065043
     34         46           0       -1.752818   -0.246889   -0.166444
     35          8           0       -4.799130   -2.808671   -0.089167
     36          8           0       -2.765087   -1.974348   -0.217136
     37          8           0       -2.928263    2.710156   -0.535128
     38          7           0       -3.562628    0.570895   -0.227682
     39          6           0       -4.616475   -0.423902   -0.163929
     40          6           0       -4.040378   -1.864325   -0.154456
     41          6           0       -3.834033    1.825243   -0.456659
     42          6           0       -5.261417    2.289606   -0.624445
     43          1           0       -5.221880   -0.300351    0.745073
     44          1           0       -5.856580    2.002546    0.239773
     45          1           0       -5.266210    3.370272   -0.731799
     46          1           0       -5.699660    1.837142   -1.512151
     47          1           0       -5.291911   -0.350927   -1.026700
     48          1           0       -1.263854    1.116733    2.011154
 ---------------------------------------------------------------------
 Rotational constants (GHZ):           0.3473989           0.0967258           0.0878992
 General basis read from cards:  (5D, 7F)
 ======================================================================================================
                                       Pseudopotential Parameters
 ======================================================================================================
  Center     Atomic      Valence      Angular      Power
  Number     Number     Electrons     Momentum     of R      Exponent        Coefficient   SO-Coeffient
 ======================================================================================================
    1          6
                                   No pseudopotential on this center.
    2          6
                                   No pseudopotential on this center.
    3          6
                                   No pseudopotential on this center.
    4          6
                                   No pseudopotential on this center.
    5          6
                                   No pseudopotential on this center.
    6          6
                                   No pseudopotential on this center.
    7          1
                                   No pseudopotential on this center.
    8          1
                                   No pseudopotential on this center.
    9          1
                                   No pseudopotential on this center.
   10          1
                                   No pseudopotential on this center.
   11          6
                                   No pseudopotential on this center.
   12          6
                                   No pseudopotential on this center.
   13          6
                                   No pseudopotential on this center.
   14          1
                                   No pseudopotential on this center.
   15          1
                                   No pseudopotential on this center.
   16          6
                                   No pseudopotential on this center.
   17          1
                                   No pseudopotential on this center.
   18          8
                                   No pseudopotential on this center.
   19          6
                                   No pseudopotential on this center.
   20          1
                                   No pseudopotential on this center.
   21          1
                                   No pseudopotential on this center.
   22          6
                                   No pseudopotential on this center.
   23          6
                                   No pseudopotential on this center.
   24          6
                                   No pseudopotential on this center.
   25          6
                                   No pseudopotential on this center.
   26          1
                                   No pseudopotential on this center.
   27          6
                                   No pseudopotential on this center.
   28          1
                                   No pseudopotential on this center.
   29          6
                                   No pseudopotential on this center.
   30          1
                                   No pseudopotential on this center.
   31          1
                                   No pseudopotential on this center.
   32          7
                                   No pseudopotential on this center.
   33          7
                                   No pseudopotential on this center.
   34         46           18
                                      F and up 
                                                     2       13.2700000      -31.92955431    0.00000000
                                                     2        6.6300000       -5.39821694    0.00000000
                                      S - F
                                                     2       12.4300000      240.22904033    0.00000000
                                                     2        6.1707594       35.17194347    0.00000000
                                                     2       13.2700000       31.92955431    0.00000000
                                                     2        6.6300000        5.39821694    0.00000000
                                      P - F
                                                     2       11.0800000      170.41727605    0.00000000
                                                     2        5.8295541       28.47213287    0.00000000
                                                     2       13.2700000       31.92955431    0.00000000
                                                     2        6.6300000        5.39821694    0.00000000
                                      D - F
                                                     2        9.5100000       69.01384488    0.00000000
                                                     2        4.1397811       11.75086158    0.00000000
                                                     2       13.2700000       31.92955431    0.00000000
                                                     2        6.6300000        5.39821694    0.00000000
   35          8
                                   No pseudopotential on this center.
   36          8
                                   No pseudopotential on this center.
   37          8
                                   No pseudopotential on this center.
   38          7
                                   No pseudopotential on this center.
   39          6
                                   No pseudopotential on this center.
   40          6
                                   No pseudopotential on this center.
   41          6
                                   No pseudopotential on this center.
   42          6
                                   No pseudopotential on this center.
   43          1
                                   No pseudopotential on this center.
   44          1
                                   No pseudopotential on this center.
   45          1
                                   No pseudopotential on this center.
   46          1
                                   No pseudopotential on this center.
   47          1
                                   No pseudopotential on this center.
   48          1
                                   No pseudopotential on this center.
 ======================================================================================================
 There are   586 symmetry adapted cartesian basis functions of A   symmetry.
 There are   543 symmetry adapted basis functions of A   symmetry.
   543 basis functions,   932 primitive gaussians,   586 cartesian basis functions
   108 alpha electrons      108 beta electrons
       nuclear repulsion energy      3098.4597076857 Hartrees.
 NAtoms=   48 NActive=   48 NUniq=   48 SFac= 1.00D+00 NAtFMM=   60 NAOKFM=F Big=F
 Integral buffers will be    131072 words long.
 Raffenetti 2 integral format.
 Two-electron integral symmetry is turned on.
 One-electron integrals computed using PRISM.
   1 Symmetry operations used in ECPInt.
 ECPInt:  NShTT=   29161 NPrTT=  103719 LenC2=   25403 LenP2D=   61769.
 LDataN:  DoStor=T MaxTD1= 8 Len=  415
 NBasis=   543 RedAO= T EigKep=  2.16D-04  NBF=   543
 NBsUse=   543 1.00D-06 EigRej= -1.00D+00 NBFU=   543
 Defaulting to unpruned grid for atomic number  46.
 ExpMin= 3.70D-02 ExpMax= 2.27D+03 ExpMxC= 3.41D+02 IAcc=3 IRadAn=         5 AccDes= 0.00D+00
 Harris functional with IExCor= 1009 and IRadAn=       5 diagonalized for initial guess.
 HarFok:  IExCor= 1009 AccDes= 0.00D+00 IRadAn=         5 IDoV= 1 UseB2=F ITyADJ=14
 ICtDFT=  3500011 ScaDFX=  1.000000  1.000000  1.000000  1.000000
 Defaulting to unpruned grid for atomic number  46.
 FoFCou: FMM=F IPFlag=           0 FMFlag=      100000 FMFlg1=           0
         NFxFlg=           0 DoJE=T BraDBF=F KetDBF=T FulRan=T
         wScrn=  0.000000 ICntrl=       500 IOpCl=  0 I1Cent=   200000004 NGrid=           0
         NMat0=    1 NMatS0=      1 NMatT0=    0 NMatD0=    1 NMtDS0=    0 NMtDT0=    0
 Petite list used in FoFCou.
 Requested convergence on RMS density matrix=1.00D-08 within 128 cycles.
 Requested convergence on MAX density matrix=1.00D-06.
 Requested convergence on             energy=1.00D-06.
 No special actions if energy rises.
 Defaulting to unpruned grid for atomic number  46.
 Defaulting to unpruned grid for atomic number  46.
 Defaulting to unpruned grid for atomic number  46.
 Defaulting to unpruned grid for atomic number  46.
 Defaulting to unpruned grid for atomic number  46.
 Defaulting to unpruned grid for atomic number  46.
 Defaulting to unpruned grid for atomic number  46.
 Defaulting to unpruned grid for atomic number  46.
 Defaulting to unpruned grid for atomic number  46.
 Defaulting to unpruned grid for atomic number  46.
 Defaulting to unpruned grid for atomic number  46.
 Defaulting to unpruned grid for atomic number  46.
 Defaulting to unpruned grid for atomic number  46.
 Defaulting to unpruned grid for atomic number  46.
 Defaulting to unpruned grid for atomic number  46.
 Defaulting to unpruned grid for atomic number  46.
 Defaulting to unpruned grid for atomic number  46.
 Defaulting to unpruned grid for atomic number  46.
 Defaulting to unpruned grid for atomic number  46.
 Defaulting to unpruned grid for atomic number  46.
 Defaulting to unpruned grid for atomic number  46.
 Defaulting to unpruned grid for atomic number  46.
 Defaulting to unpruned grid for atomic number  46.
 Defaulting to unpruned grid for atomic number  46.
 Defaulting to unpruned grid for atomic number  46.
 Defaulting to unpruned grid for atomic number  46.
 Defaulting to unpruned grid for atomic number  46.
 Defaulting to unpruned grid for atomic number  46.
 Defaulting to unpruned grid for atomic number  46.
 Defaulting to unpruned grid for atomic number  46.
 Defaulting to unpruned grid for atomic number  46.
 Defaulting to unpruned grid for atomic number  46.
 Defaulting to unpruned grid for atomic number  46.
 Defaulting to unpruned grid for atomic number  46.
 Defaulting to unpruned grid for atomic number  46.
 Defaulting to unpruned grid for atomic number  46.
 Defaulting to unpruned grid for atomic number  46.
 Defaulting to unpruned grid for atomic number  46.
 Defaulting to unpruned grid for atomic number  46.
 Defaulting to unpruned grid for atomic number  46.
 Defaulting to unpruned grid for atomic number  46.
 Defaulting to unpruned grid for atomic number  46.
 Defaulting to unpruned grid for atomic number  46.
 Defaulting to unpruned grid for atomic number  46.
 Defaulting to unpruned grid for atomic number  46.
 Defaulting to unpruned grid for atomic number  46.
 Defaulting to unpruned grid for atomic number  46.
 Defaulting to unpruned grid for atomic number  46.
 Defaulting to unpruned grid for atomic number  46.
 Defaulting to unpruned grid for atomic number  46.
 Defaulting to unpruned grid for atomic number  46.
 Defaulting to unpruned grid for atomic number  46.
 Defaulting to unpruned grid for atomic number  46.
 Defaulting to unpruned grid for atomic number  46.
 Defaulting to unpruned grid for atomic number  46.
 Defaulting to unpruned grid for atomic number  46.
 Defaulting to unpruned grid for atomic number  46.
 Defaulting to unpruned grid for atomic number  46.
 Defaulting to unpruned grid for atomic number  46.
 Defaulting to unpruned grid for atomic number  46.
 Defaulting to unpruned grid for atomic number  46.
 Defaulting to unpruned grid for atomic number  46.
 Defaulting to unpruned grid for atomic number  46.
 Defaulting to unpruned grid for atomic number  46.
 EnCoef did     6 forward-backward iterations
 EnCoef did   100 forward-backward iterations
 EnCoef did     3 forward-backward iterations
 Restarting incremental Fock formation.
 SCF Done:  E(RMN15) =  -1401.97523103     A.U. after   22 cycles
            NFock= 22  Conv=0.62D-08     -V/T= 2.0719
 DoSCS=F DFT=T ScalE2(SS,OS)=  1.000000  1.000000
 Range of M.O.s used for correlation:     1   543
 NBasis=   543 NAE=   108 NBE=   108 NFC=     0 NFV=     0
 NROrb=    543 NOA=   108 NOB=   108 NVA=   435 NVB=   435

 **** Warning!!: The largest alpha MO coefficient is  0.12023960D+02

   1 Symmetry operations used in ECPInt.
 ECPInt:  NShTT=   29161 NPrTT=  103719 LenC2=   25403 LenP2D=   61769.
 LDataN:  DoStor=T MaxTD1= 9 Len=  602
 Number of processors reduced to  12 by ecpmxn.
 Symmetrizing basis deriv contribution to polar:
 IMax=3 JMax=2 DiffMx= 0.00D+00
 G2DrvN: will do    49 centers at a time, making    1 passes.
 Calling FoFCou, ICntrl=  3107 FMM=F I1Cent=   0 AccDes= 0.00D+00.
 Defaulting to unpruned grid for atomic number  46.
 Defaulting to unpruned grid for atomic number  46.
 Defaulting to unpruned grid for atomic number  46.
 Defaulting to unpruned grid for atomic number  46.
 Defaulting to unpruned grid for atomic number  46.
 Defaulting to unpruned grid for atomic number  46.
 Defaulting to unpruned grid for atomic number  46.
 Defaulting to unpruned grid for atomic number  46.
 Defaulting to unpruned grid for atomic number  46.
 Defaulting to unpruned grid for atomic number  46.
 Defaulting to unpruned grid for atomic number  46.
 Defaulting to unpruned grid for atomic number  46.
 Defaulting to unpruned grid for atomic number  46.
 Defaulting to unpruned grid for atomic number  46.
 Defaulting to unpruned grid for atomic number  46.
 Defaulting to unpruned grid for atomic number  46.
 Defaulting to unpruned grid for atomic number  46.
 Defaulting to unpruned grid for atomic number  46.
 Defaulting to unpruned grid for atomic number  46.
 Defaulting to unpruned grid for atomic number  46.
 Defaulting to unpruned grid for atomic number  46.
 Defaulting to unpruned grid for atomic number  46.
 Defaulting to unpruned grid for atomic number  46.
 Defaulting to unpruned grid for atomic number  46.
 Defaulting to unpruned grid for atomic number  46.
 Defaulting to unpruned grid for atomic number  46.
 Defaulting to unpruned grid for atomic number  46.
 Defaulting to unpruned grid for atomic number  46.
 Defaulting to unpruned grid for atomic number  46.
 Defaulting to unpruned grid for atomic number  46.
 Defaulting to unpruned grid for atomic number  46.
 Defaulting to unpruned grid for atomic number  46.
 Defaulting to unpruned grid for atomic number  46.
 Defaulting to unpruned grid for atomic number  46.
 Defaulting to unpruned grid for atomic number  46.
 Defaulting to unpruned grid for atomic number  46.
 Defaulting to unpruned grid for atomic number  46.
 Defaulting to unpruned grid for atomic number  46.
 Defaulting to unpruned grid for atomic number  46.
 Defaulting to unpruned grid for atomic number  46.
 Defaulting to unpruned grid for atomic number  46.
 Defaulting to unpruned grid for atomic number  46.
 Defaulting to unpruned grid for atomic number  46.
 Defaulting to unpruned grid for atomic number  46.
 Defaulting to unpruned grid for atomic number  46.
 Defaulting to unpruned grid for atomic number  46.
 Defaulting to unpruned grid for atomic number  46.
 Defaulting to unpruned grid for atomic number  46.
 Defaulting to unpruned grid for atomic number  46.
 Defaulting to unpruned grid for atomic number  46.
 Defaulting to unpruned grid for atomic number  46.
 Defaulting to unpruned grid for atomic number  46.
 Defaulting to unpruned grid for atomic number  46.
 Defaulting to unpruned grid for atomic number  46.
 Defaulting to unpruned grid for atomic number  46.
 Defaulting to unpruned grid for atomic number  46.
 Defaulting to unpruned grid for atomic number  46.
 Defaulting to unpruned grid for atomic number  46.
 Defaulting to unpruned grid for atomic number  46.
 Defaulting to unpruned grid for atomic number  46.
 Defaulting to unpruned grid for atomic number  46.
 Defaulting to unpruned grid for atomic number  46.
 Defaulting to unpruned grid for atomic number  46.
 Defaulting to unpruned grid for atomic number  46.
 End of G2Drv F.D. properties file   721 does not exist.
 End of G2Drv F.D. properties file   722 does not exist.
 End of G2Drv F.D. properties file   788 does not exist.
          IDoAtm=111111111111111111111111111111111111111111111111
          Differentiating once with respect to nuclear coordinates.
 Defaulting to unpruned grid for atomic number  46.
 CalDSu exits because no D1Ps are significant.
 Defaulting to unpruned grid for atomic number  46.
 Defaulting to unpruned grid for atomic number  46.
 Defaulting to unpruned grid for atomic number  46.
 Defaulting to unpruned grid for atomic number  46.
 Defaulting to unpruned grid for atomic number  46.
 Defaulting to unpruned grid for atomic number  46.
 Defaulting to unpruned grid for atomic number  46.
 Defaulting to unpruned grid for atomic number  46.
 Defaulting to unpruned grid for atomic number  46.
 Defaulting to unpruned grid for atomic number  46.
 Defaulting to unpruned grid for atomic number  46.
 Defaulting to unpruned grid for atomic number  46.
 Defaulting to unpruned grid for atomic number  46.
 Defaulting to unpruned grid for atomic number  46.
 Defaulting to unpruned grid for atomic number  46.
 Defaulting to unpruned grid for atomic number  46.
 Defaulting to unpruned grid for atomic number  46.
 Defaulting to unpruned grid for atomic number  46.
 Defaulting to unpruned grid for atomic number  46.
 Defaulting to unpruned grid for atomic number  46.
 Defaulting to unpruned grid for atomic number  46.
 Defaulting to unpruned grid for atomic number  46.
 Defaulting to unpruned grid for atomic number  46.
 Defaulting to unpruned grid for atomic number  46.
 Defaulting to unpruned grid for atomic number  46.
 Defaulting to unpruned grid for atomic number  46.
 Defaulting to unpruned grid for atomic number  46.
 Defaulting to unpruned grid for atomic number  46.
 Defaulting to unpruned grid for atomic number  46.
 Defaulting to unpruned grid for atomic number  46.
 Defaulting to unpruned grid for atomic number  46.
 Defaulting to unpruned grid for atomic number  46.
 Defaulting to unpruned grid for atomic number  46.
 Defaulting to unpruned grid for atomic number  46.
 Defaulting to unpruned grid for atomic number  46.
 Defaulting to unpruned grid for atomic number  46.
 Defaulting to unpruned grid for atomic number  46.
 Defaulting to unpruned grid for atomic number  46.
 Defaulting to unpruned grid for atomic number  46.
 Defaulting to unpruned grid for atomic number  46.
 Defaulting to unpruned grid for atomic number  46.
 Defaulting to unpruned grid for atomic number  46.
 Defaulting to unpruned grid for atomic number  46.
 Defaulting to unpruned grid for atomic number  46.
 Defaulting to unpruned grid for atomic number  46.
 Defaulting to unpruned grid for atomic number  46.
 Defaulting to unpruned grid for atomic number  46.
 Defaulting to unpruned grid for atomic number  46.
 Defaulting to unpruned grid for atomic number  46.
 Defaulting to unpruned grid for atomic number  46.
 Defaulting to unpruned grid for atomic number  46.
 Defaulting to unpruned grid for atomic number  46.
 Defaulting to unpruned grid for atomic number  46.
 Defaulting to unpruned grid for atomic number  46.
 Defaulting to unpruned grid for atomic number  46.
 Defaulting to unpruned grid for atomic number  46.
 Defaulting to unpruned grid for atomic number  46.
 Defaulting to unpruned grid for atomic number  46.
 Defaulting to unpruned grid for atomic number  46.
 Defaulting to unpruned grid for atomic number  46.
 Defaulting to unpruned grid for atomic number  46.
 Defaulting to unpruned grid for atomic number  46.
 Defaulting to unpruned grid for atomic number  46.
 Defaulting to unpruned grid for atomic number  46.
          There are   147 degrees of freedom in the 1st order CPHF.  IDoFFX=6 NUNeed=     0.
    141 vectors produced by pass  0 Test12= 4.70D-14 1.00D-09 XBig12= 1.07D-01 6.52D-02.
 AX will form    64 AO Fock derivatives at one time.
    141 vectors produced by pass  1 Test12= 4.70D-14 1.00D-09 XBig12= 1.75D-02 1.86D-02.
    141 vectors produced by pass  2 Test12= 4.70D-14 1.00D-09 XBig12= 3.57D-04 2.49D-03.
    141 vectors produced by pass  3 Test12= 4.70D-14 1.00D-09 XBig12= 3.58D-06 1.81D-04.
    141 vectors produced by pass  4 Test12= 4.70D-14 1.00D-09 XBig12= 2.30D-08 1.71D-05.
    141 vectors produced by pass  5 Test12= 4.70D-14 1.00D-09 XBig12= 1.20D-10 8.13D-07.
    114 vectors produced by pass  6 Test12= 4.70D-14 1.00D-09 XBig12= 4.52D-13 4.47D-08.
     19 vectors produced by pass  7 Test12= 4.70D-14 1.00D-09 XBig12= 1.43D-15 2.45D-09.
 InvSVY:  IOpt=1 It=  1 EMax= 1.33D-15
 Solved reduced A of dimension   979 with   147 vectors.
 End of Minotr F.D. properties file   721 does not exist.
 End of Minotr F.D. properties file   722 does not exist.
 End of Minotr F.D. properties file   788 does not exist.

 **********************************************************************

            Population analysis using the SCF Density.

 **********************************************************************

 Orbital symmetries:
       Occupied  (A) (A) (A) (A) (A) (A) (A) (A) (A) (A) (A) (A)
                 (A) (A) (A) (A) (A) (A) (A) (A) (A) (A) (A) (A)
                 (A) (A) (A) (A) (A) (A) (A) (A) (A) (A) (A) (A)
                 (A) (A) (A) (A) (A) (A) (A) (A) (A) (A) (A) (A)
                 (A) (A) (A) (A) (A) (A) (A) (A) (A) (A) (A) (A)
                 (A) (A) (A) (A) (A) (A) (A) (A) (A) (A) (A) (A)
                 (A) (A) (A) (A) (A) (A) (A) (A) (A) (A) (A) (A)
                 (A) (A) (A) (A) (A) (A) (A) (A) (A) (A) (A) (A)
                 (A) (A) (A) (A) (A) (A) (A) (A) (A) (A) (A) (A)
       Virtual   (A) (A) (A) (A) (A) (A) (A) (A) (A) (A) (A) (A)
                 (A) (A) (A) (A) (A) (A) (A) (A) (A) (A) (A) (A)
                 (A) (A) (A) (A) (A) (A) (A) (A) (A) (A) (A) (A)
                 (A) (A) (A) (A) (A) (A) (A) (A) (A) (A) (A) (A)
                 (A) (A) (A) (A) (A) (A) (A) (A) (A) (A) (A) (A)
                 (A) (A) (A) (A) (A) (A) (A) (A) (A) (A) (A) (A)
                 (A) (A) (A) (A) (A) (A) (A) (A) (A) (A) (A) (A)
                 (A) (A) (A) (A) (A) (A) (A) (A) (A) (A) (A) (A)
                 (A) (A) (A) (A) (A) (A) (A) (A) (A) (A) (A) (A)
                 (A) (A) (A) (A) (A) (A) (A) (A) (A) (A) (A) (A)
                 (A) (A) (A) (A) (A) (A) (A) (A) (A) (A) (A) (A)
                 (A) (A) (A) (A) (A) (A) (A) (A) (A) (A) (A) (A)
                 (A) (A) (A) (A) (A) (A) (A) (A) (A) (A) (A) (A)
                 (A) (A) (A) (A) (A) (A) (A) (A) (A) (A) (A) (A)
                 (A) (A) (A) (A) (A) (A) (A) (A) (A) (A) (A) (A)
                 (A) (A) (A) (A) (A) (A) (A) (A) (A) (A) (A) (A)
                 (A) (A) (A) (A) (A) (A) (A) (A) (A) (A) (A) (A)
                 (A) (A) (A) (A) (A) (A) (A) (A) (A) (A) (A) (A)
                 (A) (A) (A) (A) (A) (A) (A) (A) (A) (A) (A) (A)
                 (A) (A) (A) (A) (A) (A) (A) (A) (A) (A) (A) (A)
                 (A) (A) (A) (A) (A) (A) (A) (A) (A) (A) (A) (A)
                 (A) (A) (A) (A) (A) (A) (A) (A) (A) (A) (A) (A)
                 (A) (A) (A) (A) (A) (A) (A) (A) (A) (A) (A) (A)
                 (A) (A) (A) (A) (A) (A) (A) (A) (A) (A) (A) (A)
                 (A) (A) (A) (A) (A) (A) (A) (A) (A) (A) (A) (A)
                 (A) (A) (A) (A) (A) (A) (A) (A) (A) (A) (A) (A)
                 (A) (A) (A) (A) (A) (A) (A) (A) (A) (A) (A) (A)
                 (A) (A) (A) (A) (A) (A) (A) (A) (A) (A) (A) (A)
                 (A) (A) (A) (A) (A) (A) (A) (A) (A) (A) (A) (A)
                 (A) (A) (A) (A) (A) (A) (A) (A) (A) (A) (A) (A)
                 (A) (A) (A) (A) (A) (A) (A) (A) (A) (A) (A) (A)
[...]
 5,-0.00000144,-0.00000594,-0.00000579,-0.00000137,0.00000179,0.0000019
 9,0.00000067,-0.00000066,-0.00000113,0.00000133,0.00000008,-0.00000050
 ,0.00000094,0.00000080,0.00000003,0.00001135,-0.00000111,0.00000858,-0
 .00000850,-0.00000339,-0.00000789,-0.00001922,-0.00001602,0.00005783,0
 .00000231,-0.00000189,0.00000023,-0.00000517,0.00000002,-0.00000492,0.
 00000983,-0.00000412,-0.00005607,-0.00000397,-0.00000167,-0.00000472,0
 .00000805,0.00001116,-0.00000130,-0.00000860,-0.00000539,-0.00000003,0
 .00000076,0.00000012,0.00000206,0.00000190,0.00000042,-0.00000222,0.00
 000357,0.00000849,-0.00000535,0.00000667,-0.00003161,0.00001273,-0.000
 00120,-0.00003561,-0.00001136,-0.00001385,0.00000677,0.00000707,0.0000
 0174,-0.00000309,0.00000070,-0.00001602,0.00000901,0.00000752,-0.00000
 074,-0.00000326,-0.00000066,-0.00028905,0.00029459,-0.00009261,-0.0000
 0260,0.00000932,0.00000450,0.00070627,-0.00038996,0.00018844,0.0000358
 9,0.00000359,0.00003034,0.00015252,-0.00005949,0.00003079,-0.00057107,
 0.00003643,-0.00011800,-0.00003422,-0.00020288,0.00002908,0.00019996,-
 0.00014014,0.00007914,-0.00193188,0.00203216,-0.00103769,0.00158964,0.
 00017145,0.00077240,0.00029881,-0.00007075,0.00006967,-0.00007641,0.00
 054907,-0.00009928,-0.00259250,-0.00864294,0.00027733,0.00446841,-0.33
 497703,0.05295335,0.00007839,0.00005437,-0.00015952,0.00116549,-0.0022
 7798,-0.00076940,-0.00418022,0.35302655,0.00000063,-0.00000103,-0.0000
 0470,-0.00000152,-0.00000044,-0.00000054,-0.00000132,-0.00000101,-0.00
 000090,-0.00000069,0.00000108,0.00000117,0.00000093,-0.00000089,-0.000
 00259,-0.00000217,0.00001074,0.00001353,0.00000047,-0.00000124,-0.0000
 0022,0.00000023,-0.00000056,0.00000048,0.00000027,-0.00000030,0.000000
 28,-0.00000069,-0.00000046,0.00000060,-0.00000607,0.00000377,-0.000004
 57,0.00000396,0.00000258,0.00000423,0.00002728,0.00000682,-0.00002609,
 -0.00000140,0.00000038,0.00000035,0.00000649,-0.00000191,0.00000674,-0
 .00003950,0.00000412,0.00003797,0.00000097,0.00000143,-0.00000003,0.00
 000560,-0.00001842,-0.00000722,-0.00000706,0.00000624,0.00000017,-0.00
 000023,-0.00000080,-0.00000190,0.00000157,-0.00000039,0.00000047,0.000
 00570,-0.00000246,0.00001102,-0.00001505,0.00002721,-0.00000917,0.0000
 0539,0.00002956,-0.00001411,-0.00000606,0.00000987,0.00002003,0.000001
 66,0.00000123,-0.00000139,-0.00000637,0.00000122,-0.00000002,-0.000002
 09,0.00000124,0.00000024,0.00026035,-0.00028483,0.00012580,0.00000077,
 -0.00001989,-0.00000811,-0.00064666,0.00030907,-0.00024509,-0.00001594
 ,0.00000049,-0.00002985,-0.00009487,0.00001867,-0.00015487,0.00023995,
 0.00020319,0.00049944,0.00003737,0.00002419,-0.00001350,0.00012111,-0.
 00003759,-0.00002869,0.00147765,-0.00084118,-0.00001992,-0.00245019,0.
 00078221,0.00094882,-0.00016517,-0.00054940,-0.00045095,-0.00013381,0.
 00011050,0.00024148,0.00163705,0.00965636,-0.00392162,-0.00090524,0.05
 112437,-0.05463231,-0.00010909,-0.00025240,0.00001116,-0.00252931,0.02
 044512,-0.00281408,0.00187695,-0.05647712,0.05328931,0.00000603,0.0000
 0627,0.00000110,-0.00000318,-0.00000398,-0.00000219,-0.00000041,-0.000
 00094,0.00000290,-0.00000030,-0.00000108,0.00000032,-0.00000338,0.0000
 0344,0.00000792,0.00001038,-0.00002592,-0.00003794,0.00000123,0.000000
 37,-0.00000198,-0.00000174,0.00000163,0.00000116,-0.00000187,0.0000004
 8,0.00000078,0.00000129,-0.00000029,-0.00000084,0.00000363,0.00000014,
 -0.00001006,0.00000911,-0.00000265,0.00000174,0.00004334,-0.00000797,-
 0.00000578,-0.00000133,-0.00000093,0.00000077,0.00000445,-0.00000772,-
 0.00000481,-0.00003084,0.00000384,0.00001839,-0.00000395,-0.00000213,0
 .00000473,-0.00005163,0.00004915,0.00001688,0.00006686,-0.00000615,0.0
 0000974,-0.00000853,0.00000356,-0.00000219,-0.00000881,0.00000082,0.00
 000232,-0.00006790,-0.00001944,0.00001964,0.00000415,-0.00005022,-0.00
 003050,0.00003578,-0.00008129,0.00001866,0.00005029,-0.00003284,-0.000
 08629,-0.00001192,0.00000456,0.00000399,-0.00011748,-0.00008496,0.0000
 3865,-0.00000950,0.00000529,-0.00000758,-0.00048168,0.00077758,-0.0004
 0218,-0.00000912,0.00002819,0.00001851,0.00130739,-0.00083524,0.001043
 62,-0.00002074,0.00000218,-0.00002076,0.00007697,-0.00003769,-0.000179
 70,-0.00077069,-0.00022847,0.00057933,0.00006091,-0.00002104,0.0000116
 8,0.00024903,0.00005329,0.00008821,-0.00627704,0.00152343,0.00055741,0
 .00006164,-0.00051600,0.00206700,0.00047746,-0.00001683,-0.00073851,-0
 .00021743,0.00023277,0.00007512,-0.00484336,-0.01611181,-0.02489054,-0
 .05915528,-0.03602242,-0.06450976,-0.00005005,0.00038553,0.00031128,0.
 00588770,0.01090740,0.01712674,-0.00080318,0.00103313,0.00138982,0.064
 34789,0.00000129,0.,-0.00000201,-0.00000013,-0.00000031,-0.00000064,-0
 .00000094,-0.00000170,0.00000083,0.00000014,0.00000029,0.00000104,-0.0
 0000073,-0.00000064,0.00000068,0.00000157,-0.00000149,-0.00000232,0.00
 000039,-0.00000009,-0.00000108,-0.00000048,0.00000080,0.00000020,-0.00
 000093,0.00000014,0.00000003,-0.00000023,-0.00000014,-0.00000039,-0.00
 000195,-0.00000135,0.00000109,0.00000399,0.00000128,0.00000055,-0.0000
 0792,0.00000674,-0.00002029,-0.00000033,0.00000089,-0.00000040,-0.0000
 0199,0.00000211,0.00000005,0.00002368,-0.00000047,0.00001056,0.0000037
 5,0.00000104,0.00000169,-0.00000451,0.00000079,0.00000434,0.00000381,0
 .00000139,-0.00000088,0.00000066,0.00000014,0.00000005,-0.00000159,0.,
 0.00000095,0.00000569,-0.00000084,-0.00001120,0.00000292,-0.00000280,0
 .00001779,-0.00001590,0.00000501,0.00000661,-0.00001722,-0.00001989,-0
 .00003799,-0.00000509,0.00000031,-0.00000022,0.00001153,0.00001363,0.0
 0001382,-0.00000071,-0.00000093,0.00000035,-0.00005647,-0.00003493,0.0
 0001172,-0.00000913,0.00000861,0.00000975,0.00014234,0.00005360,-0.000
 12853,-0.00001159,-0.00000228,0.00000267,-0.00007738,0.00004246,0.0000
 6619,0.00037460,0.00007188,-0.00028406,-0.00012577,0.00013229,-0.00009
 215,-0.00037283,-0.00001763,-0.00016455,0.00068235,0.00078766,-0.00057
 216,-0.00006233,-0.00240768,-0.00081590,0.00161518,0.00072971,0.002248
 00,0.00051503,-0.00039089,0.00024721,-0.00171090,0.00479134,0.00914841
 ,-0.03417713,-0.11746686,-0.11924997,-0.00028614,-0.00007692,-0.000095
 26,0.00196158,0.00257267,0.00659976,-0.00691245,-0.00952969,-0.0244956
 1,0.03860836,0.12131894,0.00000140,0.00000314,-0.00000054,-0.00000243,
 -0.00000224,-0.00000157,-0.00000005,0.00000067,0.00000056,0.,-0.000000
 20,-0.00000097,-0.00000174,0.00000252,0.00000351,0.00000462,-0.0000134
 3,-0.00001768,0.00000070,-0.00000035,0.00000001,-0.00000028,0.00000004
 ,0.00000086,-0.00000024,-0.00000010,0.00000063,0.00000123,-0.00000034,
 -0.00000004,-0.00000274,-0.00000030,-0.00000405,0.00000113,-0.00000363
 ,0.00000465,0.00000790,-0.00000284,-0.00000470,-0.00000037,-0.00000087
 ,0.00000023,0.00000114,-0.00000523,0.00000027,-0.00001859,-0.00000708,
 0.00001019,-0.00000208,-0.00000432,-0.00000254,-0.00002057,0.00002630,
 0.00000826,0.00002585,-0.00000970,0.00000460,-0.00000286,0.00000141,-0
 .00000082,-0.00000295,0.00000072,0.00000055,-0.00001648,-0.00000540,0.
 00000586,-0.00000437,-0.00001847,-0.00001644,0.00000437,-0.00002168,0.
 00001004,0.00002773,-0.00000342,-0.00001124,-0.00000174,-0.00000023,0.
 00000225,-0.00001313,-0.00001106,0.00000845,-0.00000137,0.00000009,-0.
 00000237,-0.00017327,0.00027303,-0.00008317,0.00000381,0.00000679,0.00
 000137,0.00056172,-0.00027737,0.00014139,0.00000084,0.00000840,-0.0000
 0862,-0.00001828,-0.00001339,-0.00004004,-0.00026714,-0.00022812,0.000
 05344,0.00017398,-0.00012121,0.00009705,0.00077294,-0.00012436,0.00024
 479,-0.00047158,0.00103181,-0.00023505,-0.00103572,0.00025708,0.001154
 81,0.00039093,-0.00102123,0.00033168,-0.00045513,0.00065037,-0.0001269
 1,0.00048204,-0.00416566,-0.00570688,-0.06298672,-0.11887154,-0.237484
 22,0.00011073,-0.00009718,-0.00067108,-0.00701885,-0.01043068,-0.01585
 428,0.00268642,0.00418226,0.00695593,0.06747276,0.12834865,0.25115387,
 0.00000951,0.00000499,-0.00001468,-0.00001038,-0.00001181,-0.00000425,
 -0.00000107,-0.00000236,0.00000421,-0.00000204,0.00000003,0.00000207,-
 0.00000512,0.00000409,0.00000882,0.00001074,-0.00002910,-0.00003918,0.
 00000216,0.00000047,-0.00000562,-0.00000424,0.00000181,0.00000331,-0.0
 0000223,0.00000011,0.00000128,0.00000152,-0.00000102,0.00000020,-0.000
 04337,-0.00003110,-0.00002144,0.00000413,0.00000064,0.00002868,0.00003
 828,0.00002563,-0.00015183,-0.00000244,0.00000574,0.00000122,0.0000067
 7,0.00000447,0.00000056,-0.00007023,-0.00000416,0.00015208,0.00000319,
 -0.00002027,0.00000046,-0.00005525,0.00005231,0.00002680,0.00006524,-0
 .00001681,0.00000949,-0.00000682,0.00000340,-0.00000321,-0.00000875,0.
 00000079,0.00000308,-0.00003151,-0.00002070,-0.00000032,-0.00000189,-0
 .00000854,-0.00000456,-0.00000639,-0.00001347,0.00002497,-0.00001429,-
 0.00003444,-0.00007517,-0.00001541,0.00000009,0.00000290,-0.00000428,-
 0.00002954,0.00003469,-0.00000847,0.00000149,-0.00000537,-0.00016189,0
 .00027947,-0.00005329,0.00000010,-0.00000823,0.00000274,0.00087470,-0.
 00017034,0.00016822,-0.00003174,-0.00000232,-0.00007082,-0.00035937,0.
 00037209,0.00001746,0.00042926,-0.00166419,-0.00018261,0.00021258,-0.0
 0127999,0.00238071,-0.00096124,0.00175162,0.00129735,-0.00115108,-0.00
 128974,0.00090188,-0.01158453,-0.00997791,-0.02020425,-0.06246436,-0.0
 0801620,-0.07336418,-0.00436106,0.00001043,-0.01489311,-0.00102013,0.0
 0426947,-0.00211958,0.00094967,0.00001836,0.00010549,0.00697076,0.0018
 9418,0.02290914,0.00002300,-0.00037194,0.00040057,-0.00007265,-0.00002
 007,0.00003964,0.00025793,-0.00009923,-0.00021366,0.07258817,0.0000021
 9,0.00000206,-0.00001106,-0.00000388,-0.00000418,-0.00000360,-0.000001
 77,-0.00000044,0.00000152,-0.00000004,0.00000043,-0.00000018,-0.000002
 76,0.00000221,0.00000473,0.00000744,-0.00001669,-0.00002163,0.00000139
 ,-0.00000122,-0.00000026,-0.00000058,0.00000054,0.00000165,-0.00000109
 ,-0.00000005,0.00000118,0.00000121,-0.00000088,-0.00000012,-0.00002594
 ,-0.00003255,-0.00001827,-0.00000819,-0.00000175,0.00002365,-0.0000221
 7,0.00001583,-0.00006842,-0.00000055,0.00000422,0.00000040,0.00000137,
 0.00000945,0.00000548,-0.00005191,-0.00001828,0.00009587,0.00000310,-0
 .00001125,-0.00000910,-0.00003574,0.00003266,0.00001245,0.00004202,-0.
 00000797,0.00000593,-0.00000434,0.00000190,-0.00000219,-0.00000532,0.0
 0000080,0.00000209,-0.00002133,-0.00000859,-0.00001414,0.00001437,-0.0
 0002730,-0.00000525,-0.00001463,-0.00003536,0.00002462,0.00000254,-0.0
 0001781,-0.00000731,-0.00000517,-0.00000218,0.00000313,0.00002535,0.00
 000863,0.00000924,-0.00000416,0.00000284,-0.00000432,-0.00018551,0.000
 46290,-0.00011954,-0.00000078,0.00001118,-0.00000751,0.00116583,-0.000
 37887,0.00031712,0.00000571,0.00000569,-0.00003799,-0.00030847,0.00029
 386,0.00012056,0.00007073,-0.00221355,-0.00016835,0.00072209,-0.000434
 90,-0.00344496,0.00479805,-0.00308364,-0.00137544,-0.00230630,-0.00237
 867,0.00103146,-0.01236753,-0.01057906,-0.02176575,-0.00764470,-0.0442
 9953,-0.01998754,0.00393467,0.00549549,0.02708064,-0.00107305,0.004952
 27,-0.00271633,-0.00048683,0.00010622,-0.00098538,-0.00124118,0.000078
 89,-0.00714658,0.00019502,0.00018126,0.00010039,-0.00000715,0.00017048
 ,0.00021384,0.00043625,-0.00058015,0.00065824,0.01440992,0.05228263,0.
 00000675,0.00000417,-0.00000603,-0.00000669,-0.00000629,-0.00000466,-0
 .00000278,-0.00000286,0.00000185,-0.00000063,0.00000101,0.00000148,-0.
 00000384,0.00000290,0.00000493,0.00000982,-0.00001690,-0.00002370,0.00
 000215,-0.00000163,-0.00000284,-0.00000176,0.00000108,0.00000245,-0.00
 000186,-0.00000019,0.00000135,0.00000112,-0.00000113,-0.00000010,-0.00
 000844,0.00000470,-0.00001814,0.00001013,-0.00000252,0.00001242,0.0000
 1968,0.00001370,-0.00004820,-0.00000266,-0.00000010,-0.00000011,0.0000
 0306,-0.00000826,-0.00000332,0.00002912,-0.00000901,0.00003408,0.00000
 636,-0.00000112,0.00001169,-0.00003959,0.00003173,0.00001719,0.0000471
 9,-0.00001056,0.00000605,-0.00000452,0.00000230,-0.00000363,-0.0000066
 1,0.00000093,0.00000357,-0.00001726,-0.00001518,-0.00000550,-0.0000060
 9,0.00000536,-0.00000374,-0.00001637,0.00000293,0.00001391,-0.00001174
 ,-0.00002114,-0.00003900,-0.00001045,0.00000142,0.00000268,0.00000183,
 -0.00001714,0.00001999,-0.00000603,0.00000191,-0.00000403,-0.00004717,
 -0.00000288,0.00000606,0.00001216,-0.00000467,-0.00000253,0.00025061,-
 0.00000175,0.00006245,-0.00004329,0.00000902,-0.00001221,-0.00007471,-
 0.00001461,0.00005469,0.00077809,-0.00004053,-0.00027525,0.00017995,0.
 00068493,0.00229803,-0.00026423,0.00088012,0.00029348,0.00014132,-0.00
 081355,-0.00027664,-0.00353265,-0.00519103,0.00552520,-0.07245733,-0.0
 2405051,-0.29223400,-0.00136279,-0.00270935,-0.00811762,-0.00211379,0.
 00292963,0.00032776,0.00082619,0.00101376,0.00040930,-0.00538635,-0.00
 006716,-0.01545572,-0.00009994,-0.00014965,-0.00049713,0.00025619,0.00
 014195,0.00022783,0.00004746,-0.00077088,0.00007654,0.08288975,0.02819
 982,0.30760419,-0.00003144,0.00001787,0.00002838,0.00001649,0.00001360
 ,0.00000340,0.00001430,0.00002353,0.00000699,0.00000510,-0.00001425,-0
 .00003074,-0.00002677,0.00002802,0.00005511,0.00005319,-0.00021758,-0.
 00026935,0.00000062,0.00000725,0.00001109,0.00000353,0.00000229,-0.000
 00067,-0.00000152,0.00000223,0.00000397,0.00002419,-0.00000036,-0.0000
 0310,-0.00003904,0.00001862,-0.00005232,-0.00018766,0.00001722,0.00008
 480,0.00003646,-0.00001715,0.00003687,0.00000868,-0.00000988,0.0000137
 2,0.00000220,-0.00000663,-0.00001627,-0.00005108,0.00006380,0.00017660
 ,0.00007039,0.00005921,0.00000121,-0.00018940,0.00051833,0.00003318,-0
 .00013703,-0.00033109,0.00129442,0.00001982,0.00000869,-0.00003793,-0.
 00039181,-0.00001124,-0.00003032,-0.00455933,-0.00160761,-0.00218392,-
 0.00010397,-0.00004711,-0.00097214,-0.01249630,-0.00130417,0.02486886,
 0.00034942,-0.00140241,-0.00231246,-0.00001708,0.00019671,0.00007847,-
 0.16685205,-0.00610508,0.14036001,0.00104583,0.00076745,-0.00021237,0.
 00999026,0.00057046,-0.01104775,0.00029847,-0.00001152,-0.00048052,0.0
 0125086,0.00005777,0.00050105,0.00006509,-0.00014871,-0.00010877,0.000
 08610,-0.00003906,-0.00003117,0.00000135,-0.00042221,0.00015640,0.0001
 1848,0.00006649,0.00001153,0.00021896,0.00027086,0.00005192,-0.0003798
 1,0.00006682,0.00026115,-0.00008141,0.00001201,0.00004502,-0.00002332,
 -0.00002166,0.00000525,-0.00024489,0.00000901,-0.00007005,-0.00008903,
 0.00008603,-0.00010098,0.00002073,-0.00002019,-0.00005233,0.00000283,-
 0.00000042,0.00000018,-0.00000094,-0.00000368,0.00000074,-0.00000081,-
 0.00000255,-0.00000131,-0.00001212,0.00000316,0.00000010,0.00001452,-0
 .00000817,0.00001061,0.17219893,0.00009216,0.00002830,-0.00003369,-0.0
 0001510,-0.00000849,0.00002408,0.00000688,-0.00000033,-0.00000190,-0.0
 0000834,-0.00000444,-0.00000353,-0.00000293,-0.00001047,0.00002428,0.0
 0004145,-0.00007957,-0.00007638,-0.00000078,-0.00000167,-0.00000621,-0
 .00000276,0.00000198,0.00000230,-0.00000330,0.00000085,-0.00000070,0.0
 0000267,-0.00000064,-0.00000338,-0.00009659,-0.00007596,-0.00005580,0.
 00010915,-0.00004351,-0.00001656,0.00021146,-0.00006538,-0.00010201,-0
 .00001474,0.00000501,0.00000758,-0.00001535,0.00002137,0.00000968,0.00
 035003,-0.00010250,-0.00032138,-0.00018518,-0.00007080,0.00009503,0.00
 005785,-0.00002147,-0.00000846,-0.00001558,-0.00014309,0.00037508,-0.0
 0001636,-0.00002112,-0.00004828,-0.00005076,-0.00006689,0.00001692,-0.
 00204840,0.00726527,0.00015165,-0.00098196,-0.00101909,-0.00040836,-0.
 00246226,0.00612654,0.00372130,-0.00104867,0.00708795,-0.00190028,0.00
 013343,-0.00113838,0.00004660,-0.00648799,-0.04137932,0.00288593,0.000
 77071,-0.00428402,0.00030473,0.00442341,-0.00004035,-0.00091350,0.0001
 0745,0.00018277,-0.00020916,-0.00442745,-0.00038480,-0.00094678,-0.000
 12314,0.00023155,0.00008779,-0.00023118,0.00054421,0.00026459,0.001236
 51,0.00002739,-0.00137711,-0.00013636,-0.00001738,-0.00007198,-0.00032
 222,0.00007330,0.00024300,0.00246777,-0.00024787,0.00041649,-0.0000840
 4,0.00073746,-0.00013545,-0.00003804,0.00000059,-0.00002218,0.00027290
 ,-0.00012793,0.00019630,-0.00050116,-0.00114486,-0.00004136,0.00012487
 ,0.00017956,0.00006612,0.00000168,0.00001991,-0.00000119,0.00002895,0.
 00000916,0.00000667,-0.00004622,0.00001251,-0.00000759,0.00005034,-0.0
 0000601,0.00001011,0.00001188,0.00001241,-0.00000278,0.00886533,0.0279
 3822,-0.00000956,-0.00002649,-0.00000343,-0.00000768,-0.00000379,-0.00
 001247,-0.00001112,-0.00001044,0.00000623,-0.00000186,0.00000954,0.000
 01442,0.00000181,-0.00001731,-0.00002758,-0.00001493,0.00008532,0.0001
 1257,0.00000119,-0.00000074,-0.00000544,-0.00000180,-0.00000022,0.0000
 0135,-0.00000057,-0.00000028,-0.00000090,-0.00000723,0.00000022,0.0000
 0323,-0.00001564,0.00001855,-0.00000738,0.00003423,-0.00001841,0.00002
 363,0.00003708,0.00008611,-0.00015168,-0.00000933,0.00000197,0.0000013
 0,0.00000093,0.00003130,0.00002245,0.00013992,-0.00009466,0.00002183,0
 .00003149,-0.00005167,0.00004549,0.00008865,-0.00012146,-0.00004446,-0
 .00033355,0.00008289,0.00015303,0.00002338,-0.00002675,0.00000026,-0.0
 0004275,-0.00001340,-0.00000178,-0.00131668,-0.00076963,0.00110972,-0.
 00073208,-0.00002258,0.00008267,-0.00587648,-0.00078757,0.00660881,-0.
 00271656,-0.00194538,-0.00389658,0.00006937,0.00015165,-0.00000827,0.1
 4266376,0.00354100,-0.23137664,0.00024369,0.00049587,0.00052960,0.0164
 1914,0.00134889,-0.01688440,0.00084830,0.00013361,-0.00078861,0.001725
 55,-0.00064991,0.00091379,-0.00006037,0.00001066,0.00000135,-0.0001265
 1,-0.00003850,0.00002486,0.00011464,0.00044939,-0.00009396,-0.00000580
 ,0.00005627,-0.00000838,0.00000787,-0.00013249,-0.00007951,-0.00116570
 ,0.00040927,-0.00021160,0.00009912,-0.00012356,0.00017386,-0.00004430,
 -0.00003544,0.00000646,-0.00002505,-0.00011629,0.00001854,0.00010482,0
 .00038974,-0.00013599,-0.00004191,-0.00004791,-0.00001293,0.00000222,0
 .00000420,-0.00000239,-0.00001863,-0.00001156,-0.00000431,0.00001319,-
 0.00001047,-0.00000462,-0.00000703,0.00000349,0.00000145,0.00000935,0.
 00000722,0.00001491,-0.15008656,-0.00224025,0.24387151\\0.00000104,0.0
 0000227,0.00000006,-0.00000002,0.00000062,-0.00000011,0.00000003,0.000
 00029,-0.00000063,-0.00000037,0.00000005,-0.00000091,-0.00000014,0.000
 00034,-0.00000053,-0.00000050,0.00000283,0.00000115,0.,0.00000009,-0.0
 0000005,-0.00000020,0.00000015,-0.00000043,-0.00000034,0.00000029,-0.0
 0000081,-0.00000013,0.00000045,-0.00000091,-0.00000077,-0.00000015,-0.
 00000147,0.00000151,0.00000096,-0.00000048,0.00000510,-0.00000066,0.00
 000468,0.00000064,0.00000048,-0.00000048,0.00000022,0.00000012,-0.0000
 0012,-0.00000248,-0.00000050,-0.00000031,0.00000002,0.00000046,0.00000
 012,0.00000059,-0.00000200,-0.00000315,0.00000037,-0.00000214,-0.00000
 039,0.00000039,-0.00000010,-0.00000035,-0.00000040,0.00000069,-0.00000
 082,0.00000141,0.00000075,0.00000347,-0.00000165,0.00000009,-0.0000043
 9,-0.00000131,-0.00000019,0.00000034,-0.00000946,-0.00000407,-0.000005
 27,-0.00000104,0.00000016,-0.00000066,-0.00000287,0.00000066,-0.000000
 22,-0.00000006,0.00000044,-0.00000019,0.00001165,0.00000211,0.00000635
 ,-0.00000028,-0.00000071,-0.00000043,0.00000076,-0.00000015,-0.0000017
 8,-0.00000026,0.00000015,0.00000113,-0.00000154,-0.00000056,-0.0000047
 3,0.00000254,0.00000634,0.00000243,0.00000055,-0.00000019,-0.00000002,
 -0.00000100,-0.00000246,0.00000168,-0.00000585,-0.00000590,-0.00000145
 ,0.00000077,0.00000331,-0.00000025,0.00000021,-0.00000083,0.00000064,-
 0.00000014,0.00000078,0.00000070,0.00000447,-0.00000052,0.00000156,-0.
 00000016,-0.00000050,0.00000119,0.00000033,-0.00000044,0.00000179,-0.0
 0000019,-0.00000072,0.00000059,-0.00000052,-0.00000040,0.00000084,-0.0
 0000019,-0.00000036,0.00000057,-0.00000102,-0.00000056,0.00000167,0.00
 000028,-0.00000076,0.00000040\\\@


 COLLEGE PROFESSOR: SOMEONE WHO TALKS IN OTHER PEOPLE'S SLEEP.
 Job cpu time:       0 days 17 hours 12 minutes  8.2 seconds.
 Elapsed time:       0 days  0 hours 16 minutes 20.3 seconds.
 File lengths (MBytes):  RWF=   1476 Int=      0 D2E=      0 Chk=     26 Scr=      1
 Normal termination of Gaussian 16 at Thu Nov  9 02:58:25 2023.
