 Entering Gaussian System, Link 0=/jet/home/xzhangj/programs/g16/g16
 Input=/jet/home/xzhangj/scratch/ch_1c_para_c1/ch_1c_para_c1.com
 Output=/jet/home/xzhangj/scratch/ch_1c_para_c1/ch_1c_para_c1.log
 Initial command:
 /jet/home/xzhangj/programs/g16/l1.exe "/ocean/projects/che220035p/xzhangj/scratch/ch_1c_para_c1/Gau-49529.inp" -scrdir="/ocean/projects/che220035p/xzhangj/scratch/ch_1c_para_c1/"
 Entering Link 1 = /jet/home/xzhangj/programs/g16/l1.exe PID=     49531.
  
 Copyright (c) 1988-2017, Gaussian, Inc.  All Rights Reserved.
  
 This is part of the Gaussian(R) 16 program.  It is based on
 the Gaussian(R) 09 system (copyright 2009, Gaussian, Inc.),
 the Gaussian(R) 03 system (copyright 2003, Gaussian, Inc.),
 the Gaussian(R) 98 system (copyright 1998, Gaussian, Inc.),
 the Gaussian(R) 94 system (copyright 1995, Gaussian, Inc.),
 the Gaussian 92(TM) system (copyright 1992, Gaussian, Inc.),
 the Gaussian 90(TM) system (copyright 1990, Gaussian, Inc.),
 the Gaussian 88(TM) system (copyright 1988, Gaussian, Inc.),
 the Gaussian 86(TM) system (copyright 1986, Carnegie Mellon
 University), and the Gaussian 82(TM) system (copyright 1983,
 Carnegie Mellon University). Gaussian is a federally registered
 trademark of Gaussian, Inc.
  
 This software contains proprietary and confidential information,
 including trade secrets, belonging to Gaussian, Inc.
  
 This software is provided under written license and may be
 used, copied, transmitted, or stored only in accord with that
 written license.
  
 The following legend is applicable only to US Government
 contracts under FAR:
  
                    RESTRICTED RIGHTS LEGEND
  
 Use, reproduction and disclosure by the US Government is
 subject to restrictions as set forth in subparagraphs (a)
 and (c) of the Commercial Computer Software - Restricted
 Rights clause in FAR 52.227-19.
  
 Gaussian, Inc.
 340 Quinnipiac St., Bldg. 40, Wallingford CT 06492
  
  
 ---------------------------------------------------------------
 Warning -- This program may not be used in any manner that
 competes with the business of Gaussian, Inc. or will provide
 assistance to any competitor of Gaussian, Inc.  The licensee
 of this program is prohibited from giving any competitor of
 Gaussian, Inc. access to this program.  By using this program,
 the user acknowledges that Gaussian, Inc. is engaged in the
 business of creating and licensing software in the field of
 computational chemistry and represents and warrants to the
 licensee that it is not a competitor of Gaussian, Inc. and that
 it will not use this program in any manner prohibited above.
 ---------------------------------------------------------------
  

 Cite this work as:
 Gaussian 16, Revision B.01,
 M. J. Frisch, G. W. Trucks, H. B. Schlegel, G. E. Scuseria, 
 M. A. Robb, J. R. Cheeseman, G. Scalmani, V. Barone, 
 G. A. Petersson, H. Nakatsuji, X. Li, M. Caricato, A. V. Marenich, 
 J. Bloino, B. G. Janesko, R. Gomperts, B. Mennucci, H. P. Hratchian, 
 J. V. Ortiz, A. F. Izmaylov, J. L. Sonnenberg, D. Williams-Young, 
 F. Ding, F. Lipparini, F. Egidi, J. Goings, B. Peng, A. Petrone, 
 T. Henderson, D. Ranasinghe, V. G. Zakrzewski, J. Gao, N. Rega, 
 G. Zheng, W. Liang, M. Hada, M. Ehara, K. Toyota, R. Fukuda, 
 J. Hasegawa, M. Ishida, T. Nakajima, Y. Honda, O. Kitao, H. Nakai, 
 T. Vreven, K. Throssell, J. A. Montgomery, Jr., J. E. Peralta, 
 F. Ogliaro, M. J. Bearpark, J. J. Heyd, E. N. Brothers, K. N. Kudin, 
 V. N. Staroverov, T. A. Keith, R. Kobayashi, J. Normand, 
 K. Raghavachari, A. P. Rendell, J. C. Burant, S. S. Iyengar, 
 J. Tomasi, M. Cossi, J. M. Millam, M. Klene, C. Adamo, R. Cammi, 
 J. W. Ochterski, R. L. Martin, K. Morokuma, O. Farkas, 
 J. B. Foresman, and D. J. Fox, Gaussian, Inc., Wallingford CT, 2016.
 
 ******************************************
 Gaussian 16:  ES64L-G16RevB.01 20-Dec-2017
                 8-Nov-2023 
 ******************************************
 %chk=ch_1c_para_c1.chk
 %nprocshared=64
 Will use up to   64 processors via shared memory.
 %mem=32GB
 ---------------------------------------------------------
 # opt=(ts,calcfc,noeigentest,maxstep=10) freq mn15 genecp
 ---------------------------------------------------------
 1/5=1,8=10,10=4,11=1,18=20,26=3,38=1/1,3;
 2/9=110,12=2,17=6,18=5,40=1/2;
 3/5=7,11=2,16=1,17=8,25=1,30=1,71=2,74=-73,140=1/1,2,3;
 4//1;
 5/5=2,38=5/2;
 8/6=4,10=90,11=11/1;
 11/6=1,8=1,9=11,15=111,16=1/1,2,10;
 10/6=1,13=1/2;
 6/7=2,8=2,9=2,10=2,28=1/1;
 7/10=1,18=20,25=1/1,2,3,16;
 1/5=1,8=10,10=4,11=1,18=20,26=3/3(2);
 2/9=110/2;
 99//99;
 2/9=110/2;
 3/5=7,6=1,11=2,16=1,17=8,25=1,30=1,71=1,74=-73,82=7/1,2,3;
 4/5=5,16=3,69=1/1;
 5/5=2,38=5/2;
 7//1,2,3,16;
 1/5=1,8=10,11=1,18=20,26=3/3(-5);
 2/9=110/2;
 6/7=2,8=2,9=2,10=2,19=2,28=1/1;
 99/9=1/99;
 ------------
 Gaussian job
 ------------
 Symbolic Z-matrix:
 Charge =  0 Multiplicity = 1
 C                     3.52015  -1.0536   -0.31148 
 C                     3.71471  -1.96452  -1.34361 
 C                     4.7856   -1.82994  -2.20707 
 C                     5.66313  -0.76809  -2.05922 
 C                     5.47247   0.15539  -1.04777 
 C                     4.41126   0.01774  -0.16144 
 H                     3.02499  -2.78823  -1.45378 
 H                     4.93322  -2.54915  -2.99773 
 H                     6.49854  -0.65773  -2.73368 
 H                     6.15124   0.98658  -0.92608 
 C                     2.3525   -1.13277   0.57163 
 C                     2.43729  -1.08632   1.96459 
 C                     1.06533  -1.12531   0.04022 
 H                     3.39092  -1.06802   2.47217 
 H                     0.89862  -1.17052  -1.03301 
 C                     0.18563  -1.01522   2.13787 
 H                    -0.69659  -0.9664    2.77397 
 O                     4.23676   0.91525   0.86673 
 C                     3.70973   2.18875   0.48841 
 H                     3.95111   2.8513    1.32252 
 H                     4.204     2.55035  -0.42145 
 C                     2.2183    2.0957    0.28988 
 C                     1.68288   1.8114   -0.96199 
 C                     1.36393   2.19106   1.38416 
 C                     0.3251    1.57534  -1.10567 
 H                     2.33831   1.75764  -1.82125 
 C                     0.00645   1.96532   1.23831 
 H                     1.77536   2.42517   2.3556 
 C                    -0.54949   1.61141  -0.00432 
 H                    -0.07537   1.36377  -2.09388 
 H                    -1.76751   2.06947  -0.26494 
 N                     1.3575   -1.07054   2.72842 
 N                    -0.00726  -1.0073    0.81732 
 Pd                   -1.71605  -0.21867   0.10751 
 O                    -4.6033   -2.98747  -0.32307 
 O                    -2.68182  -2.01558   0.15207 
 O                    -2.91905   2.60677  -0.59328 
 N                    -3.49061   0.43343  -0.52627 
 C                    -4.47876  -0.61971  -0.6749 
 C                    -3.89768  -2.00371  -0.25407 
 C                    -3.78364   1.6833   -0.73472 
 C                    -5.16958   2.09717  -1.16347 
 H                    -5.36207  -0.42972  -0.0509 
 H                    -5.894     1.82298  -0.39882 
 H                    -5.18707   3.17282  -1.31122 
 H                    -5.44027   1.59422  -2.08978 
 H                    -4.81468  -0.70257  -1.7174 
 H                    -0.64266   2.06212   2.10312 
 
 Add virtual bond connecting atoms C29        and H31        Dist= 2.51D+00.
 Add virtual bond connecting atoms O37        and H31        Dist= 2.48D+00.

 GradGradGradGradGradGradGradGradGradGradGradGradGradGradGradGradGradGrad
 Berny optimization.
 Initialization pass.
                           ----------------------------
                           !    Initial Parameters    !
                           ! (Angstroms and Degrees)  !
 --------------------------                            --------------------------
 ! Name  Definition              Value          Derivative Info.                !
 --------------------------------------------------------------------------------
 ! R1    R(1,2)                  1.3903         calculate D2E/DX2 analytically  !
 ! R2    R(1,6)                  1.4016         calculate D2E/DX2 analytically  !
 ! R3    R(1,11)                 1.4661         calculate D2E/DX2 analytically  !
 ! R4    R(2,3)                  1.3822         calculate D2E/DX2 analytically  !
 ! R5    R(2,7)                  1.08           calculate D2E/DX2 analytically  !
 ! R6    R(3,4)                  1.3854         calculate D2E/DX2 analytically  !
 ! R7    R(3,8)                  1.079          calculate D2E/DX2 analytically  !
 ! R8    R(4,5)                  1.3828         calculate D2E/DX2 analytically  !
 ! R9    R(4,9)                  1.0793         calculate D2E/DX2 analytically  !
 ! R10   R(5,6)                  1.3895         calculate D2E/DX2 analytically  !
 ! R11   R(5,10)                 1.08           calculate D2E/DX2 analytically  !
 ! R12   R(6,18)                 1.3759         calculate D2E/DX2 analytically  !
 ! R13   R(11,12)                1.3963         calculate D2E/DX2 analytically  !
 ! R14   R(11,13)                1.3926         calculate D2E/DX2 analytically  !
 ! R15   R(12,14)                1.0805         calculate D2E/DX2 analytically  !
 ! R16   R(12,32)                1.3227         calculate D2E/DX2 analytically  !
 ! R17   R(13,15)                1.087          calculate D2E/DX2 analytically  !
 ! R18   R(13,33)                1.3298         calculate D2E/DX2 analytically  !
 ! R19   R(16,17)                1.0887         calculate D2E/DX2 analytically  !
 ! R20   R(16,32)                1.3134         calculate D2E/DX2 analytically  !
 ! R21   R(16,33)                1.3346         calculate D2E/DX2 analytically  !
 ! R22   R(18,19)                1.4292         calculate D2E/DX2 analytically  !
 ! R23   R(19,20)                1.0922         calculate D2E/DX2 analytically  !
 ! R24   R(19,21)                1.0968         calculate D2E/DX2 analytically  !
 ! R25   R(19,22)                1.5075         calculate D2E/DX2 analytically  !
 ! R26   R(22,23)                1.3909         calculate D2E/DX2 analytically  !
 ! R27   R(22,24)                1.3916         calculate D2E/DX2 analytically  !
 ! R28   R(23,25)                1.3856         calculate D2E/DX2 analytically  !
 ! R29   R(23,26)                1.082          calculate D2E/DX2 analytically  !
 ! R30   R(24,27)                1.3838         calculate D2E/DX2 analytically  !
 ! R31   R(24,28)                1.0806         calculate D2E/DX2 analytically  !
 ! R32   R(25,29)                1.4068         calculate D2E/DX2 analytically  !
 ! R33   R(25,30)                1.0871         calculate D2E/DX2 analytically  !
 ! R34   R(27,29)                1.4066         calculate D2E/DX2 analytically  !
 ! R35   R(27,48)                1.0856         calculate D2E/DX2 analytically  !
 ! R36   R(29,31)                1.3271         calculate D2E/DX2 analytically  !
 ! R37   R(29,34)                2.1731         calculate D2E/DX2 analytically  !
 ! R38   R(31,37)                1.3125         calculate D2E/DX2 analytically  !
 ! R39   R(33,34)                2.0114         calculate D2E/DX2 analytically  !
 ! R40   R(34,36)                2.0405         calculate D2E/DX2 analytically  !
 ! R41   R(34,38)                1.994          calculate D2E/DX2 analytically  !
 ! R42   R(35,40)                1.2126         calculate D2E/DX2 analytically  !
 ! R43   R(36,40)                1.282          calculate D2E/DX2 analytically  !
 ! R44   R(37,41)                1.2729         calculate D2E/DX2 analytically  !
 ! R45   R(38,39)                1.4518         calculate D2E/DX2 analytically  !
 ! R46   R(38,41)                1.3006         calculate D2E/DX2 analytically  !
 ! R47   R(39,40)                1.5589         calculate D2E/DX2 analytically  !
 ! R48   R(39,43)                1.0981         calculate D2E/DX2 analytically  !
 ! R49   R(39,47)                1.0984         calculate D2E/DX2 analytically  !
 ! R50   R(41,42)                1.5086         calculate D2E/DX2 analytically  !
 ! R51   R(42,44)                1.0884         calculate D2E/DX2 analytically  !
 ! R52   R(42,45)                1.0859         calculate D2E/DX2 analytically  !
 ! R53   R(42,46)                1.0882         calculate D2E/DX2 analytically  !
 ! A1    A(2,1,6)              119.4277         calculate D2E/DX2 analytically  !
 ! A2    A(2,1,11)             121.5498         calculate D2E/DX2 analytically  !
 ! A3    A(6,1,11)             118.8916         calculate D2E/DX2 analytically  !
 ! A4    A(1,2,3)              120.5572         calculate D2E/DX2 analytically  !
 ! A5    A(1,2,7)              119.0838         calculate D2E/DX2 analytically  !
 ! A6    A(3,2,7)              120.3534         calculate D2E/DX2 analytically  !
 ! A7    A(2,3,4)              119.9135         calculate D2E/DX2 analytically  !
 ! A8    A(2,3,8)              119.9253         calculate D2E/DX2 analytically  !
 ! A9    A(4,3,8)              120.1605         calculate D2E/DX2 analytically  !
 ! A10   A(3,4,5)              120.1702         calculate D2E/DX2 analytically  !
 ! A11   A(3,4,9)              120.1276         calculate D2E/DX2 analytically  !
 ! A12   A(5,4,9)              119.7022         calculate D2E/DX2 analytically  !
 ! A13   A(4,5,6)              120.3788         calculate D2E/DX2 analytically  !
 ! A14   A(4,5,10)             120.6458         calculate D2E/DX2 analytically  !
 ! A15   A(6,5,10)             118.9709         calculate D2E/DX2 analytically  !
 ! A16   A(1,6,5)              119.5394         calculate D2E/DX2 analytically  !
 ! A17   A(1,6,18)             119.8664         calculate D2E/DX2 analytically  !
 ! A18   A(5,6,18)             120.5913         calculate D2E/DX2 analytically  !
 ! A19   A(1,11,12)            123.4175         calculate D2E/DX2 analytically  !
 ! A20   A(1,11,13)            120.3968         calculate D2E/DX2 analytically  !
 ! A21   A(12,11,13)           115.8897         calculate D2E/DX2 analytically  !
 ! A22   A(11,12,14)           121.5212         calculate D2E/DX2 analytically  !
 ! A23   A(11,12,32)           121.7966         calculate D2E/DX2 analytically  !
 ! A24   A(14,12,32)           116.681          calculate D2E/DX2 analytically  !
 ! A25   A(11,13,15)           121.2172         calculate D2E/DX2 analytically  !
 ! A26   A(11,13,33)           121.5351         calculate D2E/DX2 analytically  !
 ! A27   A(15,13,33)           117.1911         calculate D2E/DX2 analytically  !
 ! A28   A(17,16,32)           117.528          calculate D2E/DX2 analytically  !
 ! A29   A(17,16,33)           117.4345         calculate D2E/DX2 analytically  !
 ! A30   A(32,16,33)           125.0366         calculate D2E/DX2 analytically  !
 ! A31   A(6,18,19)            115.4799         calculate D2E/DX2 analytically  !
 ! A32   A(18,19,20)           104.8841         calculate D2E/DX2 analytically  !
 ! A33   A(18,19,21)           110.3151         calculate D2E/DX2 analytically  !
 ! A34   A(18,19,22)           110.1627         calculate D2E/DX2 analytically  !
 ! A35   A(20,19,21)           109.508          calculate D2E/DX2 analytically  !
 ! A36   A(20,19,22)           110.8955         calculate D2E/DX2 analytically  !
 ! A37   A(21,19,22)           110.9143         calculate D2E/DX2 analytically  !
 ! A38   A(19,22,23)           120.7965         calculate D2E/DX2 analytically  !
 ! A39   A(19,22,24)           119.9762         calculate D2E/DX2 analytically  !
 ! A40   A(23,22,24)           119.0396         calculate D2E/DX2 analytically  !
 ! A41   A(22,23,25)           120.3544         calculate D2E/DX2 analytically  !
 ! A42   A(22,23,26)           119.4527         calculate D2E/DX2 analytically  !
 ! A43   A(25,23,26)           120.1831         calculate D2E/DX2 analytically  !
 ! A44   A(22,24,27)           120.5448         calculate D2E/DX2 analytically  !
 ! A45   A(22,24,28)           119.2088         calculate D2E/DX2 analytically  !
 ! A46   A(27,24,28)           120.2359         calculate D2E/DX2 analytically  !
 ! A47   A(23,25,29)           121.5769         calculate D2E/DX2 analytically  !
 ! A48   A(23,25,30)           119.2363         calculate D2E/DX2 analytically  !
 ! A49   A(29,25,30)           119.1855         calculate D2E/DX2 analytically  !
 ! A50   A(24,27,29)           121.4579         calculate D2E/DX2 analytically  !
 ! A51   A(24,27,48)           119.2106         calculate D2E/DX2 analytically  !
 ! A52   A(29,27,48)           119.3314         calculate D2E/DX2 analytically  !
 ! A53   A(25,29,27)           116.8945         calculate D2E/DX2 analytically  !
 ! A54   A(25,29,31)           115.1929         calculate D2E/DX2 analytically  !
 ! A55   A(25,29,34)           110.6352         calculate D2E/DX2 analytically  !
 ! A56   A(27,29,31)           116.7045         calculate D2E/DX2 analytically  !
 ! A57   A(27,29,34)           112.2469         calculate D2E/DX2 analytically  !
 ! A58   A(31,29,34)            78.9362         calculate D2E/DX2 analytically  !
 ! A59   A(12,32,16)           117.9829         calculate D2E/DX2 analytically  !
 ! A60   A(13,33,16)           117.4606         calculate D2E/DX2 analytically  !
 ! A61   A(13,33,34)           120.9187         calculate D2E/DX2 analytically  !
 ! A62   A(16,33,34)           118.3136         calculate D2E/DX2 analytically  !
 ! A63   A(29,34,33)            83.817          calculate D2E/DX2 analytically  !
 ! A64   A(29,34,38)           100.7178         calculate D2E/DX2 analytically  !
 ! A65   A(33,34,36)            92.815          calculate D2E/DX2 analytically  !
 ! A66   A(36,34,38)            82.7454         calculate D2E/DX2 analytically  !
 ! A67   A(34,36,40)           115.7105         calculate D2E/DX2 analytically  !
 ! A68   A(31,37,41)           109.0709         calculate D2E/DX2 analytically  !
 ! A69   A(34,38,39)           113.6439         calculate D2E/DX2 analytically  !
 ! A70   A(34,38,41)           124.4539         calculate D2E/DX2 analytically  !
 ! A71   A(39,38,41)           121.8281         calculate D2E/DX2 analytically  !
 ! A72   A(38,39,40)           111.2648         calculate D2E/DX2 analytically  !
 ! A73   A(38,39,43)           111.3366         calculate D2E/DX2 analytically  !
 ! A74   A(38,39,47)           111.1024         calculate D2E/DX2 analytically  !
 ! A75   A(40,39,43)           107.4612         calculate D2E/DX2 analytically  !
 ! A76   A(40,39,47)           107.6521         calculate D2E/DX2 analytically  !
 ! A77   A(43,39,47)           107.8419         calculate D2E/DX2 analytically  !
 ! A78   A(35,40,36)           124.2225         calculate D2E/DX2 analytically  !
 ! A79   A(35,40,39)           119.2081         calculate D2E/DX2 analytically  !
 ! A80   A(36,40,39)           116.5691         calculate D2E/DX2 analytically  !
 ! A81   A(37,41,38)           121.7592         calculate D2E/DX2 analytically  !
 ! A82   A(37,41,42)           117.1639         calculate D2E/DX2 analytically  !
 ! A83   A(38,41,42)           121.0761         calculate D2E/DX2 analytically  !
 ! A84   A(41,42,44)           110.0404         calculate D2E/DX2 analytically  !
 ! A85   A(41,42,45)           108.9788         calculate D2E/DX2 analytically  !
 ! A86   A(41,42,46)           110.0986         calculate D2E/DX2 analytically  !
 ! A87   A(44,42,45)           109.5364         calculate D2E/DX2 analytically  !
 ! A88   A(44,42,46)           108.4215         calculate D2E/DX2 analytically  !
 ! A89   A(45,42,46)           109.7538         calculate D2E/DX2 analytically  !
 ! A90   L(29,31,37,35,-1)     184.3393         calculate D2E/DX2 analytically  !
 ! A91   L(29,34,36,38,-1)     183.4632         calculate D2E/DX2 analytically  !
 ! A92   L(33,34,38,36,-1)     175.5604         calculate D2E/DX2 analytically  !
 ! A93   L(29,31,37,35,-2)     183.1172         calculate D2E/DX2 analytically  !
 ! A94   L(29,34,36,38,-2)     176.9615         calculate D2E/DX2 analytically  !
 ! A95   L(33,34,38,36,-2)     178.0994         calculate D2E/DX2 analytically  !
 ! D1    D(6,1,2,3)              0.8286         calculate D2E/DX2 analytically  !
 ! D2    D(6,1,2,7)            179.9699         calculate D2E/DX2 analytically  !
 ! D3    D(11,1,2,3)           176.6228         calculate D2E/DX2 analytically  !
 ! D4    D(11,1,2,7)            -4.2359         calculate D2E/DX2 analytically  !
 ! D5    D(2,1,6,5)              0.1789         calculate D2E/DX2 analytically  !
 ! D6    D(2,1,6,18)          -179.2042         calculate D2E/DX2 analytically  !
 ! D7    D(11,1,6,5)          -175.7277         calculate D2E/DX2 analytically  !
 ! D8    D(11,1,6,18)            4.8892         calculate D2E/DX2 analytically  !
 ! D9    D(2,1,11,12)          130.9018         calculate D2E/DX2 analytically  !
 ! D10   D(2,1,11,13)          -55.6086         calculate D2E/DX2 analytically  !
 ! D11   D(6,1,11,12)          -53.2821         calculate D2E/DX2 analytically  !
 ! D12   D(6,1,11,13)          120.2076         calculate D2E/DX2 analytically  !
 ! D13   D(1,2,3,4)             -1.0114         calculate D2E/DX2 analytically  !
 ! D14   D(1,2,3,8)            179.3058         calculate D2E/DX2 analytically  !
 ! D15   D(7,2,3,4)            179.8582         calculate D2E/DX2 analytically  !
 ! D16   D(7,2,3,8)              0.1755         calculate D2E/DX2 analytically  !
 ! D17   D(2,3,4,5)              0.1778         calculate D2E/DX2 analytically  !
 ! D18   D(2,3,4,9)           -179.7854         calculate D2E/DX2 analytically  !
 ! D19   D(8,3,4,5)            179.8598         calculate D2E/DX2 analytically  !
 ! D20   D(8,3,4,9)             -0.1034         calculate D2E/DX2 analytically  !
 ! D21   D(3,4,5,6)              0.8336         calculate D2E/DX2 analytically  !
 ! D22   D(3,4,5,10)          -179.9405         calculate D2E/DX2 analytically  !
 ! D23   D(9,4,5,6)           -179.2031         calculate D2E/DX2 analytically  !
 ! D24   D(9,4,5,10)             0.0228         calculate D2E/DX2 analytically  !
 ! D25   D(4,5,6,1)             -1.0067         calculate D2E/DX2 analytically  !
 ! D26   D(4,5,6,18)           178.3719         calculate D2E/DX2 analytically  !
 ! D27   D(10,5,6,1)           179.7546         calculate D2E/DX2 analytically  !
 ! D28   D(10,5,6,18)           -0.8669         calculate D2E/DX2 analytically  !
 ! D29   D(1,6,18,19)         -105.1119         calculate D2E/DX2 analytically  !
 ! D30   D(5,6,18,19)           75.5116         calculate D2E/DX2 analytically  !
 ! D31   D(1,11,12,14)          -5.004          calculate D2E/DX2 analytically  !
 ! D32   D(1,11,12,32)         175.4045         calculate D2E/DX2 analytically  !
 ! D33   D(13,11,12,14)       -178.7631         calculate D2E/DX2 analytically  !
 ! D34   D(13,11,12,32)          1.6453         calculate D2E/DX2 analytically  !
 ! D35   D(1,11,13,15)           6.744          calculate D2E/DX2 analytically  !
 ! D36   D(1,11,13,33)        -170.443          calculate D2E/DX2 analytically  !
 ! D37   D(12,11,13,15)       -179.2945         calculate D2E/DX2 analytically  !
 ! D38   D(12,11,13,33)          3.5186         calculate D2E/DX2 analytically  !
 ! D39   D(11,12,32,16)         -4.19           calculate D2E/DX2 analytically  !
 ! D40   D(14,12,32,16)        176.1997         calculate D2E/DX2 analytically  !
 ! D41   D(11,13,33,16)         -5.8112         calculate D2E/DX2 analytically  !
 ! D42   D(11,13,33,34)        153.3076         calculate D2E/DX2 analytically  !
 ! D43   D(15,13,33,16)        176.8934         calculate D2E/DX2 analytically  !
 ! D44   D(15,13,33,34)        -23.9879         calculate D2E/DX2 analytically  !
 ! D45   D(17,16,32,12)       -177.8497         calculate D2E/DX2 analytically  !
 ! D46   D(33,16,32,12)          1.7864         calculate D2E/DX2 analytically  !
 ! D47   D(17,16,33,13)       -177.1554         calculate D2E/DX2 analytically  !
 ! D48   D(17,16,33,34)         23.169          calculate D2E/DX2 analytically  !
 ! D49   D(32,16,33,13)          3.2081         calculate D2E/DX2 analytically  !
 ! D50   D(32,16,33,34)       -156.4675         calculate D2E/DX2 analytically  !
 ! D51   D(6,18,19,20)        -161.5968         calculate D2E/DX2 analytically  !
 ! D52   D(6,18,19,21)         -43.767          calculate D2E/DX2 analytically  !
 ! D53   D(6,18,19,22)          79.0145         calculate D2E/DX2 analytically  !
 ! D54   D(18,19,22,23)        -91.5341         calculate D2E/DX2 analytically  !
 ! D55   D(18,19,22,24)         83.4391         calculate D2E/DX2 analytically  !
 ! D56   D(20,19,22,23)        152.8027         calculate D2E/DX2 analytically  !
 ! D57   D(20,19,22,24)        -32.2241         calculate D2E/DX2 analytically  !
 ! D58   D(21,19,22,23)         30.895          calculate D2E/DX2 analytically  !
 ! D59   D(21,19,22,24)       -154.1318         calculate D2E/DX2 analytically  !
 ! D60   D(19,22,23,25)        172.5198         calculate D2E/DX2 analytically  !
 ! D61   D(19,22,23,26)         -6.3431         calculate D2E/DX2 analytically  !
 ! D62   D(24,22,23,25)         -2.4998         calculate D2E/DX2 analytically  !
 ! D63   D(24,22,23,26)        178.6373         calculate D2E/DX2 analytically  !
 ! D64   D(19,22,24,27)       -173.0557         calculate D2E/DX2 analytically  !
 ! D65   D(19,22,24,28)          5.7688         calculate D2E/DX2 analytically  !
 ! D66   D(23,22,24,27)          2.0056         calculate D2E/DX2 analytically  !
 ! D67   D(23,22,24,28)       -179.1698         calculate D2E/DX2 analytically  !
 ! D68   D(22,23,25,29)         -0.134          calculate D2E/DX2 analytically  !
 ! D69   D(22,23,25,30)        179.4481         calculate D2E/DX2 analytically  !
 ! D70   D(26,23,25,29)        178.7205         calculate D2E/DX2 analytically  !
 ! D71   D(26,23,25,30)         -1.6973         calculate D2E/DX2 analytically  !
 ! D72   D(22,24,27,29)          1.1432         calculate D2E/DX2 analytically  !
 ! D73   D(22,24,27,48)       -178.9635         calculate D2E/DX2 analytically  !
 ! D74   D(28,24,27,29)       -177.6692         calculate D2E/DX2 analytically  !
 ! D75   D(28,24,27,48)          2.224          calculate D2E/DX2 analytically  !
 ! D76   D(23,25,29,27)          3.1548         calculate D2E/DX2 analytically  !
 ! D77   D(23,25,29,31)        145.8531         calculate D2E/DX2 analytically  !
 ! D78   D(23,25,29,34)       -126.9822         calculate D2E/DX2 analytically  !
 ! D79   D(30,25,29,27)       -176.4276         calculate D2E/DX2 analytically  !
 ! D80   D(30,25,29,31)        -33.7293         calculate D2E/DX2 analytically  !
 ! D81   D(30,25,29,34)         53.4354         calculate D2E/DX2 analytically  !
 ! D82   D(24,27,29,25)         -3.655          calculate D2E/DX2 analytically  !
 ! D83   D(24,27,29,31)       -145.7871         calculate D2E/DX2 analytically  !
 ! D84   D(24,27,29,34)        125.7212         calculate D2E/DX2 analytically  !
 ! D85   D(48,27,29,25)        176.4519         calculate D2E/DX2 analytically  !
 ! D86   D(48,27,29,31)         34.3198         calculate D2E/DX2 analytically  !
 ! D87   D(48,27,29,34)        -54.1719         calculate D2E/DX2 analytically  !
 ! D88   D(25,29,36,40)       -103.3187         calculate D2E/DX2 analytically  !
 ! D89   D(27,29,36,40)        125.466          calculate D2E/DX2 analytically  !
 ! D90   D(31,29,36,40)         10.2786         calculate D2E/DX2 analytically  !
 ! D91   D(25,29,37,41)        101.7444         calculate D2E/DX2 analytically  !
 ! D92   D(27,29,37,41)       -117.5769         calculate D2E/DX2 analytically  !
 ! D93   D(34,29,37,41)         -7.0174         calculate D2E/DX2 analytically  !
 ! D94   D(25,29,34,33)         76.0705         calculate D2E/DX2 analytically  !
 ! D95   D(25,29,34,38)       -105.5999         calculate D2E/DX2 analytically  !
 ! D96   D(27,29,34,33)        -56.4826         calculate D2E/DX2 analytically  !
 ! D97   D(27,29,34,38)        121.8471         calculate D2E/DX2 analytically  !
 ! D98   D(31,29,34,33)       -170.9857         calculate D2E/DX2 analytically  !
 ! D99   D(31,29,34,38)          7.344          calculate D2E/DX2 analytically  !
 ! D100  D(13,33,34,29)        -67.0195         calculate D2E/DX2 analytically  !
 ! D101  D(13,33,34,36)        109.8633         calculate D2E/DX2 analytically  !
 ! D102  D(16,33,34,29)         91.9263         calculate D2E/DX2 analytically  !
 ! D103  D(16,33,34,36)        -91.191          calculate D2E/DX2 analytically  !
 ! D104  D(13,33,38,39)        106.9028         calculate D2E/DX2 analytically  !
 ! D105  D(13,33,38,41)        -77.4469         calculate D2E/DX2 analytically  !
 ! D106  D(16,33,38,39)        -91.8791         calculate D2E/DX2 analytically  !
 ! D107  D(16,33,38,41)         83.7712         calculate D2E/DX2 analytically  !
 ! D108  D(33,34,36,40)       -179.5245         calculate D2E/DX2 analytically  !
 ! D109  D(38,34,36,40)          2.3761         calculate D2E/DX2 analytically  !
 ! D110  D(29,34,38,39)        174.8395         calculate D2E/DX2 analytically  !
 ! D111  D(29,34,38,41)         -8.2496         calculate D2E/DX2 analytically  !
 ! D112  D(36,34,38,39)         -2.122          calculate D2E/DX2 analytically  !
 ! D113  D(36,34,38,41)        174.7889         calculate D2E/DX2 analytically  !
 ! D114  D(34,36,40,35)        178.1541         calculate D2E/DX2 analytically  !
 ! D115  D(34,36,40,39)         -2.0466         calculate D2E/DX2 analytically  !
 ! D116  D(31,37,41,38)          1.8421         calculate D2E/DX2 analytically  !
 ! D117  D(31,37,41,42)       -177.8507         calculate D2E/DX2 analytically  !
 ! D118  D(34,38,39,40)          1.6617         calculate D2E/DX2 analytically  !
 ! D119  D(34,38,39,43)        121.5094         calculate D2E/DX2 analytically  !
 ! D120  D(34,38,39,47)       -118.2702         calculate D2E/DX2 analytically  !
 ! D121  D(41,38,39,40)       -175.3404         calculate D2E/DX2 analytically  !
 ! D122  D(41,38,39,43)        -55.4927         calculate D2E/DX2 analytically  !
 ! D123  D(41,38,39,47)         64.7278         calculate D2E/DX2 analytically  !
 ! D124  D(34,38,41,37)          2.7395         calculate D2E/DX2 analytically  !
 ! D125  D(34,38,41,42)       -177.5797         calculate D2E/DX2 analytically  !
 ! D126  D(39,38,41,37)        179.4086         calculate D2E/DX2 analytically  !
 ! D127  D(39,38,41,42)         -0.9106         calculate D2E/DX2 analytically  !
 ! D128  D(38,39,40,35)       -179.9267         calculate D2E/DX2 analytically  !
 ! D129  D(38,39,40,36)          0.2634         calculate D2E/DX2 analytically  !
 ! D130  D(43,39,40,35)         57.9524         calculate D2E/DX2 analytically  !
 ! D131  D(43,39,40,36)       -121.8574         calculate D2E/DX2 analytically  !
 ! D132  D(47,39,40,35)        -57.9704         calculate D2E/DX2 analytically  !
 ! D133  D(47,39,40,36)        122.2197         calculate D2E/DX2 analytically  !
 ! D134  D(37,41,42,44)       -118.6171         calculate D2E/DX2 analytically  !
 ! D135  D(37,41,42,45)          1.5068         calculate D2E/DX2 analytically  !
 ! D136  D(37,41,42,46)        121.9331         calculate D2E/DX2 analytically  !
 ! D137  D(38,41,42,44)         61.688          calculate D2E/DX2 analytically  !
 ! D138  D(38,41,42,45)       -178.1882         calculate D2E/DX2 analytically  !
 ! D139  D(38,41,42,46)        -57.7619         calculate D2E/DX2 analytically  !
 --------------------------------------------------------------------------------
 Trust Radius=1.00D-01 FncErr=1.00D-07 GrdErr=1.00D-06 EigMax=2.50D+02 EigMin=1.00D-04
 Number of steps in this run=    288 maximum allowed number of steps=    288.
 Search for a saddle point of order  1.
 GradGradGradGradGradGradGradGradGradGradGradGradGradGradGradGradGradGrad

                          Input orientation:                          
 ---------------------------------------------------------------------
 Center     Atomic      Atomic             Coordinates (Angstroms)
 Number     Number       Type             X           Y           Z
 ---------------------------------------------------------------------
      1          6           0        3.520146   -1.053603   -0.311479
      2          6           0        3.714708   -1.964516   -1.343605
      3          6           0        4.785601   -1.829939   -2.207069
      4          6           0        5.663129   -0.768087   -2.059219
      5          6           0        5.472474    0.155388   -1.047770
      6          6           0        4.411259    0.017742   -0.161441
      7          1           0        3.024987   -2.788226   -1.453784
      8          1           0        4.933220   -2.549151   -2.997728
      9          1           0        6.498542   -0.657726   -2.733676
     10          1           0        6.151240    0.986577   -0.926081
     11          6           0        2.352496   -1.132772    0.571633
     12          6           0        2.437286   -1.086318    1.964590
     13          6           0        1.065329   -1.125306    0.040218
     14          1           0        3.390919   -1.068017    2.472169
     15          1           0        0.898624   -1.170518   -1.033013
     16          6           0        0.185626   -1.015223    2.137871
     17          1           0       -0.696593   -0.966398    2.773971
     18          8           0        4.236760    0.915248    0.866726
     19          6           0        3.709730    2.188751    0.488407
     20          1           0        3.951111    2.851299    1.322520
     21          1           0        4.204003    2.550353   -0.421448
     22          6           0        2.218300    2.095696    0.289880
     23          6           0        1.682880    1.811403   -0.961993
     24          6           0        1.363929    2.191059    1.384157
     25          6           0        0.325095    1.575341   -1.105667
     26          1           0        2.338310    1.757639   -1.821246
     27          6           0        0.006447    1.965319    1.238309
     28          1           0        1.775357    2.425169    2.355604
     29          6           0       -0.549492    1.611407   -0.004322
     30          1           0       -0.075373    1.363769   -2.093878
     31          1           0       -1.767505    2.069467   -0.264942
     32          7           0        1.357502   -1.070542    2.728421
     33          7           0       -0.007264   -1.007296    0.817320
     34         46           0       -1.716053   -0.218670    0.107511
     35          8           0       -4.603296   -2.987472   -0.323074
     36          8           0       -2.681816   -2.015585    0.152068
     37          8           0       -2.919055    2.606774   -0.593281
     38          7           0       -3.490606    0.433430   -0.526275
     39          6           0       -4.478758   -0.619715   -0.674898
     40          6           0       -3.897679   -2.003711   -0.254073
     41          6           0       -3.783641    1.683305   -0.734716
     42          6           0       -5.169578    2.097171   -1.163467
     43          1           0       -5.362072   -0.429721   -0.050896
     44          1           0       -5.894004    1.822981   -0.398823
     45          1           0       -5.187075    3.172821   -1.311218
     46          1           0       -5.440271    1.594225   -2.089778
     47          1           0       -4.814676   -0.702566   -1.717404
     48          1           0       -0.642662    2.062119    2.103117
 ---------------------------------------------------------------------
                    Distance matrix (angstroms):
                    1          2          3          4          5
     1  C    0.000000
     2  C    1.390288   0.000000
     3  C    2.407765   1.382205   0.000000
     4  C    2.780017   2.395807   1.385441   0.000000
     5  C    2.411508   2.769702   2.399436   1.382817   0.000000
     6  C    1.401562   2.410818   2.781843   2.405466   1.389498
     7  H    2.135172   1.079978   2.141381   3.377471   3.849663
     8  H    3.383693   2.136046   1.078981   2.141438   3.377523
     9  H    3.859352   3.374867   2.141393   1.079345   2.134537
    10  H    3.385664   3.849670   3.382109   2.145017   1.080003
    11  C    1.466138   2.493102   3.758620   4.244369   3.743806
    12  C    2.520743   3.653381   4.844615   5.167047   4.452922
    13  C    2.480919   3.104585   4.403093   5.067051   4.716654
    14  H    2.786683   3.933025   4.941754   5.078029   4.268438
    15  H    2.721518   2.942317   4.113615   4.890354   4.762179
    16  C    4.137610   5.047401   6.379815   6.905048   6.282468
    17  H    5.225753   6.116392   7.457272   7.990314   7.343126
    18  O    2.403763   3.667580   4.157583   3.664601   2.402015
    19  C    3.344939   4.539374   4.957111   4.364522   3.098656
    20  H    4.254873   5.509644   5.921854   5.240908   3.898815
    21  H    3.669912   4.633986   4.765885   3.977862   2.781575
    22  C    3.460422   4.625238   5.313793   5.058297   4.017929
    23  C    3.465108   4.304824   4.943325   4.868270   4.136516
    24  C    4.248798   5.498695   6.385387   6.252720   5.190219
    25  C    4.213127   4.906799   5.718840   5.907243   5.339956
    26  H    3.402825   3.997130   4.359909   4.182146   3.603950
    27  C    4.884856   5.988412   7.008204   7.095298   6.195116
    28  H    4.717995   6.059255   6.927157   6.693454   5.513941
    29  C    4.874277   5.724011   6.719983   6.962848   6.282742
    30  H    4.684911   5.099519   5.817357   6.121799   5.773485
    31  H    6.141253   6.891385   7.868953   8.153862   7.529530
    32  N    3.730725   4.789260   6.057030   6.446038   5.718000
    33  N    3.703910   4.408961   5.726711   6.362786   5.904060
    34  Pd   5.318877   5.886160   7.086958   7.710312   7.290372
    35  O    8.350467   8.442577   9.645761  10.646096  10.579409
    36  O    6.293221   6.569259   7.833410   8.722624   8.523215
    37  O    7.412225   8.091136   9.036064   9.337695   8.754063
    38  N    7.169941   7.637717   8.743198   9.358655   8.982543
    39  C    8.018903   8.329979   9.467869  10.237004   9.988336
    40  C    7.478645   7.690061   8.901895   9.807873   9.648390
    41  C    7.811216   8.360776   9.377772   9.849116   9.386597
    42  C    9.282488   9.770378  10.752530  11.240980  10.818373
    43  H    8.907914   9.295947  10.468284  11.211732  10.896032
    44  H    9.844216  10.371359  11.430990  11.959844  11.506469
    45  H    9.730253  10.277889  11.193052  11.567938  11.081529
    46  H    9.511173   9.850636  10.784577  11.351958  11.056402
    47  H    8.459853   8.630332   9.678639  10.483584  10.344562
    48  H    5.732972   6.861513   7.949331   8.068340   7.138530
                    6          7          8          9         10
     6  C    0.000000
     7  H    3.386054   0.000000
     8  H    3.860817   2.466227   0.000000
     9  H    3.380740   4.271152   2.469300   0.000000
    10  H    2.133272   4.929611   4.275121   2.468147   0.000000
    11  C    2.469734   2.700941   4.626727   5.323573   4.600570
    12  C    3.104114   3.863569   5.744055   6.225046   5.142599
    13  C    3.541535   2.972811   5.120257   6.118245   5.591088
    14  H    3.025867   4.301876   5.873009   6.076716   4.836200
    15  H    3.809227   2.704709   4.694539   5.874886   5.679302
    16  C    4.920348   4.909735   7.160095   7.982022   6.998825
    17  H    5.972882   5.919723   8.216593   9.066389   8.024793
    18  O    1.375897   4.535293   5.236518   4.533520   2.623829
    19  C    2.372282   5.386212   6.008142   5.124618   3.067078
    20  H    3.231550   6.353724   6.985266   5.937624   3.657043
    21  H    2.554344   5.563832   5.759680   4.571988   2.547898
    22  C    3.054612   5.248219   6.305058   5.919771   4.263417
    23  C    3.361868   4.816606   5.807181   5.694388   4.543992
    24  C    4.049494   5.967102   7.376337   7.171916   5.450351
    25  C    4.473747   5.143085   6.467313   6.763760   5.858571
    26  H    3.174793   4.612098   5.163923   4.896330   3.991778
    27  C    5.015448   6.241405   7.911860   8.050113   6.587943
    28  H    4.367974   6.576664   7.960787   7.596940   5.655737
    29  C    5.212821   5.851035   7.505388   7.891332   6.792633
    30  H    5.067146   5.221208   6.419804   6.907397   6.346395
    31  H    6.511330   6.926652   8.584839   9.047638   8.019743
    32  N    4.342937   4.818899   6.910921   7.512338   6.369227
    33  N    4.640261   4.186188   6.429641   7.420059   6.703890
    34  Pd   6.137767   5.614065   7.699772   8.703142   8.025910
    35  O    9.503665   7.714202   9.914184  11.596962  11.481146
    36  O    7.385420   5.978573   8.258008   9.718553   9.391393
    37  O    7.786082   8.073297   9.696553  10.194576   9.219872
    38  N    7.921198   7.327503   9.271716  10.288164   9.665972
    39  C    8.927620   7.849541   9.884513  11.168757  10.753610
    40  C    8.551801   7.069517   9.263364  10.772256  10.505912
    41  C    8.382072   8.177351   9.950807  10.733105   9.961120
    42  C    9.854975   9.544752  11.270286  12.091321  11.377640
    43  H    9.784194   8.824591  10.916448  12.162379  11.633065
    44  H   10.464879  10.095770  11.962384  12.852262  12.085755
    45  H   10.168801  10.148515  11.747580  12.379422  11.553587
    46  H   10.161517   9.553583  11.207196  12.166393  11.665614
    47  H    9.383909   8.116637  10.003528  11.358861  11.123431
    48  H    5.903374   7.044788   8.852847   9.043723   7.515979
                   11         12         13         14         15
    11  C    0.000000
    12  C    1.396308   0.000000
    13  C    1.392571   2.363681   0.000000
    14  H    2.166692   1.080457   3.365417   0.000000
    15  H    2.165654   3.370489   1.087042   4.302133   0.000000
    16  C    2.676237   2.259436   2.277311   3.223111   3.253766
    17  H    3.764959   3.238931   3.256229   4.099898   4.132736
    18  O    2.798556   2.906833   3.860692   2.688166   4.370650
    19  C    3.589084   3.811077   4.263414   3.826681   4.636995
    20  H    4.358007   4.267171   5.077934   4.122686   5.571465
    21  H    4.240247   4.694661   4.855396   4.703905   5.014422
    22  C    3.243517   3.602475   3.430237   4.018271   3.762944
    23  C    3.386526   4.186980   3.163867   4.796032   3.084146
    24  C    3.561645   3.497170   3.590767   3.989240   4.166464
    25  C    3.775919   4.579548   3.025639   5.402548   2.806057
    26  H    3.752405   4.736078   3.660177   5.246496   3.356801
    27  C    3.942914   3.968495   3.479743   4.709372   3.973457
    28  H    4.021765   3.594661   4.297793   3.850451   5.018003
    29  C    4.035316   4.480533   3.177928   5.370210   3.300659
    30  H    4.385454   5.365402   3.471464   6.227162   2.914912
    31  H    5.284752   5.710522   4.280730   6.629097   4.265640
    32  N    2.376052   1.322732   2.704588   2.049501   3.790640
    33  N    2.375831   2.701535   1.329762   3.780193   2.066641
    34  Pd   4.195722   4.631606   2.926193   5.691587   3.007216
    35  O    7.254203   7.643140   5.977705   8.683615   5.837504
    36  O    5.128323   5.509444   3.853078   6.569541   3.864985
    37  O    6.567380   6.990852   5.495912   7.919396   5.388503
    38  N    6.148189   6.607113   4.848414   7.655089   4.700508
    39  C    6.962981   7.417296   5.612835   8.487451   5.417367
    40  C    6.364355   6.774648   5.048728   7.837830   4.930059
    41  C    6.876701   7.325093   5.656971   8.326355   5.491529
    42  C    8.368077   8.819508   7.120905   9.824377   6.893322
    43  H    7.771511   8.082282   6.465573   9.131710   6.380412
    44  H    8.813798   9.135652   7.570830  10.139539   7.450035
    45  H    8.884165   9.327489   7.706674  10.289834   7.481826
    46  H    8.674493   9.256301   7.365837  10.290228   6.995866
    47  H    7.536121   8.142192   6.151619   9.220514   5.773142
    48  H    4.639369   4.406578   4.163227   5.118958   4.760338
                   16         17         18         19         20
    16  C    0.000000
    17  H    1.088722   0.000000
    18  O    4.664141   5.613924   0.000000
    19  C    5.040386   5.881705   1.429229   0.000000
    20  H    5.458357   6.187299   2.009387   1.092236   0.000000
    21  H    5.950697   6.825986   2.081834   1.096767   1.787721
    22  C    4.150259   4.903441   2.408400   1.507460   2.154046
    23  C    4.454295   5.228336   3.266437   2.520748   3.383083
    24  C    3.498103   4.018316   3.185685   2.511008   2.670810
    25  C    4.153434   4.749303   4.430257   3.791187   4.546664
    26  H    5.291259   6.143861   3.396899   2.720504   3.698713
    27  C    3.118485   3.383414   4.374502   3.785047   4.043813
    28  H    3.796176   4.217617   3.248865   2.698911   2.445967
    29  C    3.468223   3.792839   4.914424   4.326324   4.853170
    30  H    4.861628   5.432453   5.249841   4.655727   5.486081
    31  H    4.370761   4.427000   6.218046   5.530088   5.986139
    32  N    1.313432   2.057237   3.962247   4.601482   4.907566
    33  N    1.334588   2.074929   4.659437   4.913140   5.550920
    34  Pd   2.893656   2.951001   6.107222   5.948099   6.558788
    35  O    5.734090   5.379476   9.736192   9.826402  10.486996
    36  O    3.628548   3.451997   7.547663   7.657769   8.309767
    37  O    5.497008   5.389368   7.496570   6.729456   7.136474
    38  N    4.765601   4.545069   7.866688   7.480345   8.040104
    39  C    5.461188   5.130269   8.982927   8.734535   9.332754
    40  C    4.834448   4.526812   8.714678   8.717837   9.362706
    41  C    5.593647   5.372307   8.214703   7.609344   8.088437
    42  C    7.018835   6.700484   9.695248   9.032120   9.483449
    43  H    5.992535   5.480383   9.735941   9.457528   9.969290
    44  H    7.173014   6.697787  10.249779   9.651563  10.047226
    45  H    7.635564   7.347539   9.932207   9.130179   9.515586
    46  H    7.505528   7.260532  10.141343   9.524863  10.070852
    47  H    6.321703   6.099236   9.551102   9.267730   9.935296
    48  H    3.187052   3.102398   5.162629   4.643990   4.725980
                   21         22         23         24         25
    21  H    0.000000
    22  C    2.157711   0.000000
    23  C    2.682219   1.390929   0.000000
    24  C    3.384571   1.391577   2.397976   0.000000
    25  C    4.057676   2.408848   1.385622   2.767220   0.000000
    26  H    2.463461   2.141387   1.082032   3.378147   2.144369
    27  C    4.551542   2.410147   2.770460   1.383830   2.397466
    28  H    3.691343   2.138216   3.375162   1.080644   3.847840
    29  C    4.863263   2.825201   2.437338   2.434142   1.406828
    30  H    4.745320   3.388061   2.138456   3.853923   1.087059
    31  H    5.992884   4.024321   3.529538   3.541213   2.308670
    32  N    5.579886   4.088095   4.693681   3.527765   4.771456
    33  N    5.650326   3.854852   3.737326   3.525755   3.237029
    34  Pd   6.557008   4.568225   4.100949   4.113746   2.975998
    35  O   10.404119   8.529272   7.934320   8.083291   6.761712
    36  O    8.281981   6.397872   5.910799   5.965060   4.849553
    37  O    7.125353   5.237708   4.684695   4.735718   3.442514
    38  N    7.981188   6.001737   5.371556   5.505044   4.024827
    39  C    9.246832   7.290737   6.630124   6.802731   5.299136
    40  C    9.295416   7.382833   6.796976   6.925634   5.600593
    41  C    8.040669   6.102717   5.472743   5.589714   4.126860
    42  C    9.413819   7.529473   6.861373   7.013267   5.519700
    43  H   10.026363   7.997244   7.448764   7.359820   6.121821
    44  H   10.124195   8.146052   7.597794   7.482786   6.264036
    45  H    9.453650   7.652665   7.012253   7.151542   5.742665
    46  H    9.834100   8.035418   7.215147   7.663000   5.848784
    47  H    9.674583   7.830850   7.007776   7.494525   5.655115
    48  H    5.486526   3.387338   3.855633   2.135401   3.386710
                   26         27         28         29         30
    26  H    0.000000
    27  C    3.852478   0.000000
    28  H    4.267152   2.142161   0.000000
    29  C    3.414966   1.406574   3.411214   0.000000
    30  H    2.460758   3.387038   4.934538   2.156933   0.000000
    31  H    4.401936   2.327556   4.421047   1.327139   2.589658
    32  N    5.446105   3.641735   3.540282   4.277541   5.588700
    33  N    4.484262   3.002309   4.162436   2.797626   3.755218
    34  Pd   4.905482   3.002585   4.922779   2.173144   3.168920
    35  O    8.540872   6.943903   8.784032   6.138780   6.524655
    36  O    6.582769   4.924863   6.666503   4.210265   4.822639
    37  O    5.465237   3.510662   5.546747   2.636751   3.447228
    38  N    6.116105   4.205926   6.324762   3.210953   3.871269
    39  C    7.310154   5.519042   7.587438   4.568010   5.033638
    40  C    7.449251   5.763905   7.655634   4.933742   5.416163
    41  C    6.218067   4.282187   6.403351   3.316378   3.962408
    42  C    7.544292   5.707640   7.792533   4.787984   5.230150
    43  H    8.198449   6.018244   8.055094   5.227744   5.944709
    44  H    8.354553   6.125013   8.171206   5.363227   6.077874
    45  H    7.674261   5.910230   7.904431   5.064895   5.478569
    46  H    7.784930   6.393794   8.515702   5.316873   5.369847
    47  H    7.564959   6.252766   8.354679   5.145962   5.183866
    48  H    4.937563   1.085636   2.458124   2.157109   4.292351
                   31         32         33         34         35
    31  H    0.000000
    32  N    5.346546   0.000000
    33  N    3.706240   2.349233   0.000000
    34  Pd   2.318823   4.128147   2.011398   0.000000
    35  O    5.798079   6.965440   5.132749   4.023411   0.000000
    36  O    4.206841   4.883318   2.934696   2.040487   2.205087
    37  O    1.312467   6.545632   4.850755   3.149834   5.848526
    38  N    2.390395   6.029853   4.001826   1.993980   3.603046
    39  C    3.840658   6.771097   4.729820   2.899231   2.396990
    40  C    4.596579   6.114164   4.156448   2.841937   1.212617
    41  C    2.105852   6.782945   4.889701   2.932878   4.759983
    42  C    3.518837   8.233103   6.341193   4.348028   5.184644
    43  H    4.383226   7.299859   5.455398   3.655556   2.681774
    44  H    4.136021   8.410498   6.644034   4.677605   4.981176
    45  H    3.742397   8.783866   6.988168   5.055986   6.266293
    46  H    4.128570   8.747899   6.688549   4.688759   4.981336
    47  H    4.367959   7.615547   5.443244   3.628490   2.685075
    48  H    2.621646   3.768982   3.387966   3.215060   6.860859
                   36         37         38         39         40
    36  O    0.000000
    37  O    4.688073   0.000000
    38  N    2.666827   2.248240   0.000000
    39  C    2.421018   3.584629   1.451774   0.000000
    40  C    1.281957   4.725393   2.485852   1.558908   0.000000
    41  C    3.960074   1.272913   1.300578   2.406380   3.719961
    42  C    4.983408   2.376902   2.448060   2.845594   4.388846
    43  H    3.120886   3.934821   2.115042   1.098053   2.159439
    44  H    5.035496   3.082608   2.779104   2.836529   4.318546
    45  H    5.944500   2.445354   3.316384   3.910236   5.438436
    46  H    5.066129   3.101820   2.755572   2.797842   4.323719
    47  H    3.125386   3.976024   2.112449   1.098420   2.162221
    48  H    4.959073   3.570598   4.204415   5.442906   5.716857
                   41         42         43         44         45
    41  C    0.000000
    42  C    1.508621   0.000000
    43  H    2.724690   2.767680   0.000000
    44  H    2.141487   1.088418   2.340656   0.000000
    45  H    2.126179   1.085890   3.820647   1.776030   0.000000
    46  H    2.142090   1.088247   2.873936   1.765653   1.778266
    47  H    2.778685   2.875993   1.775201   3.046636   3.914370
    48  H    4.250005   5.582542   5.755160   5.821811   5.791634
                   46         47         48
    46  H    0.000000
    47  H    2.409415   0.000000
    48  H    6.388766   6.296473   0.000000
 Stoichiometry    C21H19N3O4Pd
 Framework group  C1[X(C21H19N3O4Pd)]
 Deg. of freedom   138
 Full point group                 C1      NOp   1
 Largest Abelian subgroup         C1      NOp   1
 Largest concise Abelian subgroup C1      NOp   1
                         Standard orientation:                         
 ---------------------------------------------------------------------
 Center     Atomic      Atomic             Coordinates (Angstroms)
 Number     Number       Type             X           Y           Z
 ---------------------------------------------------------------------
      1          6           0        3.465038   -1.058277   -0.272925
      2          6           0        3.668313   -1.983819   -1.290251
      3          6           0        4.738359   -1.853424   -2.155404
      4          6           0        5.606189   -0.781449   -2.024304
      5          6           0        5.406716    0.156357   -1.027854
      6          6           0        4.346365    0.023348   -0.139785
      7          1           0        2.986114   -2.815391   -1.387439
      8          1           0        4.892846   -2.583852   -2.934383
      9          1           0        6.440892   -0.674365   -2.700166
     10          1           0        6.077887    0.995492   -0.919280
     11          6           0        2.297729   -1.133833    0.610954
     12          6           0        2.381430   -1.064294    2.003015
     13          6           0        1.010801   -1.146521    0.079060
     14          1           0        3.334616   -1.029240    2.510553
     15          1           0        0.845023   -1.210435   -0.993364
     16          6           0        0.129137   -1.010789    2.174386
     17          1           0       -0.753790   -0.959752    2.809327
     18          8           0        4.163274    0.935604    0.873803
     19          6           0        3.624942    2.198063    0.474940
     20          1           0        3.859929    2.876050    1.298405
     21          1           0        4.116363    2.549489   -0.440430
     22          6           0        2.134508    2.088359    0.277435
     23          6           0        1.602277    1.779209   -0.969898
     24          6           0        1.278788    2.193521    1.369758
     25          6           0        0.246748    1.528610   -1.110221
     26          1           0        2.258576    1.717607   -1.827960
     27          6           0       -0.076529    1.953211    1.227096
     28          1           0        1.687621    2.446882    2.337464
     29          6           0       -0.628655    1.574416   -0.009886
     30          1           0       -0.151320    1.297614   -2.095046
     31          1           0       -1.850632    2.017211   -0.278222
     32          7           0        1.301183   -1.046039    2.766136
     33          7           0       -0.063185   -1.025773    0.853812
     34         46           0       -1.778690   -0.264104    0.130883
     35          8           0       -4.640597   -3.065439   -0.256219
     36          8           0       -2.728203   -2.068731    0.203921
     37          8           0       -3.006831    2.538754   -0.615515
     38          7           0       -3.558758    0.361686   -0.513865
     39          6           0       -4.537286   -0.702596   -0.645915
     40          6           0       -3.943929   -2.074360   -0.202763
     41          6           0       -3.862972    1.605359   -0.742415
     42          6           0       -5.252387    1.999754   -1.178207
     43          1           0       -5.422578   -0.510618   -0.025333
     44          1           0       -5.974671    1.731317   -0.409507
     45          1           0       -5.279528    3.072695   -1.343190
     46          1           0       -5.518082    1.479599   -2.096426
     47          1           0       -4.871943   -0.805180   -1.687071
     48          1           0       -0.726900    2.057988    2.090025
 ---------------------------------------------------------------------
 Rotational constants (GHZ):           0.3140559           0.0976506           0.0889913
 General basis read from cards:  (5D, 7F)
 ======================================================================================================
                                       Pseudopotential Parameters
 ======================================================================================================
  Center     Atomic      Valence      Angular      Power
  Number     Number     Electrons     Momentum     of R      Exponent        Coefficient   SO-Coeffient
 ======================================================================================================
    1          6
                                   No pseudopotential on this center.
    2          6
                                   No pseudopotential on this center.
    3          6
                                   No pseudopotential on this center.
    4          6
                                   No pseudopotential on this center.
    5          6
                                   No pseudopotential on this center.
    6          6
                                   No pseudopotential on this center.
    7          1
                                   No pseudopotential on this center.
    8          1
                                   No pseudopotential on this center.
    9          1
                                   No pseudopotential on this center.
   10          1
                                   No pseudopotential on this center.
   11          6
                                   No pseudopotential on this center.
   12          6
                                   No pseudopotential on this center.
   13          6
                                   No pseudopotential on this center.
   14          1
                                   No pseudopotential on this center.
   15          1
                                   No pseudopotential on this center.
   16          6
                                   No pseudopotential on this center.
   17          1
                                   No pseudopotential on this center.
   18          8
                                   No pseudopotential on this center.
   19          6
                                   No pseudopotential on this center.
   20          1
                                   No pseudopotential on this center.
   21          1
                                   No pseudopotential on this center.
   22          6
                                   No pseudopotential on this center.
   23          6
                                   No pseudopotential on this center.
   24          6
                                   No pseudopotential on this center.
   25          6
                                   No pseudopotential on this center.
   26          1
                                   No pseudopotential on this center.
   27          6
                                   No pseudopotential on this center.
   28          1
                                   No pseudopotential on this center.
   29          6
                                   No pseudopotential on this center.
   30          1
                                   No pseudopotential on this center.
   31          1
                                   No pseudopotential on this center.
   32          7
                                   No pseudopotential on this center.
   33          7
                                   No pseudopotential on this center.
   34         46           18
                                      F and up 
                                                     2       13.2700000      -31.92955431    0.00000000
                                                     2        6.6300000       -5.39821694    0.00000000
                                      S - F
                                                     2       12.4300000      240.22904033    0.00000000
                                                     2        6.1707594       35.17194347    0.00000000
                                                     2       13.2700000       31.92955431    0.00000000
                                                     2        6.6300000        5.39821694    0.00000000
                                      P - F
                                                     2       11.0800000      170.41727605    0.00000000
                                                     2        5.8295541       28.47213287    0.00000000
                                                     2       13.2700000       31.92955431    0.00000000
                                                     2        6.6300000        5.39821694    0.00000000
                                      D - F
                                                     2        9.5100000       69.01384488    0.00000000
                                                     2        4.1397811       11.75086158    0.00000000
                                                     2       13.2700000       31.92955431    0.00000000
                                                     2        6.6300000        5.39821694    0.00000000
   35          8
                                   No pseudopotential on this center.
   36          8
                                   No pseudopotential on this center.
   37          8
                                   No pseudopotential on this center.
   38          7
                                   No pseudopotential on this center.
   39          6
                                   No pseudopotential on this center.
   40          6
                                   No pseudopotential on this center.
   41          6
                                   No pseudopotential on this center.
   42          6
                                   No pseudopotential on this center.
   43          1
                                   No pseudopotential on this center.
   44          1
                                   No pseudopotential on this center.
   45          1
                                   No pseudopotential on this center.
   46          1
                                   No pseudopotential on this center.
   47          1
                                   No pseudopotential on this center.
   48          1
                                   No pseudopotential on this center.
 ======================================================================================================
 There are   586 symmetry adapted cartesian basis functions of A   symmetry.
 There are   543 symmetry adapted basis functions of A   symmetry.
   543 basis functions,   932 primitive gaussians,   586 cartesian basis functions
   108 alpha electrons      108 beta electrons
       nuclear repulsion energy      3077.5081155119 Hartrees.
 NAtoms=   48 NActive=   48 NUniq=   48 SFac= 1.00D+00 NAtFMM=   60 NAOKFM=F Big=F
 Integral buffers will be    131072 words long.
 Raffenetti 2 integral format.
 Two-electron integral symmetry is turned on.
 One-electron integrals computed using PRISM.
   1 Symmetry operations used in ECPInt.
 ECPInt:  NShTT=   29161 NPrTT=  103719 LenC2=   25394 LenP2D=   61598.
 LDataN:  DoStor=T MaxTD1= 8 Len=  415
 NBasis=   543 RedAO= T EigKep=  2.11D-04  NBF=   543
 NBsUse=   543 1.00D-06 EigRej= -1.00D+00 NBFU=   543
 Defaulting to unpruned grid for atomic number  46.
 ExpMin= 3.70D-02 ExpMax= 2.27D+03 ExpMxC= 3.41D+02 IAcc=3 IRadAn=         5 AccDes= 0.00D+00
 Harris functional with IExCor= 1009 and IRadAn=       5 diagonalized for initial guess.
 HarFok:  IExCor= 1009 AccDes= 0.00D+00 IRadAn=         5 IDoV= 1 UseB2=F ITyADJ=14
 ICtDFT=  3500011 ScaDFX=  1.000000  1.000000  1.000000  1.000000
 Defaulting to unpruned grid for atomic number  46.
 FoFCou: FMM=F IPFlag=           0 FMFlag=      100000 FMFlg1=           0
         NFxFlg=           0 DoJE=T BraDBF=F KetDBF=T FulRan=T
         wScrn=  0.000000 ICntrl=       500 IOpCl=  0 I1Cent=   200000004 NGrid=           0
         NMat0=    1 NMatS0=      1 NMatT0=    0 NMatD0=    1 NMtDS0=    0 NMtDT0=    0
 Petite list used in FoFCou.
 Requested convergence on RMS density matrix=1.00D-08 within 128 cycles.
 Requested convergence on MAX density matrix=1.00D-06.
 Requested convergence on             energy=1.00D-06.
 No special actions if energy rises.
 Defaulting to unpruned grid for atomic number  46.
 Defaulting to unpruned grid for atomic number  46.
 Defaulting to unpruned grid for atomic number  46.
 Defaulting to unpruned grid for atomic number  46.
 Defaulting to unpruned grid for atomic number  46.
 Defaulting to unpruned grid for atomic number  46.
 Defaulting to unpruned grid for atomic number  46.
 Defaulting to unpruned grid for atomic number  46.
 Defaulting to unpruned grid for atomic number  46.
 Defaulting to unpruned grid for atomic number  46.
 Defaulting to unpruned grid for atomic number  46.
 Defaulting to unpruned grid for atomic number  46.
 Defaulting to unpruned grid for atomic number  46.
 Defaulting to unpruned grid for atomic number  46.
 Defaulting to unpruned grid for atomic number  46.
 Defaulting to unpruned grid for atomic number  46.
 Defaulting to unpruned grid for atomic number  46.
 Defaulting to unpruned grid for atomic number  46.
 Defaulting to unpruned grid for atomic number  46.
 Defaulting to unpruned grid for atomic number  46.
 Defaulting to unpruned grid for atomic number  46.
 Defaulting to unpruned grid for atomic number  46.
 Defaulting to unpruned grid for atomic number  46.
 Defaulting to unpruned grid for atomic number  46.
 Defaulting to unpruned grid for atomic number  46.
 Defaulting to unpruned grid for atomic number  46.
 Defaulting to unpruned grid for atomic number  46.
 Defaulting to unpruned grid for atomic number  46.
 Defaulting to unpruned grid for atomic number  46.
 Defaulting to unpruned grid for atomic number  46.
 Defaulting to unpruned grid for atomic number  46.
 Defaulting to unpruned grid for atomic number  46.
 Defaulting to unpruned grid for atomic number  46.
 Defaulting to unpruned grid for atomic number  46.
 Defaulting to unpruned grid for atomic number  46.
 Defaulting to unpruned grid for atomic number  46.
 Defaulting to unpruned grid for atomic number  46.
 Defaulting to unpruned grid for atomic number  46.
 Defaulting to unpruned grid for atomic number  46.
 Defaulting to unpruned grid for atomic number  46.
 Defaulting to unpruned grid for atomic number  46.
 Defaulting to unpruned grid for atomic number  46.
 Defaulting to unpruned grid for atomic number  46.
 Defaulting to unpruned grid for atomic number  46.
 Defaulting to unpruned grid for atomic number  46.
 Defaulting to unpruned grid for atomic number  46.
 Defaulting to unpruned grid for atomic number  46.
 Defaulting to unpruned grid for atomic number  46.
 Defaulting to unpruned grid for atomic number  46.
 Defaulting to unpruned grid for atomic number  46.
 Defaulting to unpruned grid for atomic number  46.
 Defaulting to unpruned grid for atomic number  46.
 Defaulting to unpruned grid for atomic number  46.
 Defaulting to unpruned grid for atomic number  46.
 Defaulting to unpruned grid for atomic number  46.
 Defaulting to unpruned grid for atomic number  46.
 Defaulting to unpruned grid for atomic number  46.
 Defaulting to unpruned grid for atomic number  46.
 Defaulting to unpruned grid for atomic number  46.
 Defaulting to unpruned grid for atomic number  46.
 Defaulting to unpruned grid for atomic number  46.
 Defaulting to unpruned grid for atomic number  46.
 Defaulting to unpruned grid for atomic number  46.
 Defaulting to unpruned grid for atomic number  46.
 EnCoef did     6 forward-backward iterations
 EnCoef did   100 forward-backward iterations
 EnCoef did     2 forward-backward iterations
 Restarting incremental Fock formation.
 SCF Done:  E(RMN15) =  -1401.98541668     A.U. after   23 cycles
            NFock= 23  Conv=0.55D-08     -V/T= 2.0720
 DoSCS=F DFT=T ScalE2(SS,OS)=  1.000000  1.000000
 Range of M.O.s used for correlation:     1   543
 NBasis=   543 NAE=   108 NBE=   108 NFC=     0 NFV=     0
 NROrb=    543 NOA=   108 NOB=   108 NVA=   435 NVB=   435
   1 Symmetry operations used in ECPInt.
 ECPInt:  NShTT=   29161 NPrTT=  103719 LenC2=   25394 LenP2D=   61598.
 LDataN:  DoStor=T MaxTD1= 9 Len=  602
 Number of processors reduced to  12 by ecpmxn.
 Symmetrizing basis deriv contribution to polar:
 IMax=3 JMax=2 DiffMx= 0.00D+00
 G2DrvN: will do    49 centers at a time, making    1 passes.
 Calling FoFCou, ICntrl=  3107 FMM=F I1Cent=   0 AccDes= 0.00D+00.
 Defaulting to unpruned grid for atomic number  46.
 Defaulting to unpruned grid for atomic number  46.
 Defaulting to unpruned grid for atomic number  46.
 Defaulting to unpruned grid for atomic number  46.
 Defaulting to unpruned grid for atomic number  46.
 Defaulting to unpruned grid for atomic number  46.
 Defaulting to unpruned grid for atomic number  46.
 Defaulting to unpruned grid for atomic number  46.
 Defaulting to unpruned grid for atomic number  46.
 Defaulting to unpruned grid for atomic number  46.
 Defaulting to unpruned grid for atomic number  46.
 Defaulting to unpruned grid for atomic number  46.
 Defaulting to unpruned grid for atomic number  46.
 Defaulting to unpruned grid for atomic number  46.
 Defaulting to unpruned grid for atomic number  46.
 Defaulting to unpruned grid for atomic number  46.
 Defaulting to unpruned grid for atomic number  46.
 Defaulting to unpruned grid for atomic number  46.
 Defaulting to unpruned grid for atomic number  46.
 Defaulting to unpruned grid for atomic number  46.
 Defaulting to unpruned grid for atomic number  46.
 Defaulting to unpruned grid for atomic number  46.
 Defaulting to unpruned grid for atomic number  46.
 Defaulting to unpruned grid for atomic number  46.
 Defaulting to unpruned grid for atomic number  46.
 Defaulting to unpruned grid for atomic number  46.
 Defaulting to unpruned grid for atomic number  46.
 Defaulting to unpruned grid for atomic number  46.
 Defaulting to unpruned grid for atomic number  46.
 Defaulting to unpruned grid for atomic number  46.
 Defaulting to unpruned grid for atomic number  46.
 Defaulting to unpruned grid for atomic number  46.
 Defaulting to unpruned grid for atomic number  46.
 Defaulting to unpruned grid for atomic number  46.
 Defaulting to unpruned grid for atomic number  46.
 Defaulting to unpruned grid for atomic number  46.
 Defaulting to unpruned grid for atomic number  46.
 Defaulting to unpruned grid for atomic number  46.
 Defaulting to unpruned grid for atomic number  46.
 Defaulting to unpruned grid for atomic number  46.
 Defaulting to unpruned grid for atomic number  46.
 Defaulting to unpruned grid for atomic number  46.
 Defaulting to unpruned grid for atomic number  46.
 Defaulting to unpruned grid for atomic number  46.
 Defaulting to unpruned grid for atomic number  46.
 Defaulting to unpruned grid for atomic number  46.
 Defaulting to unpruned grid for atomic number  46.
 Defaulting to unpruned grid for atomic number  46.
 Defaulting to unpruned grid for atomic number  46.
 Defaulting to unpruned grid for atomic number  46.
 Defaulting to unpruned grid for atomic number  46.
 Defaulting to unpruned grid for atomic number  46.
 Defaulting to unpruned grid for atomic number  46.
 Defaulting to unpruned grid for atomic number  46.
 Defaulting to unpruned grid for atomic number  46.
 Defaulting to unpruned grid for atomic number  46.
 Defaulting to unpruned grid for atomic number  46.
 Defaulting to unpruned grid for atomic number  46.
 Defaulting to unpruned grid for atomic number  46.
 Defaulting to unpruned grid for atomic number  46.
 Defaulting to unpruned grid for atomic number  46.
 Defaulting to unpruned grid for atomic number  46.
 Defaulting to unpruned grid for atomic number  46.
 Defaulting to unpruned grid for atomic number  46.
 End of G2Drv F.D. properties file   721 does not exist.
 End of G2Drv F.D. properties file   722 does not exist.
 End of G2Drv F.D. properties file   788 does not exist.
          IDoAtm=111111111111111111111111111111111111111111111111
          Differentiating once with respect to nuclear coordinates.
 Defaulting to unpruned grid for atomic number  46.
 CalDSu exits because no D1Ps are significant.
 Defaulting to unpruned grid for atomic number  46.
 Defaulting to unpruned grid for atomic number  46.
 Defaulting to unpruned grid for atomic number  46.
 Defaulting to unpruned grid for atomic number  46.
 Defaulting to unpruned grid for atomic number  46.
 Defaulting to unpruned grid for atomic number  46.
 Defaulting to unpruned grid for atomic number  46.
 Defaulting to unpruned grid for atomic number  46.
 Defaulting to unpruned grid for atomic number  46.
 Defaulting to unpruned grid for atomic number  46.
 Defaulting to unpruned grid for atomic number  46.
 Defaulting to unpruned grid for atomic number  46.
 Defaulting to unpruned grid for atomic number  46.
 Defaulting to unpruned grid for atomic number  46.
 Defaulting to unpruned grid for atomic number  46.
 Defaulting to unpruned grid for atomic number  46.
 Defaulting to unpruned grid for atomic number  46.
 Defaulting to unpruned grid for atomic number  46.
 Defaulting to unpruned grid for atomic number  46.
 Defaulting to unpruned grid for atomic number  46.
 Defaulting to unpruned grid for atomic number  46.
 Defaulting to unpruned grid for atomic number  46.
 Defaulting to unpruned grid for atomic number  46.
 Defaulting to unpruned grid for atomic number  46.
 Defaulting to unpruned grid for atomic number  46.
 Defaulting to unpruned grid for atomic number  46.
 Defaulting to unpruned grid for atomic number  46.
 Defaulting to unpruned grid for atomic number  46.
 Defaulting to unpruned grid for atomic number  46.
 Defaulting to unpruned grid for atomic number  46.
 Defaulting to unpruned grid for atomic number  46.
 Defaulting to unpruned grid for atomic number  46.
 Defaulting to unpruned grid for atomic number  46.
 Defaulting to unpruned grid for atomic number  46.
 Defaulting to unpruned grid for atomic number  46.
 Defaulting to unpruned grid for atomic number  46.
 Defaulting to unpruned grid for atomic number  46.
 Defaulting to unpruned grid for atomic number  46.
 Defaulting to unpruned grid for atomic number  46.
 Defaulting to unpruned grid for atomic number  46.
 Defaulting to unpruned grid for atomic number  46.
 Defaulting to unpruned grid for atomic number  46.
 Defaulting to unpruned grid for atomic number  46.
 Defaulting to unpruned grid for atomic number  46.
 Defaulting to unpruned grid for atomic number  46.
 Defaulting to unpruned grid for atomic number  46.
 Defaulting to unpruned grid for atomic number  46.
 Defaulting to unpruned grid for atomic number  46.
 Defaulting to unpruned grid for atomic number  46.
 Defaulting to unpruned grid for atomic number  46.
 Defaulting to unpruned grid for atomic number  46.
 Defaulting to unpruned grid for atomic number  46.
 Defaulting to unpruned grid for atomic number  46.
 Defaulting to unpruned grid for atomic number  46.
 Defaulting to unpruned grid for atomic number  46.
 Defaulting to unpruned grid for atomic number  46.
 Defaulting to unpruned grid for atomic number  46.
 Defaulting to unpruned grid for atomic number  46.
 Defaulting to unpruned grid for atomic number  46.
 Defaulting to unpruned grid for atomic number  46.
 Defaulting to unpruned grid for atomic number  46.
 Defaulting to unpruned grid for atomic number  46.
 Defaulting to unpruned grid for atomic number  46.
 Defaulting to unpruned grid for atomic number  46.
          There are   147 degrees of freedom in the 1st order CPHF.  IDoFFX=6 NUNeed=     0.
    141 vectors produced by pass  0 Test12= 4.70D-14 1.00D-09 XBig12= 1.11D-01 9.77D-02.
 AX will form    64 AO Fock derivatives at one time.
    141 vectors produced by pass  1 Test12= 4.70D-14 1.00D-09 XBig12= 1.79D-02 3.13D-02.
    141 vectors produced by pass  2 Test12= 4.70D-14 1.00D-09 XBig12= 3.72D-04 2.83D-03.
    141 vectors produced by pass  3 Test12= 4.70D-14 1.00D-09 XBig12= 3.50D-06 1.83D-04.
    141 vectors produced by pass  4 Test12= 4.70D-14 1.00D-09 XBig12= 2.10D-08 1.73D-05.
    141 vectors produced by pass  5 Test12= 4.70D-14 1.00D-09 XBig12= 9.81D-11 9.11D-07.
    115 vectors produced by pass  6 Test12= 4.70D-14 1.00D-09 XBig12= 3.59D-13 4.87D-08.
     25 vectors produced by pass  7 Test12= 4.70D-14 1.00D-09 XBig12= 1.09D-15 2.30D-09.
 InvSVY:  IOpt=1 It=  1 EMax= 1.17D-15
 Solved reduced A of dimension   986 with   147 vectors.
 End of Minotr F.D. properties file   721 does not exist.
 End of Minotr F.D. properties file   722 does not exist.
 End of Minotr F.D. properties file   788 does not exist.

 **********************************************************************

            Population analysis using the SCF Density.

 **********************************************************************

 Orbital symmetries:
       Occupied  (A) (A) (A) (A) (A) (A) (A) (A) (A) (A) (A) (A)
                 (A) (A) (A) (A) (A) (A) (A) (A) (A) (A) (A) (A)
                 (A) (A) (A) (A) (A) (A) (A) (A) (A) (A) (A) (A)
                 (A) (A) (A) (A) (A) (A) (A) (A) (A) (A) (A) (A)
                 (A) (A) (A) (A) (A) (A) (A) (A) (A) (A) (A) (A)
                 (A) (A) (A) (A) (A) (A) (A) (A) (A) (A) (A) (A)
                 (A) (A) (A) (A) (A) (A) (A) (A) (A) (A) (A) (A)
                 (A) (A) (A) (A) (A) (A) (A) (A) (A) (A) (A) (A)
                 (A) (A) (A) (A) (A) (A) (A) (A) (A) (A) (A) (A)
       Virtual   (A) (A) (A) (A) (A) (A) (A) (A) (A) (A) (A) (A)
                 (A) (A) (A) (A) (A) (A) (A) (A) (A) (A) (A) (A)
                 (A) (A) (A) (A) (A) (A) (A) (A) (A) (A) (A) (A)
                 (A) (A) (A) (A) (A) (A) (A) (A) (A) (A) (A) (A)
                 (A) (A) (A) (A) (A) (A) (A) (A) (A) (A) (A) (A)
                 (A) (A) (A) (A) (A) (A) (A) (A) (A) (A) (A) (A)
                 (A) (A) (A) (A) (A) (A) (A) (A) (A) (A) (A) (A)
                 (A) (A) (A) (A) (A) (A) (A) (A) (A) (A) (A) (A)
                 (A) (A) (A) (A) (A) (A) (A) (A) (A) (A) (A) (A)
                 (A) (A) (A) (A) (A) (A) (A) (A) (A) (A) (A) (A)
                 (A) (A) (A) (A) (A) (A) (A) (A) (A) (A) (A) (A)
                 (A) (A) (A) (A) (A) (A) (A) (A) (A) (A) (A) (A)
                 (A) (A) (A) (A) (A) (A) (A) (A) (A) (A) (A) (A)
                 (A) (A) (A) (A) (A) (A) (A) (A) (A) (A) (A) (A)
                 (A) (A) (A) (A) (A) (A) (A) (A) (A) (A) (A) (A)
                 (A) (A) (A) (A) (A) (A) (A) (A) (A) (A) (A) (A)
                 (A) (A) (A) (A) (A) (A) (A) (A) (A) (A) (A) (A)
                 (A) (A) (A) (A) (A) (A) (A) (A) (A) (A) (A) (A)
                 (A) (A) (A) (A) (A) (A) (A) (A) (A) (A) (A) (A)
                 (A) (A) (A) (A) (A) (A) (A) (A) (A) (A) (A) (A)
                 (A) (A) (A) (A) (A) (A) (A) (A) (A) (A) (A) (A)
                 (A) (A) (A) (A) (A) (A) (A) (A) (A) (A) (A) (A)
                 (A) (A) (A) (A) (A) (A) (A) (A) (A) (A) (A) (A)
                 (A) (A) (A) (A) (A) (A) (A) (A) (A) (A) (A) (A)
                 (A) (A) (A) (A) (A) (A) (A) (A) (A) (A) (A) (A)
                 (A) (A) (A) (A) (A) (A) (A) (A) (A) (A) (A) (A)
                 (A) (A) (A) (A) (A) (A) (A) (A) (A) (A) (A) (A)
                 (A) (A) (A) (A) (A) (A) (A) (A) (A) (A) (A) (A)
                 (A) (A) (A) (A) (A) (A) (A) (A) (A) (A) (A) (A)
                 (A) (A) (A) (A) (A) (A) (A) (A) (A) (A) (A) (A)
                 (A) (A) (A) (A) (A) (A) (A) (A) (A) (A) (A) (A)
                 (A) (A) (A) (A) (A) (A) (A) (A) (A) (A) (A) (A)
[...]
 0184,0.00000193,0.00000066,-0.00000075,-0.00000108,0.00000134,0.000000
 03,-0.00000051,0.00000093,0.00000078,0.,0.00001135,-0.00000061,0.00000
 813,-0.00000853,-0.00000362,-0.00000736,-0.00001707,-0.00001284,0.0000
 5841,0.00000224,-0.00000189,0.00000032,-0.00000497,-0.00000029,-0.0000
 0460,0.00000728,-0.00000676,-0.00005481,-0.00000406,-0.00000176,-0.000
 00452,0.00000818,0.00001046,-0.00000228,-0.00000873,-0.00000511,0.0000
 0044,0.00000075,0.00000018,0.00000196,0.00000193,0.00000028,-0.0000022
 7,0.00000362,0.00000809,-0.00000533,0.00000613,-0.00003028,0.00001354,
 -0.00000135,-0.00003536,-0.00001007,-0.00001367,0.00000770,0.00000798,
 0.00000185,-0.00000303,0.00000080,-0.00001598,0.00000943,0.00000768,-0
 .00000087,-0.00000322,-0.00000051,-0.00028123,0.00028422,-0.00009771,-
 0.00000240,0.00000887,0.00000367,0.00068843,-0.00037717,0.00018700,0.0
 0003591,0.00000478,0.00002842,0.00015115,-0.00005937,0.00002454,-0.000
 56885,0.00004157,-0.00008692,-0.00003417,-0.00019946,0.00003879,0.0002
 0314,-0.00013860,0.00007989,-0.00189001,0.00195692,-0.00111887,0.00153
 326,0.00022822,0.00080207,0.00029557,-0.00008741,0.00004508,-0.0000788
 2,0.00054683,-0.00011153,-0.00256478,-0.00836521,0.00058910,0.00324502
 ,-0.32899632,0.06682270,0.00006860,0.00003329,-0.00015937,0.00100140,-
 0.00113387,-0.00088312,-0.00286671,0.34658709,0.00000071,-0.00000121,-
 0.00000483,-0.00000163,-0.00000050,-0.00000058,-0.00000145,-0.00000115
 ,-0.00000079,-0.00000067,0.00000119,0.00000118,0.00000081,-0.00000101,
 -0.00000248,-0.00000168,0.00001127,0.00001272,0.00000051,-0.00000132,-
 0.00000022,0.00000022,-0.00000051,0.00000055,0.00000022,-0.00000029,0.
 00000032,-0.00000068,-0.00000046,0.00000063,-0.00000631,0.00000357,-0.
 00000520,0.00000429,0.00000285,0.00000436,0.00002749,0.00000546,-0.000
 02775,-0.00000146,0.00000046,0.00000035,0.00000673,-0.00000165,0.00000
 669,-0.00003830,0.00000659,0.00003932,0.00000106,0.00000158,0.00000019
 ,0.00000454,-0.00001848,-0.00000617,-0.00000605,0.00000630,0.00000007,
 -0.00000036,-0.00000087,-0.00000193,0.00000145,-0.00000037,0.00000054,
 0.00000525,-0.00000232,0.00001118,-0.00001484,0.00002689,-0.00001126,0
 .00000549,0.00002901,-0.00001471,-0.00000426,0.00001041,0.00001934,0.0
 0000164,0.00000125,-0.00000143,-0.00000532,0.00000050,0.00000041,-0.00
 000202,0.00000141,0.00000017,0.00026157,-0.00028009,0.00013553,0.00000
 067,-0.00002001,-0.00000735,-0.00065116,0.00030531,-0.00024971,-0.0000
 1754,-0.00000112,-0.00003007,-0.00009714,0.00001252,-0.00015300,0.0002
 5837,0.00021403,0.00048645,0.00003704,0.00003317,-0.00001800,0.0001038
 8,-0.00003132,-0.00003568,0.00149924,-0.00093129,0.00002601,-0.0023908
 6,0.00081256,0.00095072,-0.00018012,-0.00054354,-0.00042665,-0.0001212
 5,0.00009062,0.00024807,0.00176723,0.00931329,-0.00434970,-0.00089462,
 0.06510179,-0.06061814,-0.00011827,-0.00025183,0.00003903,-0.00250375,
 0.02071887,-0.00380654,0.00173292,-0.07133066,0.05971957,0.00000613,0.
 00000632,0.00000066,-0.00000329,-0.00000410,-0.00000196,-0.00000038,-0
 .00000078,0.00000297,-0.00000030,-0.00000106,0.00000036,-0.00000325,0.
 00000390,0.00000786,0.00000962,-0.00002817,-0.00003707,0.00000121,0.00
 000025,-0.00000202,-0.00000171,0.00000171,0.00000112,-0.00000186,0.000
 00054,0.00000080,0.00000130,-0.00000035,-0.00000085,0.00000341,-0.0000
 0042,-0.00001017,0.00000916,-0.00000268,0.00000180,0.00004322,-0.00000
 863,-0.00000630,-0.00000133,-0.00000089,0.00000084,0.00000432,-0.00000
 806,-0.00000448,-0.00003062,0.00000490,0.00001893,-0.00000390,-0.00000
 192,0.00000486,-0.00005136,0.00005085,0.00001540,0.00006746,-0.0000063
 4,0.00000897,-0.00000858,0.00000354,-0.00000223,-0.00000882,0.00000103
 ,0.00000244,-0.00006794,-0.00001797,0.00002180,0.00000318,-0.00005216,
 -0.00002812,0.00003547,-0.00008090,0.00002240,0.00004887,-0.00003781,-
 0.00008586,-0.00001188,0.00000484,0.00000400,-0.00011750,-0.00008201,0
 .00004521,-0.00000962,0.00000497,-0.00000772,-0.00048695,0.00076519,-0
 .00043426,-0.00000861,0.00002940,0.00001730,0.00133133,-0.00079731,0.0
 0106324,-0.00002113,0.00000141,-0.00002059,0.00007279,-0.00004727,-0.0
 0017889,-0.00076438,-0.00019656,0.00060171,0.00006309,-0.00002218,0.00
 001279,0.00026193,0.00005342,0.00008426,-0.00626108,0.00162258,0.00057
 394,0.00007661,-0.00042366,0.00210339,0.00048323,-0.00006966,-0.000722
 77,-0.00021886,0.00024692,0.00006611,-0.00539296,-0.01734935,-0.023978
 11,-0.06196670,-0.04191009,-0.06638153,-0.00004228,0.00039817,0.000279
 91,0.00614914,0.01153838,0.01622723,-0.00077548,0.00110971,0.00129299,
 0.06734416,0.00000128,0.,-0.00000207,-0.00000025,-0.00000042,-0.000000
 68,-0.00000093,-0.00000160,0.00000093,0.00000016,0.00000034,0.00000097
 ,-0.00000078,-0.00000050,0.00000084,0.00000165,-0.00000211,-0.00000283
 ,0.00000039,-0.00000016,-0.00000106,-0.00000047,0.00000080,0.00000020,
 -0.00000092,0.00000014,0.00000006,-0.00000019,-0.00000017,-0.00000037,
 -0.00000211,-0.00000130,0.00000106,0.00000399,0.00000112,0.00000064,-0
 .00000814,0.00000567,-0.00002064,-0.00000034,0.00000083,-0.00000043,-0
 .00000194,0.00000192,0.00000004,0.00002311,-0.00000049,0.00001056,0.00
 000370,0.00000089,0.00000142,-0.00000503,0.00000199,0.00000462,0.00000
 457,0.00000087,-0.00000085,0.00000058,0.00000018,0.00000001,-0.0000016
 5,0.00000009,0.00000098,0.00000520,-0.00000156,-0.00001107,0.00000294,
 -0.00000246,0.00001728,-0.00001580,0.00000504,0.00000699,-0.00001703,-
 0.00002153,-0.00003649,-0.00000508,0.00000029,-0.00000006,0.00001215,0
 .00001434,0.00001301,-0.00000070,-0.00000095,0.00000035,-0.00006125,-0
 .00002636,0.00001325,-0.00000863,0.00000925,0.00000935,0.00015808,0.00
 003849,-0.00013462,-0.00001134,-0.00000165,0.00000267,-0.00007739,0.00
 004591,0.00006453,0.00036213,0.00004480,-0.00029424,-0.00011782,0.0001
 2271,-0.00009144,-0.00033792,-0.00002931,-0.00014560,0.00070496,0.0007
 9045,-0.00064111,-0.00014533,-0.00242100,-0.00064904,0.00167151,0.0007
 7689,0.00220393,0.00049483,-0.00035121,0.00024938,-0.00145411,0.005169
 00,0.00882418,-0.03999928,-0.12921060,-0.12354378,-0.00028190,-0.00009
 029,-0.00012135,0.00166755,0.00222355,0.00551529,-0.00724574,-0.010468
 10,-0.02349863,0.04480875,0.13396851,0.00000124,0.00000299,-0.00000063
 ,-0.00000241,-0.00000221,-0.00000135,0.00000002,0.00000079,0.00000043,
 -0.00000002,-0.00000025,-0.00000102,-0.00000156,0.00000267,0.00000324,
 0.00000397,-0.00001378,-0.00001630,0.00000066,-0.00000035,0.00000011,-
 0.00000021,0.00000002,0.00000083,-0.00000016,-0.00000008,0.00000062,0.
 00000122,-0.00000034,-0.00000001,-0.00000277,-0.00000041,-0.00000386,0
 .00000083,-0.00000341,0.00000475,0.00000746,-0.00000328,-0.00000354,-0
 .00000033,-0.00000088,0.00000029,0.00000113,-0.00000519,0.00000059,-0.
 00001911,-0.00000647,0.00001000,-0.00000228,-0.00000445,-0.00000244,-0
 .00001913,0.00002593,0.00000678,0.00002451,-0.00000961,0.00000454,-0.0
 0000275,0.00000132,-0.00000081,-0.00000270,0.00000075,0.00000047,-0.00
 001553,-0.00000458,0.00000660,-0.00000500,-0.00001826,-0.00001583,0.00
 000458,-0.00002008,0.00001033,0.00002757,-0.00000247,-0.00000823,-0.00
 000124,-0.00000020,0.00000222,-0.00001166,-0.00000982,0.00000782,-0.00
 000121,-0.00000006,-0.00000224,-0.00016158,0.00025850,-0.00008725,0.00
 000448,0.00000585,0.00000018,0.00053231,-0.00026314,0.00013435,0.00000
 168,0.00000802,-0.00000884,-0.00001642,-0.00001678,-0.00003917,-0.0002
 7330,-0.00022236,0.00007391,0.00017985,-0.00012358,0.00010472,0.000790
 00,-0.00011769,0.00024422,-0.00039706,0.00095559,-0.00025662,-0.001009
 11,0.00045369,0.00115529,0.00029642,-0.00104527,0.00027846,-0.00047436
 ,0.00066152,-0.00016649,0.00052288,-0.00442100,-0.00553320,-0.06495267
 ,-0.12314158,-0.22293975,0.00011413,-0.00013368,-0.00066809,-0.0075708
 9,-0.01149325,-0.01576612,0.00322237,0.00502598,0.00786789,0.06941206,
 0.13298609,0.23551861,0.00000941,0.00000424,-0.00001525,-0.00001068,-0
 .00001207,-0.00000356,-0.00000107,-0.00000219,0.00000439,-0.00000201,0
 .00000017,0.00000212,-0.00000501,0.00000464,0.00000881,0.00001004,-0.0
 0003158,-0.00003837,0.00000211,0.00000013,-0.00000572,-0.00000420,0.00
 000204,0.00000334,-0.00000224,0.00000019,0.00000135,0.00000154,-0.0000
 0105,0.00000023,-0.00004427,-0.00003195,-0.00001946,0.00000477,0.00000
 202,0.00002887,0.00003589,0.00001785,-0.00015483,-0.00000242,0.0000058
 4,0.00000097,0.00000685,0.00000435,0.00000019,-0.00006738,0.00000390,0
 .00015445,0.00000319,-0.00002034,0.00000157,-0.00005529,0.00005486,0.0
 0002541,0.00006636,-0.00001708,0.00000935,-0.00000696,0.00000334,-0.00
 000333,-0.00000884,0.00000105,0.00000326,-0.00003211,-0.00002074,0.000
 00109,-0.00000203,-0.00000888,-0.00000418,-0.00000642,-0.00001234,0.00
 002617,-0.00001604,-0.00003859,-0.00007378,-0.00001557,0.00000037,0.00
 000322,-0.00000364,-0.00002790,0.00003663,-0.00000868,0.00000133,-0.00
 000539,-0.00016314,0.00028117,-0.00006551,0.00000028,-0.00000809,0.000
 00306,0.00088949,-0.00017176,0.00016514,-0.00003369,-0.00000545,-0.000
 07048,-0.00035966,0.00037708,0.00000643,0.00042799,-0.00169038,-0.0001
 1063,0.00025217,-0.00114882,0.00245188,-0.00089667,0.00181456,0.001218
 51,-0.00115993,-0.00126462,0.00098931,-0.01214042,-0.01106245,-0.01952
 438,-0.06509892,-0.01218309,-0.07680902,-0.00460420,-0.00071322,-0.014
 74337,-0.00106930,0.00425069,-0.00233223,0.00096211,0.00003340,0.00008
 732,0.00726344,0.00298015,0.02235252,0.00002706,-0.00035334,0.00041049
 ,-0.00006777,-0.00001371,0.00004669,0.00025703,-0.00012874,-0.00020612
 ,0.07565392,0.00000227,0.00000164,-0.00001137,-0.00000423,-0.00000455,
 -0.00000350,-0.00000188,-0.00000047,0.00000164,-0.00000005,0.00000047,
 -0.00000015,-0.00000281,0.00000259,0.00000483,0.00000732,-0.00001849,-
 0.00002173,0.00000147,-0.00000133,-0.00000032,-0.00000060,0.00000068,0
 .00000172,-0.00000114,0.00000002,0.00000126,0.00000124,-0.00000094,-0.
 00000010,-0.00002654,-0.00003270,-0.00001689,-0.00000728,-0.00000061,0
 .00002421,-0.00002254,0.00001291,-0.00006989,-0.00000063,0.00000418,0.
 00000019,0.00000163,0.00000921,0.00000481,-0.00004821,-0.00001337,0.00
 009786,0.00000317,-0.00001158,-0.00000797,-0.00003678,0.00003475,0.000
 01199,0.00004388,-0.00000840,0.00000582,-0.00000453,0.00000190,-0.0000
 0237,-0.00000554,0.00000100,0.00000229,-0.00002225,-0.00000972,-0.0000
 1354,0.00001377,-0.00002728,-0.00000427,-0.00001520,-0.00003363,0.0000
 2712,0.00000178,-0.00001902,-0.00000780,-0.00000553,-0.00000189,0.0000
 0343,0.00002571,0.00000828,0.00000913,-0.00000444,0.00000272,-0.000004
 54,-0.00018530,0.00045496,-0.00013856,-0.00000024,0.00001060,-0.000008
 18,0.00117316,-0.00037022,0.00031731,0.00000314,0.00000420,-0.00003830
 ,-0.00030468,0.00029787,0.00011339,0.00008795,-0.00220529,-0.00007076,
 0.00066881,-0.00056564,-0.00333127,0.00473812,-0.00315144,-0.00129400,
 -0.00228737,-0.00233464,0.00116826,-0.01287182,-0.01171718,-0.02051823
 ,-0.01169745,-0.04697614,-0.03163852,0.00438370,0.00666695,0.02638006,
 -0.00118028,0.00492776,-0.00291289,-0.00046795,0.00011283,-0.00096248,
 -0.00170376,-0.00033748,-0.00806739,0.00019171,0.00017895,0.00005992,0
 .00001162,0.00018858,0.00021537,0.00044338,-0.00058654,0.00068522,0.01
 911274,0.05549288,0.00000640,0.00000365,-0.00000552,-0.00000643,-0.000
 00604,-0.00000399,-0.00000265,-0.00000268,0.00000189,-0.00000056,0.000
 00106,0.00000141,-0.00000351,0.00000297,0.00000446,0.00000876,-0.00001
 672,-0.00002127,0.00000199,-0.00000172,-0.00000268,-0.00000161,0.00000
 115,0.00000228,-0.00000175,-0.00000011,0.00000131,0.00000102,-0.000001
 08,-0.00000006,-0.00000665,0.00000604,-0.00001704,0.00001064,-0.000001
 98,0.00001065,0.00001948,0.00001015,-0.00004308,-0.00000259,-0.0000003
 9,-0.00000008,0.00000275,-0.00000899,-0.00000320,0.00003323,-0.0000069
 1,0.00002649,0.00000634,0.00000036,0.00001201,-0.00003632,0.00003026,0
 .00001522,0.00004394,-0.00000993,0.00000533,-0.00000423,0.00000200,-0.
 00000349,-0.00000611,0.00000110,0.00000347,-0.00001583,-0.00001448,-0.
 00000377,-0.00000678,0.00000674,-0.00000362,-0.00001525,0.00000567,0.0
 0001224,-0.00001242,-0.00002141,-0.00003609,-0.00000986,0.00000173,0.0
 0000256,0.00000083,-0.00001609,0.00001976,-0.00000572,0.00000159,-0.00
 000371,-0.00003508,-0.00002985,0.00001513,0.00001212,-0.00000529,-0.00
 000214,0.00017788,0.00002090,0.00003949,-0.00004308,0.00000863,-0.0000
 0881,-0.00005248,-0.00003266,0.00005078,0.00076215,0.00007921,-0.00028
 087,0.00018523,0.00084874,0.00238773,-0.00047799,0.00102619,0.00029835
 ,0.00026609,-0.00068922,-0.00031412,-0.00262332,-0.00410434,0.00721843
 ,-0.07595273,-0.03570319,-0.28691110,-0.00166518,-0.00343442,-0.009047
 30,-0.00201221,0.00264179,0.00040208,0.00084867,0.00102059,0.00039038,
 -0.00569094,-0.00084108,-0.01533126,-0.00011997,-0.00017673,-0.0004971
 6,0.00026167,0.00014209,0.00020485,0.00001695,-0.00073611,0.00008364,0
 .08613409,0.04000177,0.30131609,-0.00003032,0.00001926,0.00002767,0.00
 001640,0.00001349,0.00000239,0.00001445,0.00002355,0.00000565,0.000004
 37,-0.00001568,-0.00002983,-0.00002559,0.00003059,0.00005376,0.0000469
 7,-0.00023033,-0.00025742,0.00000087,0.00000777,0.00001055,0.00000348,
 0.00000224,-0.00000081,-0.00000147,0.00000244,0.00000386,0.00002402,-0
 .00000071,-0.00000345,-0.00004078,0.00001600,-0.00005304,-0.00018464,0
 .00002239,0.00008730,0.00003911,-0.00001471,0.00003361,0.00000859,-0.0
 0000917,0.00001413,0.00000179,-0.00000673,-0.00001552,-0.00004266,0.00
 007059,0.00017214,0.00007006,0.00005725,-0.00000140,-0.00018306,0.0005
 1845,0.00000930,-0.00012259,-0.00026329,0.00131695,0.00001949,0.000005
 96,-0.00003896,-0.00039341,-0.00001028,-0.00002286,-0.00464458,-0.0016
 3873,-0.00200185,-0.00014119,-0.00010303,-0.00096718,-0.01218485,0.000
 09505,0.02525111,0.00024239,-0.00150670,-0.00232524,-0.00001214,0.0001
 9497,0.00006909,-0.16200848,0.00189207,0.13924658,0.00105712,0.0007254
 5,-0.00025640,0.01011119,-0.00006425,-0.01153750,0.00030526,-0.0000354
 4,-0.00050001,0.00125815,0.00005917,0.00048547,0.00006023,-0.00015270,
 -0.00010156,0.00008138,-0.00003785,-0.00002846,0.00001184,-0.00040616,
 0.00016555,0.00011803,0.00006686,0.00000545,0.00021956,0.00026954,0.00
 003492,-0.00037712,0.00008837,0.00026309,-0.00007924,0.00001819,0.0000
 4755,-0.00002444,-0.00002177,0.00000675,-0.00024441,0.00000456,-0.0000
 6441,-0.00009202,0.00007979,-0.00010619,0.00001987,-0.00002249,-0.0000
 5137,0.00000289,-0.00000020,0.00000010,-0.00000106,-0.00000376,0.00000
 093,-0.00000096,-0.00000270,-0.00000129,-0.00001185,0.00000328,0.00000
 024,0.00001489,-0.00000751,0.00001100,0.16709447,0.00009140,0.00002427
 ,-0.00003694,-0.00001526,-0.00000746,0.00002408,0.00000616,-0.00000118
 ,-0.00000169,-0.00000853,-0.00000390,-0.00000221,-0.00000231,-0.000010
 39,0.00002301,0.00003849,-0.00007709,-0.00006528,-0.00000086,-0.000002
 09,-0.00000646,-0.00000282,0.00000208,0.00000232,-0.00000332,0.0000008
 0,-0.00000076,0.00000204,-0.00000080,-0.00000319,-0.00009849,-0.000077
 01,-0.00005014,0.00011164,-0.00004617,-0.00001569,0.00021048,-0.000067
 98,-0.00011029,-0.00001510,0.00000568,0.00000751,-0.00001494,0.0000236
 3,0.00001002,0.00035081,-0.00012691,-0.00032150,-0.00018273,-0.0000672
 0,0.00010409,0.00006336,-0.00003282,-0.00001043,-0.00002582,-0.0001167
 8,0.00037880,-0.00001631,-0.00002478,-0.00004642,-0.00004988,-0.000066
 05,0.00002129,-0.00201937,0.00724855,-0.00010626,-0.00103106,-0.001029
 08,-0.00032634,-0.00254380,0.00629736,0.00358126,-0.00117308,0.0068867
 8,-0.00240768,0.00012950,-0.00112807,0.00010043,0.00161503,-0.04156385
 ,-0.00789515,0.00074863,-0.00424341,0.00053517,0.00513809,-0.00010294,
 -0.00176421,0.00014490,0.00017559,-0.00025669,-0.00436259,-0.00042751,
 -0.00080595,-0.00012343,0.00023829,0.00007881,-0.00022954,0.00055663,0
 .00024194,0.00121694,-0.00002594,-0.00140250,-0.00013879,-0.00001759,-
 0.00006921,-0.00031855,0.00007876,0.00023999,0.00241365,-0.00022617,0.
 00037284,-0.00007525,0.00072335,-0.00016224,-0.00004043,-0.00000182,-0
 .00002111,0.00027571,-0.00012576,0.00019945,-0.00050318,-0.00112133,0.
 00001769,0.00012474,0.00017916,0.00005479,0.00000187,0.00001999,-0.000
 00236,0.00002810,0.00000869,0.00000550,-0.00004551,0.00001194,-0.00000
 763,0.00005017,-0.00000574,0.00000961,0.00001229,0.00001262,-0.0000029
 6,0.00026694,0.02825363,-0.00001393,-0.00002815,-0.00000053,-0.0000074
 5,-0.00000422,-0.00001341,-0.00001167,-0.00001039,0.00000694,-0.000001
 18,0.00001076,0.00001460,0.00000177,-0.00001874,-0.00002884,-0.0000151
 4,0.00009912,0.00011632,0.00000112,-0.00000106,-0.00000528,-0.00000170
 ,-0.00000028,0.00000129,-0.00000040,-0.00000041,-0.00000091,-0.0000077
 1,0.00000050,0.00000356,-0.00000994,0.00002194,-0.00000459,0.00003213,
 -0.00001557,0.00002326,0.00002372,0.00008181,-0.00015169,-0.00000869,0
 .00000198,0.00000073,0.00000227,0.00003135,0.00002061,0.00012283,-0.00
 008939,0.00003752,0.00004003,-0.00004718,0.00004246,0.00008711,-0.0001
 3189,-0.00003944,-0.00032725,0.00010390,0.00011227,0.00002371,-0.00002
 578,0.00000426,-0.00003351,-0.00000961,-0.00000104,-0.00112084,-0.0010
 4144,0.00121177,-0.00067702,0.00004145,0.00012985,-0.00543180,-0.00072
 627,0.00612587,-0.00274715,-0.00244356,-0.00358895,0.00006406,0.000204
 42,-0.00002346,0.14157193,-0.00726210,-0.23603504,0.00020037,0.0007231
 2,0.00047765,0.01571663,0.00036732,-0.01694279,0.00082388,0.00007857,-
 0.00078821,0.00193847,-0.00059728,0.00094919,-0.00005517,0.00000185,-0
 .00000037,-0.00011635,-0.00006382,0.00001716,0.00005455,0.00045217,-0.
 00005029,-0.00000059,0.00005559,-0.00000772,0.00001786,-0.00014528,-0.
 00008573,-0.00128371,0.00041814,-0.00023584,0.00010655,-0.00015242,0.0
 0018575,-0.00004201,-0.00003428,0.00000994,-0.00003527,-0.00010882,0.0
 0001587,0.00013239,0.00043727,-0.00015641,-0.00004918,-0.00005692,-0.0
 0001174,0.00000207,0.00000306,-0.00000251,-0.00002020,-0.00001200,-0.0
 0000369,0.00001537,-0.00001137,-0.00000390,-0.00000934,0.00000385,0.00
 000090,0.00000877,0.00000739,0.00001434,-0.14896039,0.00989266,0.24866
 025\\0.00000002,0.00000013,-0.00000044,0.00000017,0.00000006,-0.000000
 14,-0.00000020,0.00000013,-0.00000048,-0.00000029,0.00000011,-0.000000
 73,-0.00000016,0.00000025,-0.00000082,0.00000016,0.00000017,-0.0000006
 9,-0.00000004,0.00000005,-0.00000012,-0.00000028,0.00000004,-0.0000004
 2,-0.00000035,0.00000016,-0.00000089,-0.00000013,0.00000038,-0.0000009
 8,0.00000045,0.00000032,-0.00000017,0.00000006,0.00000033,-0.00000010,
 0.00000002,-0.00000004,-0.00000007,0.00000077,0.00000055,-0.00000030,-
 0.00000005,-0.00000006,0.00000002,0.00000054,0.00000042,0.00000028,0.0
 0000062,0.00000019,0.00000022,-0.00000031,0.00000035,-0.00000037,0.000
 00004,0.00000025,-0.00000078,0.00000013,0.00000053,-0.00000085,-0.0000
 0016,0.00000015,-0.00000090,-0.00000008,-0.00000006,-0.00000049,-0.000
 00029,-0.00000002,-0.00000028,0.00000005,0.00000009,-0.00000030,-0.000
 00010,-0.00000013,-0.00000003,-0.00000035,-0.00000004,-0.00000048,0.00
 000018,0.00000004,-0.00000005,0.00000027,0.00000037,-0.00000040,0.0000
 0002,0.00000032,-0.00000009,-0.00000039,-0.00000018,-0.00000003,-0.000
 00026,-0.00000034,0.00000044,0.00000075,0.00000054,-0.00000025,0.00000
 044,-0.00000026,0.00000034,0.00000106,0.00000307,-0.00000005,0.0000000
 3,-0.00000054,0.00000122,-0.00000123,-0.00000291,0.00000125,-0.0000000
 5,-0.00000010,0.00000043,0.00000005,-0.00000071,0.00000048,0.00000008,
 -0.00000045,0.00000087,0.00000015,0.00000005,0.00000066,-0.00000040,-0
 .00000048,0.00000052,-0.00000023,-0.00000052,0.00000072,0.00000009,-0.
 00000050,0.00000098,-0.00000016,-0.00000047,0.00000084,-0.00000042,-0.
 00000047,0.00000064,-0.00000035,-0.00000052,0.00000083,-0.00000011,-0.
 00000045,0.00000100,0.00000027,0.00000020,-0.00000004\\\@


 THE FIRST AND LAST THING REQUIRED OF GENIUS IS THE LOVE OF TRUTH.

                          -- GOETHE
 Job cpu time:       0 days 17 hours 12 minutes 55.5 seconds.
 Elapsed time:       0 days  0 hours 16 minutes 23.3 seconds.
 File lengths (MBytes):  RWF=   1476 Int=      0 D2E=      0 Chk=     26 Scr=      1
 Normal termination of Gaussian 16 at Wed Nov  8 22:29:06 2023.
