 Entering Gaussian System, Link 0=/jet/home/xzhangj/programs/g16/g16
 Input=/jet/home/xzhangj/scratch/ch_1c_para_c3/ch_1c_para_c3.com
 Output=/jet/home/xzhangj/scratch/ch_1c_para_c3/ch_1c_para_c3.log
 Initial command:
 /jet/home/xzhangj/programs/g16/l1.exe "/ocean/projects/che220035p/xzhangj/scratch/ch_1c_para_c3/Gau-85592.inp" -scrdir="/ocean/projects/che220035p/xzhangj/scratch/ch_1c_para_c3/"
 Entering Link 1 = /jet/home/xzhangj/programs/g16/l1.exe PID=     85594.
  
 Copyright (c) 1988-2017, Gaussian, Inc.  All Rights Reserved.
  
 This is part of the Gaussian(R) 16 program.  It is based on
 the Gaussian(R) 09 system (copyright 2009, Gaussian, Inc.),
 the Gaussian(R) 03 system (copyright 2003, Gaussian, Inc.),
 the Gaussian(R) 98 system (copyright 1998, Gaussian, Inc.),
 the Gaussian(R) 94 system (copyright 1995, Gaussian, Inc.),
 the Gaussian 92(TM) system (copyright 1992, Gaussian, Inc.),
 the Gaussian 90(TM) system (copyright 1990, Gaussian, Inc.),
 the Gaussian 88(TM) system (copyright 1988, Gaussian, Inc.),
 the Gaussian 86(TM) system (copyright 1986, Carnegie Mellon
 University), and the Gaussian 82(TM) system (copyright 1983,
 Carnegie Mellon University). Gaussian is a federally registered
 trademark of Gaussian, Inc.
  
 This software contains proprietary and confidential information,
 including trade secrets, belonging to Gaussian, Inc.
  
 This software is provided under written license and may be
 used, copied, transmitted, or stored only in accord with that
 written license.
  
 The following legend is applicable only to US Government
 contracts under FAR:
  
                    RESTRICTED RIGHTS LEGEND
  
 Use, reproduction and disclosure by the US Government is
 subject to restrictions as set forth in subparagraphs (a)
 and (c) of the Commercial Computer Software - Restricted
 Rights clause in FAR 52.227-19.
  
 Gaussian, Inc.
 340 Quinnipiac St., Bldg. 40, Wallingford CT 06492
  
  
 ---------------------------------------------------------------
 Warning -- This program may not be used in any manner that
 competes with the business of Gaussian, Inc. or will provide
 assistance to any competitor of Gaussian, Inc.  The licensee
 of this program is prohibited from giving any competitor of
 Gaussian, Inc. access to this program.  By using this program,
 the user acknowledges that Gaussian, Inc. is engaged in the
 business of creating and licensing software in the field of
 computational chemistry and represents and warrants to the
 licensee that it is not a competitor of Gaussian, Inc. and that
 it will not use this program in any manner prohibited above.
 ---------------------------------------------------------------
  

 Cite this work as:
 Gaussian 16, Revision B.01,
 M. J. Frisch, G. W. Trucks, H. B. Schlegel, G. E. Scuseria, 
 M. A. Robb, J. R. Cheeseman, G. Scalmani, V. Barone, 
 G. A. Petersson, H. Nakatsuji, X. Li, M. Caricato, A. V. Marenich, 
 J. Bloino, B. G. Janesko, R. Gomperts, B. Mennucci, H. P. Hratchian, 
 J. V. Ortiz, A. F. Izmaylov, J. L. Sonnenberg, D. Williams-Young, 
 F. Ding, F. Lipparini, F. Egidi, J. Goings, B. Peng, A. Petrone, 
 T. Henderson, D. Ranasinghe, V. G. Zakrzewski, J. Gao, N. Rega, 
 G. Zheng, W. Liang, M. Hada, M. Ehara, K. Toyota, R. Fukuda, 
 J. Hasegawa, M. Ishida, T. Nakajima, Y. Honda, O. Kitao, H. Nakai, 
 T. Vreven, K. Throssell, J. A. Montgomery, Jr., J. E. Peralta, 
 F. Ogliaro, M. J. Bearpark, J. J. Heyd, E. N. Brothers, K. N. Kudin, 
 V. N. Staroverov, T. A. Keith, R. Kobayashi, J. Normand, 
 K. Raghavachari, A. P. Rendell, J. C. Burant, S. S. Iyengar, 
 J. Tomasi, M. Cossi, J. M. Millam, M. Klene, C. Adamo, R. Cammi, 
 J. W. Ochterski, R. L. Martin, K. Morokuma, O. Farkas, 
 J. B. Foresman, and D. J. Fox, Gaussian, Inc., Wallingford CT, 2016.
 
 ******************************************
 Gaussian 16:  ES64L-G16RevB.01 20-Dec-2017
                 8-Nov-2023 
 ******************************************
 %chk=ch_1c_para_c3.chk
 %nprocshared=64
 Will use up to   64 processors via shared memory.
 %mem=32GB
 ---------------------------------------------------------
 # opt=(ts,calcfc,noeigentest,maxstep=10) freq mn15 genecp
 ---------------------------------------------------------
 1/5=1,8=10,10=4,11=1,18=20,26=3,38=1/1,3;
 2/9=110,12=2,17=6,18=5,40=1/2;
 3/5=7,11=2,16=1,17=8,25=1,30=1,71=2,74=-73,140=1/1,2,3;
 4//1;
 5/5=2,38=5/2;
 8/6=4,10=90,11=11/1;
 11/6=1,8=1,9=11,15=111,16=1/1,2,10;
 10/6=1,13=1/2;
 6/7=2,8=2,9=2,10=2,28=1/1;
 7/10=1,18=20,25=1/1,2,3,16;
 1/5=1,8=10,10=4,11=1,18=20,26=3/3(2);
 2/9=110/2;
 99//99;
 2/9=110/2;
 3/5=7,6=1,11=2,16=1,17=8,25=1,30=1,71=1,74=-73,82=7/1,2,3;
 4/5=5,16=3,69=1/1;
 5/5=2,38=5/2;
 7//1,2,3,16;
 1/5=1,8=10,11=1,18=20,26=3/3(-5);
 2/9=110/2;
 6/7=2,8=2,9=2,10=2,19=2,28=1/1;
 99/9=1/99;
 ------------
 Gaussian job
 ------------
 Symbolic Z-matrix:
 Charge =  0 Multiplicity = 1
 C                     3.72149  -1.23883  -0.10104 
 C                     4.44938  -2.42313   0.0072 
 C                     5.56622  -2.6514   -0.77113 
 C                     5.97423  -1.68917  -1.68102 
 C                     5.28851  -0.49468  -1.77457 
 C                     4.16968  -0.24518  -0.98309 
 H                     4.10068  -3.18278   0.6913 
 H                     6.10805  -3.57937  -0.67707 
 H                     6.83662  -1.86244  -2.306 
 H                     5.60285   0.27603  -2.46081 
 C                     2.47992  -1.11297   0.67333 
 C                     2.41688  -1.34377   2.04833 
 C                     1.2672   -0.80051   0.05773 
 H                     3.3      -1.58997   2.62287 
 H                     1.20533  -0.66568  -1.01793 
 C                     0.19508  -0.937     2.06605 
 H                    -0.73455  -0.86686   2.63101 
 O                     3.57556   0.97737  -1.14971 
 C                     3.26668   1.75831  -0.00247 
 H                     3.71151   1.31843   0.89772 
 H                     3.73906   2.73706  -0.16908 
 C                     1.78283   1.95094   0.18749 
 C                     0.94063   1.98136  -0.91509 
 C                     1.24558   2.09313   1.46683 
 C                    -0.44234   2.05643  -0.74305 
 H                     1.37515   1.9235   -1.90376 
 C                    -0.12458   2.15053   1.64389 
 H                     1.90948   2.12456   2.32046 
 C                    -1.01088   2.11608   0.55152 
 H                    -1.0747    2.19808  -1.62282 
 H                    -2.29491   2.35769   0.6957 
 N                     1.28011  -1.27412   2.72223 
 N                     0.14249  -0.67629   0.75701 
 Pd                   -1.57749   0.07095   0.04866 
 O                    -4.01542  -2.86875  -1.12761 
 O                    -2.30298  -1.80407  -0.22242 
 O                    -3.62336   2.4298    0.65894 
 N                    -3.38793   0.58521  -0.60143 
 C                    -3.89924  -0.48197  -1.43972 
 C                    -3.3983   -1.85366  -0.89296 
 C                    -4.12131   1.53612  -0.0859 
 C                    -5.60087   1.64208  -0.39496 
 H                    -4.98985  -0.49814  -1.50645 
 H                    -6.13013   0.76833  -0.02062 
 H                    -5.98573   2.53062   0.09718 
 H                    -5.76071   1.72471  -1.46781 
 H                    -3.48845  -0.37665  -2.4563 
 H                    -0.52341   2.25123   2.64572 
 
 Add virtual bond connecting atoms H31        and C29        Dist= 2.48D+00.
 Add virtual bond connecting atoms H31        and O37        Dist= 2.52D+00.

 GradGradGradGradGradGradGradGradGradGradGradGradGradGradGradGradGradGrad
 Berny optimization.
 Initialization pass.
                           ----------------------------
                           !    Initial Parameters    !
                           ! (Angstroms and Degrees)  !
 --------------------------                            --------------------------
 ! Name  Definition              Value          Derivative Info.                !
 --------------------------------------------------------------------------------
 ! R1    R(1,2)                  1.3943         calculate D2E/DX2 analytically  !
 ! R2    R(1,6)                  1.4022         calculate D2E/DX2 analytically  !
 ! R3    R(1,11)                 1.4687         calculate D2E/DX2 analytically  !
 ! R4    R(2,3)                  1.3803         calculate D2E/DX2 analytically  !
 ! R5    R(2,7)                  1.0801         calculate D2E/DX2 analytically  !
 ! R6    R(3,4)                  1.3857         calculate D2E/DX2 analytically  !
 ! R7    R(3,8)                  1.0787         calculate D2E/DX2 analytically  !
 ! R8    R(4,5)                  1.3805         calculate D2E/DX2 analytically  !
 ! R9    R(4,9)                  1.079          calculate D2E/DX2 analytically  !
 ! R10   R(5,6)                  1.393          calculate D2E/DX2 analytically  !
 ! R11   R(5,10)                 1.0788         calculate D2E/DX2 analytically  !
 ! R12   R(6,18)                 1.3694         calculate D2E/DX2 analytically  !
 ! R13   R(11,12)                1.3957         calculate D2E/DX2 analytically  !
 ! R14   R(11,13)                1.3954         calculate D2E/DX2 analytically  !
 ! R15   R(12,14)                1.0819         calculate D2E/DX2 analytically  !
 ! R16   R(12,32)                1.3233         calculate D2E/DX2 analytically  !
 ! R17   R(13,15)                1.0858         calculate D2E/DX2 analytically  !
 ! R18   R(13,33)                1.3302         calculate D2E/DX2 analytically  !
 ! R19   R(16,17)                1.0901         calculate D2E/DX2 analytically  !
 ! R20   R(16,32)                1.3121         calculate D2E/DX2 analytically  !
 ! R21   R(16,33)                1.3358         calculate D2E/DX2 analytically  !
 ! R22   R(18,19)                1.4218         calculate D2E/DX2 analytically  !
 ! R23   R(19,20)                1.0962         calculate D2E/DX2 analytically  !
 ! R24   R(19,21)                1.0995         calculate D2E/DX2 analytically  !
 ! R25   R(19,22)                1.5083         calculate D2E/DX2 analytically  !
 ! R26   R(22,23)                1.3878         calculate D2E/DX2 analytically  !
 ! R27   R(22,24)                1.3948         calculate D2E/DX2 analytically  !
 ! R28   R(23,25)                1.3957         calculate D2E/DX2 analytically  !
 ! R29   R(23,26)                1.0815         calculate D2E/DX2 analytically  !
 ! R30   R(24,27)                1.3827         calculate D2E/DX2 analytically  !
 ! R31   R(24,28)                1.0819         calculate D2E/DX2 analytically  !
 ! R32   R(25,29)                1.4152         calculate D2E/DX2 analytically  !
 ! R33   R(25,30)                1.0927         calculate D2E/DX2 analytically  !
 ! R34   R(25,34)                2.4202         calculate D2E/DX2 analytically  !
 ! R35   R(27,29)                1.4071         calculate D2E/DX2 analytically  !
 ! R36   R(27,48)                1.083          calculate D2E/DX2 analytically  !
 ! R37   R(29,31)                1.3145         calculate D2E/DX2 analytically  !
 ! R38   R(29,34)                2.1809         calculate D2E/DX2 analytically  !
 ! R39   R(31,37)                1.3309         calculate D2E/DX2 analytically  !
 ! R40   R(33,34)                2.0046         calculate D2E/DX2 analytically  !
 ! R41   R(34,36)                2.0287         calculate D2E/DX2 analytically  !
 ! R42   R(34,38)                1.9912         calculate D2E/DX2 analytically  !
 ! R43   R(35,40)                1.2109         calculate D2E/DX2 analytically  !
 ! R44   R(36,40)                1.2852         calculate D2E/DX2 analytically  !
 ! R45   R(37,41)                1.2655         calculate D2E/DX2 analytically  !
 ! R46   R(38,39)                1.4502         calculate D2E/DX2 analytically  !
 ! R47   R(38,41)                1.3068         calculate D2E/DX2 analytically  !
 ! R48   R(39,40)                1.5593         calculate D2E/DX2 analytically  !
 ! R49   R(39,43)                1.0928         calculate D2E/DX2 analytically  !
 ! R50   R(39,47)                1.1015         calculate D2E/DX2 analytically  !
 ! R51   R(41,42)                1.5152         calculate D2E/DX2 analytically  !
 ! R52   R(42,44)                1.088          calculate D2E/DX2 analytically  !
 ! R53   R(42,45)                1.0862         calculate D2E/DX2 analytically  !
 ! R54   R(42,46)                1.0878         calculate D2E/DX2 analytically  !
 ! A1    A(2,1,6)              118.9384         calculate D2E/DX2 analytically  !
 ! A2    A(2,1,11)             118.2407         calculate D2E/DX2 analytically  !
 ! A3    A(6,1,11)             122.7613         calculate D2E/DX2 analytically  !
 ! A4    A(1,2,3)              121.2715         calculate D2E/DX2 analytically  !
 ! A5    A(1,2,7)              118.5551         calculate D2E/DX2 analytically  !
 ! A6    A(3,2,7)              120.1353         calculate D2E/DX2 analytically  !
 ! A7    A(2,3,4)              119.5808         calculate D2E/DX2 analytically  !
 ! A8    A(2,3,8)              119.9695         calculate D2E/DX2 analytically  !
 ! A9    A(4,3,8)              120.4454         calculate D2E/DX2 analytically  !
 ! A10   A(3,4,5)              119.9385         calculate D2E/DX2 analytically  !
 ! A11   A(3,4,9)              120.2733         calculate D2E/DX2 analytically  !
 ! A12   A(5,4,9)              119.7802         calculate D2E/DX2 analytically  !
 ! A13   A(4,5,6)              121.0259         calculate D2E/DX2 analytically  !
 ! A14   A(4,5,10)             121.1014         calculate D2E/DX2 analytically  !
 ! A15   A(6,5,10)             117.8726         calculate D2E/DX2 analytically  !
 ! A16   A(1,6,5)              119.1565         calculate D2E/DX2 analytically  !
 ! A17   A(1,6,18)             124.784          calculate D2E/DX2 analytically  !
 ! A18   A(5,6,18)             116.0543         calculate D2E/DX2 analytically  !
 ! A19   A(1,11,12)            122.92           calculate D2E/DX2 analytically  !
 ! A20   A(1,11,13)            121.4168         calculate D2E/DX2 analytically  !
 ! A21   A(12,11,13)           115.6196         calculate D2E/DX2 analytically  !
 ! A22   A(11,12,14)           121.5958         calculate D2E/DX2 analytically  !
 ! A23   A(11,12,32)           122.1267         calculate D2E/DX2 analytically  !
 ! A24   A(14,12,32)           116.2775         calculate D2E/DX2 analytically  !
 ! A25   A(11,13,15)           120.9532         calculate D2E/DX2 analytically  !
 ! A26   A(11,13,33)           121.5881         calculate D2E/DX2 analytically  !
 ! A27   A(15,13,33)           117.451          calculate D2E/DX2 analytically  !
 ! A28   A(17,16,32)           117.5535         calculate D2E/DX2 analytically  !
 ! A29   A(17,16,33)           117.5005         calculate D2E/DX2 analytically  !
 ! A30   A(32,16,33)           124.9458         calculate D2E/DX2 analytically  !
 ! A31   A(6,18,19)            119.1065         calculate D2E/DX2 analytically  !
 ! A32   A(18,19,20)           110.7351         calculate D2E/DX2 analytically  !
 ! A33   A(18,19,21)           105.8632         calculate D2E/DX2 analytically  !
 ! A34   A(18,19,22)           112.6749         calculate D2E/DX2 analytically  !
 ! A35   A(20,19,21)           107.897          calculate D2E/DX2 analytically  !
 ! A36   A(20,19,22)           110.3058         calculate D2E/DX2 analytically  !
 ! A37   A(21,19,22)           109.1515         calculate D2E/DX2 analytically  !
 ! A38   A(19,22,23)           119.9845         calculate D2E/DX2 analytically  !
 ! A39   A(19,22,24)           120.495          calculate D2E/DX2 analytically  !
 ! A40   A(23,22,24)           119.5198         calculate D2E/DX2 analytically  !
 ! A41   A(22,23,25)           120.3046         calculate D2E/DX2 analytically  !
 ! A42   A(22,23,26)           118.7711         calculate D2E/DX2 analytically  !
 ! A43   A(25,23,26)           120.9102         calculate D2E/DX2 analytically  !
 ! A44   A(22,24,27)           120.2218         calculate D2E/DX2 analytically  !
 ! A45   A(22,24,28)           119.3596         calculate D2E/DX2 analytically  !
 ! A46   A(27,24,28)           120.3871         calculate D2E/DX2 analytically  !
 ! A47   A(23,25,29)           120.8724         calculate D2E/DX2 analytically  !
 ! A48   A(23,25,30)           118.7631         calculate D2E/DX2 analytically  !
 ! A49   A(23,25,34)           117.4493         calculate D2E/DX2 analytically  !
 ! A50   A(29,25,30)           119.9056         calculate D2E/DX2 analytically  !
 ! A51   A(30,25,34)            95.6411         calculate D2E/DX2 analytically  !
 ! A52   A(24,27,29)           121.5814         calculate D2E/DX2 analytically  !
 ! A53   A(24,27,48)           119.1585         calculate D2E/DX2 analytically  !
 ! A54   A(29,27,48)           119.2393         calculate D2E/DX2 analytically  !
 ! A55   A(25,29,27)           117.2676         calculate D2E/DX2 analytically  !
 ! A56   A(25,29,31)           120.0344         calculate D2E/DX2 analytically  !
 ! A57   A(27,29,31)           121.7099         calculate D2E/DX2 analytically  !
 ! A58   A(27,29,34)           111.4441         calculate D2E/DX2 analytically  !
 ! A59   A(31,29,34)            86.7824         calculate D2E/DX2 analytically  !
 ! A60   A(12,32,16)           117.9842         calculate D2E/DX2 analytically  !
 ! A61   A(13,33,16)           117.6233         calculate D2E/DX2 analytically  !
 ! A62   A(13,33,34)           125.0665         calculate D2E/DX2 analytically  !
 ! A63   A(16,33,34)           116.9247         calculate D2E/DX2 analytically  !
 ! A64   A(25,34,33)            91.0865         calculate D2E/DX2 analytically  !
 ! A65   A(25,34,36)           151.9155         calculate D2E/DX2 analytically  !
 ! A66   A(25,34,38)            96.187          calculate D2E/DX2 analytically  !
 ! A67   A(29,34,33)            92.5883         calculate D2E/DX2 analytically  !
 ! A68   A(29,34,38)            93.9742         calculate D2E/DX2 analytically  !
 ! A69   A(33,34,36)            90.5463         calculate D2E/DX2 analytically  !
 ! A70   A(36,34,38)            82.5261         calculate D2E/DX2 analytically  !
 ! A71   A(34,36,40)           114.2147         calculate D2E/DX2 analytically  !
 ! A72   A(31,37,41)           111.7625         calculate D2E/DX2 analytically  !
 ! A73   A(34,38,39)           108.6172         calculate D2E/DX2 analytically  !
 ! A74   A(34,38,41)           124.7073         calculate D2E/DX2 analytically  !
 ! A75   A(39,38,41)           124.446          calculate D2E/DX2 analytically  !
 ! A76   A(38,39,40)           109.3533         calculate D2E/DX2 analytically  !
 ! A77   A(38,39,43)           113.4578         calculate D2E/DX2 analytically  !
 ! A78   A(38,39,47)           109.3683         calculate D2E/DX2 analytically  !
 ! A79   A(40,39,43)           109.2091         calculate D2E/DX2 analytically  !
 ! A80   A(40,39,47)           106.7333         calculate D2E/DX2 analytically  !
 ! A81   A(43,39,47)           108.4976         calculate D2E/DX2 analytically  !
 ! A82   A(35,40,36)           124.5954         calculate D2E/DX2 analytically  !
 ! A83   A(35,40,39)           120.3815         calculate D2E/DX2 analytically  !
 ! A84   A(36,40,39)           115.0105         calculate D2E/DX2 analytically  !
 ! A85   A(37,41,38)           121.6834         calculate D2E/DX2 analytically  !
 ! A86   A(37,41,42)           117.0589         calculate D2E/DX2 analytically  !
 ! A87   A(38,41,42)           121.2254         calculate D2E/DX2 analytically  !
 ! A88   A(41,42,44)           110.4063         calculate D2E/DX2 analytically  !
 ! A89   A(41,42,45)           108.106          calculate D2E/DX2 analytically  !
 ! A90   A(41,42,46)           110.4845         calculate D2E/DX2 analytically  !
 ! A91   A(44,42,45)           109.1893         calculate D2E/DX2 analytically  !
 ! A92   A(44,42,46)           109.1997         calculate D2E/DX2 analytically  !
 ! A93   A(45,42,46)           109.4296         calculate D2E/DX2 analytically  !
 ! A94   L(29,31,37,35,-1)     170.3078         calculate D2E/DX2 analytically  !
 ! A95   L(29,34,36,38,-1)     176.5004         calculate D2E/DX2 analytically  !
 ! A96   L(33,34,38,25,-1)     187.2735         calculate D2E/DX2 analytically  !
 ! A97   L(29,31,37,35,-2)     185.08           calculate D2E/DX2 analytically  !
 ! A98   L(29,34,36,38,-2)     187.1581         calculate D2E/DX2 analytically  !
 ! A99   L(33,34,38,25,-2)     178.9111         calculate D2E/DX2 analytically  !
 ! D1    D(6,1,2,3)             -2.4747         calculate D2E/DX2 analytically  !
 ! D2    D(6,1,2,7)            179.7682         calculate D2E/DX2 analytically  !
 ! D3    D(11,1,2,3)           174.7962         calculate D2E/DX2 analytically  !
 ! D4    D(11,1,2,7)            -2.9609         calculate D2E/DX2 analytically  !
 ! D5    D(2,1,6,5)              3.2067         calculate D2E/DX2 analytically  !
 ! D6    D(2,1,6,18)          -177.6604         calculate D2E/DX2 analytically  !
 ! D7    D(11,1,6,5)          -173.9342         calculate D2E/DX2 analytically  !
 ! D8    D(11,1,6,18)            5.1988         calculate D2E/DX2 analytically  !
 ! D9    D(2,1,11,12)           52.4673         calculate D2E/DX2 analytically  !
 ! D10   D(2,1,11,13)         -125.0228         calculate D2E/DX2 analytically  !
 ! D11   D(6,1,11,12)         -130.373          calculate D2E/DX2 analytically  !
 ! D12   D(6,1,11,13)           52.137          calculate D2E/DX2 analytically  !
 ! D13   D(1,2,3,4)             -0.1348         calculate D2E/DX2 analytically  !
 ! D14   D(1,2,3,8)           -179.393          calculate D2E/DX2 analytically  !
 ! D15   D(7,2,3,4)            177.5872         calculate D2E/DX2 analytically  !
 ! D16   D(7,2,3,8)             -1.6709         calculate D2E/DX2 analytically  !
 ! D17   D(2,3,4,5)              1.9955         calculate D2E/DX2 analytically  !
 ! D18   D(2,3,4,9)           -179.0424         calculate D2E/DX2 analytically  !
 ! D19   D(8,3,4,5)           -178.7499         calculate D2E/DX2 analytically  !
 ! D20   D(8,3,4,9)              0.2122         calculate D2E/DX2 analytically  !
 ! D21   D(3,4,5,6)             -1.2204         calculate D2E/DX2 analytically  !
 ! D22   D(3,4,5,10)           178.6385         calculate D2E/DX2 analytically  !
 ! D23   D(9,4,5,6)            179.8123         calculate D2E/DX2 analytically  !
 ! D24   D(9,4,5,10)            -0.3288         calculate D2E/DX2 analytically  !
 ! D25   D(4,5,6,1)             -1.4073         calculate D2E/DX2 analytically  !
 ! D26   D(4,5,6,18)           179.3854         calculate D2E/DX2 analytically  !
 ! D27   D(10,5,6,1)           178.7294         calculate D2E/DX2 analytically  !
 ! D28   D(10,5,6,18)           -0.478          calculate D2E/DX2 analytically  !
 ! D29   D(1,6,18,19)           49.5787         calculate D2E/DX2 analytically  !
 ! D30   D(5,6,18,19)         -131.2641         calculate D2E/DX2 analytically  !
 ! D31   D(1,11,12,14)           2.5871         calculate D2E/DX2 analytically  !
 ! D32   D(1,11,12,32)        -177.4456         calculate D2E/DX2 analytically  !
 ! D33   D(13,11,12,14)       -179.7883         calculate D2E/DX2 analytically  !
 ! D34   D(13,11,12,32)          0.1789         calculate D2E/DX2 analytically  !
 ! D35   D(1,11,13,15)           1.5205         calculate D2E/DX2 analytically  !
 ! D36   D(1,11,13,33)        -179.5124         calculate D2E/DX2 analytically  !
 ! D37   D(12,11,13,15)       -176.143          calculate D2E/DX2 analytically  !
 ! D38   D(12,11,13,33)          2.8242         calculate D2E/DX2 analytically  !
 ! D39   D(11,12,32,16)         -2.0525         calculate D2E/DX2 analytically  !
 ! D40   D(14,12,32,16)        177.9164         calculate D2E/DX2 analytically  !
 ! D41   D(11,13,33,16)         -3.7764         calculate D2E/DX2 analytically  !
 ! D42   D(11,13,33,34)        168.8547         calculate D2E/DX2 analytically  !
 ! D43   D(15,13,33,16)        175.2255         calculate D2E/DX2 analytically  !
 ! D44   D(15,13,33,34)        -12.1434         calculate D2E/DX2 analytically  !
 ! D45   D(17,16,32,12)       -179.0823         calculate D2E/DX2 analytically  !
 ! D46   D(33,16,32,12)          1.0916         calculate D2E/DX2 analytically  !
 ! D47   D(17,16,33,13)       -178.0109         calculate D2E/DX2 analytically  !
 ! D48   D(17,16,33,34)          8.7507         calculate D2E/DX2 analytically  !
 ! D49   D(32,16,33,13)          1.8152         calculate D2E/DX2 analytically  !
 ! D50   D(32,16,33,34)       -171.4232         calculate D2E/DX2 analytically  !
 ! D51   D(6,18,19,20)           9.2914         calculate D2E/DX2 analytically  !
 ! D52   D(6,18,19,21)         125.9821         calculate D2E/DX2 analytically  !
 ! D53   D(6,18,19,22)        -114.786          calculate D2E/DX2 analytically  !
 ! D54   D(18,19,22,23)        -30.324          calculate D2E/DX2 analytically  !
 ! D55   D(18,19,22,24)        149.3694         calculate D2E/DX2 analytically  !
 ! D56   D(20,19,22,23)       -154.6378         calculate D2E/DX2 analytically  !
 ! D57   D(20,19,22,24)         25.0555         calculate D2E/DX2 analytically  !
 ! D58   D(21,19,22,23)         86.9786         calculate D2E/DX2 analytically  !
 ! D59   D(21,19,22,24)        -93.3281         calculate D2E/DX2 analytically  !
 ! D60   D(19,22,23,25)        175.0882         calculate D2E/DX2 analytically  !
 ! D61   D(19,22,23,26)         -3.5577         calculate D2E/DX2 analytically  !
 ! D62   D(24,22,23,25)         -4.6081         calculate D2E/DX2 analytically  !
 ! D63   D(24,22,23,26)        176.746          calculate D2E/DX2 analytically  !
 ! D64   D(19,22,24,27)       -174.261          calculate D2E/DX2 analytically  !
 ! D65   D(19,22,24,28)          3.7031         calculate D2E/DX2 analytically  !
 ! D66   D(23,22,24,27)          5.4337         calculate D2E/DX2 analytically  !
 ! D67   D(23,22,24,28)       -176.6022         calculate D2E/DX2 analytically  !
 ! D68   D(22,23,25,29)          0.6256         calculate D2E/DX2 analytically  !
 ! D69   D(22,23,25,30)        172.8454         calculate D2E/DX2 analytically  !
 ! D70   D(22,23,25,34)        -72.8563         calculate D2E/DX2 analytically  !
 ! D71   D(26,23,25,29)        179.2422         calculate D2E/DX2 analytically  !
 ! D72   D(26,23,25,30)         -8.5381         calculate D2E/DX2 analytically  !
 ! D73   D(26,23,25,34)        105.7603         calculate D2E/DX2 analytically  !
 ! D74   D(22,24,27,29)         -2.2735         calculate D2E/DX2 analytically  !
 ! D75   D(22,24,27,48)        179.3974         calculate D2E/DX2 analytically  !
 ! D76   D(28,24,27,29)        179.7836         calculate D2E/DX2 analytically  !
 ! D77   D(28,24,27,48)          1.4545         calculate D2E/DX2 analytically  !
 ! D78   D(23,25,29,27)          2.4826         calculate D2E/DX2 analytically  !
 ! D79   D(23,25,29,31)        171.3063         calculate D2E/DX2 analytically  !
 ! D80   D(30,25,29,27)       -169.6489         calculate D2E/DX2 analytically  !
 ! D81   D(30,25,29,31)         -0.8252         calculate D2E/DX2 analytically  !
 ! D82   D(23,25,34,33)         19.6769         calculate D2E/DX2 analytically  !
 ! D83   D(23,25,34,36)        -73.5216         calculate D2E/DX2 analytically  !
 ! D84   D(23,25,34,38)       -159.2342         calculate D2E/DX2 analytically  !
 ! D85   D(30,25,34,33)        146.2738         calculate D2E/DX2 analytically  !
 ! D86   D(30,25,34,36)         53.0753         calculate D2E/DX2 analytically  !
 ! D87   D(30,25,34,38)        -32.6373         calculate D2E/DX2 analytically  !
 ! D88   D(24,27,29,25)         -1.6627         calculate D2E/DX2 analytically  !
 ! D89   D(24,27,29,31)       -170.2866         calculate D2E/DX2 analytically  !
 ! D90   D(24,27,29,34)         89.821          calculate D2E/DX2 analytically  !
 ! D91   D(48,27,29,25)        176.6651         calculate D2E/DX2 analytically  !
 ! D92   D(48,27,29,31)          8.0411         calculate D2E/DX2 analytically  !
 ! D93   D(48,27,29,34)        -91.8512         calculate D2E/DX2 analytically  !
 ! D94   D(27,29,36,40)        159.0781         calculate D2E/DX2 analytically  !
 ! D95   D(31,29,36,40)         37.4428         calculate D2E/DX2 analytically  !
 ! D96   D(25,29,37,41)         51.6271         calculate D2E/DX2 analytically  !
 ! D97   D(27,29,37,41)       -135.8329         calculate D2E/DX2 analytically  !
 ! D98   D(34,29,37,41)        -24.9566         calculate D2E/DX2 analytically  !
 ! D99   D(27,29,34,33)        -27.8485         calculate D2E/DX2 analytically  !
 ! D100  D(27,29,34,38)        148.83           calculate D2E/DX2 analytically  !
 ! D101  D(31,29,34,33)       -150.7722         calculate D2E/DX2 analytically  !
 ! D102  D(31,29,34,38)         25.9064         calculate D2E/DX2 analytically  !
 ! D103  D(13,33,34,25)        -52.0883         calculate D2E/DX2 analytically  !
 ! D104  D(13,33,34,29)        -87.418          calculate D2E/DX2 analytically  !
 ! D105  D(13,33,34,36)         99.8734         calculate D2E/DX2 analytically  !
 ! D106  D(16,33,34,25)        120.5893         calculate D2E/DX2 analytically  !
 ! D107  D(16,33,34,29)         85.2596         calculate D2E/DX2 analytically  !
 ! D108  D(16,33,34,36)        -87.449          calculate D2E/DX2 analytically  !
 ! D109  D(13,33,38,39)         71.8285         calculate D2E/DX2 analytically  !
 ! D110  D(13,33,38,41)       -127.7451         calculate D2E/DX2 analytically  !
 ! D111  D(16,33,38,39)       -111.4911         calculate D2E/DX2 analytically  !
 ! D112  D(16,33,38,41)         48.9353         calculate D2E/DX2 analytically  !
 ! D113  D(25,34,36,40)        -76.3734         calculate D2E/DX2 analytically  !
 ! D114  D(33,34,36,40)       -169.7068         calculate D2E/DX2 analytically  !
 ! D115  D(38,34,36,40)         12.7693         calculate D2E/DX2 analytically  !
 ! D116  D(25,34,38,39)        125.3853         calculate D2E/DX2 analytically  !
 ! D117  D(25,34,38,41)        -71.0031         calculate D2E/DX2 analytically  !
 ! D118  D(29,34,38,39)        160.8037         calculate D2E/DX2 analytically  !
 ! D119  D(29,34,38,41)        -35.5847         calculate D2E/DX2 analytically  !
 ! D120  D(36,34,38,39)        -26.3544         calculate D2E/DX2 analytically  !
 ! D121  D(36,34,38,41)        137.2572         calculate D2E/DX2 analytically  !
 ! D122  D(34,36,40,35)       -177.5405         calculate D2E/DX2 analytically  !
 ! D123  D(34,36,40,39)          3.7566         calculate D2E/DX2 analytically  !
 ! D124  D(31,37,41,38)          7.58           calculate D2E/DX2 analytically  !
 ! D125  D(31,37,41,42)       -170.3762         calculate D2E/DX2 analytically  !
 ! D126  D(34,38,39,40)         34.1933         calculate D2E/DX2 analytically  !
 ! D127  D(34,38,39,43)        156.3714         calculate D2E/DX2 analytically  !
 ! D128  D(34,38,39,47)        -82.3542         calculate D2E/DX2 analytically  !
 ! D129  D(41,38,39,40)       -129.4712         calculate D2E/DX2 analytically  !
 ! D130  D(41,38,39,43)         -7.2931         calculate D2E/DX2 analytically  !
 ! D131  D(41,38,39,47)        113.9813         calculate D2E/DX2 analytically  !
 ! D132  D(34,38,41,37)         17.6553         calculate D2E/DX2 analytically  !
 ! D133  D(34,38,41,42)       -164.4731         calculate D2E/DX2 analytically  !
 ! D134  D(39,38,41,37)        178.7361         calculate D2E/DX2 analytically  !
 ! D135  D(39,38,41,42)         -3.3923         calculate D2E/DX2 analytically  !
 ! D136  D(38,39,40,35)        155.5584         calculate D2E/DX2 analytically  !
 ! D137  D(38,39,40,36)        -25.6793         calculate D2E/DX2 analytically  !
 ! D138  D(43,39,40,35)         30.8663         calculate D2E/DX2 analytically  !
 ! D139  D(43,39,40,36)       -150.3714         calculate D2E/DX2 analytically  !
 ! D140  D(47,39,40,35)        -86.2356         calculate D2E/DX2 analytically  !
 ! D141  D(47,39,40,36)         92.5267         calculate D2E/DX2 analytically  !
 ! D142  D(37,41,42,44)       -118.4358         calculate D2E/DX2 analytically  !
 ! D143  D(37,41,42,45)          0.9448         calculate D2E/DX2 analytically  !
 ! D144  D(37,41,42,46)        120.6639         calculate D2E/DX2 analytically  !
 ! D145  D(38,41,42,44)         63.5981         calculate D2E/DX2 analytically  !
 ! D146  D(38,41,42,45)       -177.0214         calculate D2E/DX2 analytically  !
 ! D147  D(38,41,42,46)        -57.3023         calculate D2E/DX2 analytically  !
 --------------------------------------------------------------------------------
 Trust Radius=1.00D-01 FncErr=1.00D-07 GrdErr=1.00D-06 EigMax=2.50D+02 EigMin=1.00D-04
 Number of steps in this run=    288 maximum allowed number of steps=    288.
 Search for a saddle point of order  1.
 GradGradGradGradGradGradGradGradGradGradGradGradGradGradGradGradGradGrad

                          Input orientation:                          
 ---------------------------------------------------------------------
 Center     Atomic      Atomic             Coordinates (Angstroms)
 Number     Number       Type             X           Y           Z
 ---------------------------------------------------------------------
      1          6           0        3.721491   -1.238829   -0.101043
      2          6           0        4.449381   -2.423130    0.007199
      3          6           0        5.566216   -2.651404   -0.771128
      4          6           0        5.974226   -1.689175   -1.681020
      5          6           0        5.288514   -0.494683   -1.774570
      6          6           0        4.169675   -0.245178   -0.983092
      7          1           0        4.100678   -3.182778    0.691297
      8          1           0        6.108055   -3.579370   -0.677069
      9          1           0        6.836617   -1.862444   -2.306002
     10          1           0        5.602847    0.276026   -2.460808
     11          6           0        2.479918   -1.112969    0.673329
     12          6           0        2.416878   -1.343771    2.048335
     13          6           0        1.267203   -0.800507    0.057729
     14          1           0        3.300000   -1.589974    2.622871
     15          1           0        1.205327   -0.665680   -1.017933
     16          6           0        0.195076   -0.937000    2.066050
     17          1           0       -0.734549   -0.866863    2.631006
     18          8           0        3.575557    0.977371   -1.149706
     19          6           0        3.266678    1.758310   -0.002469
     20          1           0        3.711509    1.318427    0.897723
     21          1           0        3.739061    2.737063   -0.169085
     22          6           0        1.782832    1.950944    0.187491
     23          6           0        0.940634    1.981359   -0.915092
     24          6           0        1.245575    2.093128    1.466828
     25          6           0       -0.442341    2.056426   -0.743049
     26          1           0        1.375149    1.923496   -1.903759
     27          6           0       -0.124582    2.150525    1.643888
     28          1           0        1.909485    2.124564    2.320461
     29          6           0       -1.010877    2.116077    0.551517
     30          1           0       -1.074704    2.198080   -1.622822
     31          1           0       -2.294909    2.357691    0.695697
     32          7           0        1.280110   -1.274122    2.722225
     33          7           0        0.142486   -0.676285    0.757006
     34         46           0       -1.577489    0.070947    0.048659
     35          8           0       -4.015421   -2.868746   -1.127610
     36          8           0       -2.302979   -1.804068   -0.222422
     37          8           0       -3.623358    2.429801    0.658936
     38          7           0       -3.387927    0.585212   -0.601429
     39          6           0       -3.899239   -0.481973   -1.439719
     40          6           0       -3.398302   -1.853662   -0.892962
     41          6           0       -4.121311    1.536118   -0.085901
     42          6           0       -5.600867    1.642079   -0.394963
     43          1           0       -4.989851   -0.498144   -1.506446
     44          1           0       -6.130126    0.768334   -0.020617
     45          1           0       -5.985735    2.530624    0.097184
     46          1           0       -5.760707    1.724710   -1.467811
     47          1           0       -3.488450   -0.376652   -2.456299
     48          1           0       -0.523410    2.251232    2.645717
 ---------------------------------------------------------------------
                    Distance matrix (angstroms):
                    1          2          3          4          5
     1  C    0.000000
     2  C    1.394313   0.000000
     3  C    2.418138   1.380298   0.000000
     4  C    2.788181   2.390382   1.385735   0.000000
     5  C    2.410396   2.756402   2.394882   1.380494   0.000000
     6  C    1.402220   2.408814   2.790194   2.414256   1.393015
     7  H    2.133196   1.080116   2.137487   3.371783   3.836315
     8  H    3.391994   2.134552   1.078682   2.144450   3.375122
     9  H    3.867137   3.371077   2.142945   1.079047   2.133029
    10  H    3.376799   3.834968   3.380267   2.146626   1.078758
    11  C    1.468672   2.457445   3.738781   4.252665   3.776599
    12  C    2.516516   3.076088   4.424659   5.165473   4.856114
    13  C    2.498173   3.572355   4.753351   5.095983   4.429649
    14  H    2.778609   2.976066   4.216824   5.068018   4.948873
    15  H    2.738662   3.829284   4.798059   4.922359   4.156219
    16  C    4.150060   4.954449   6.311728   6.928555   6.394460
    17  H    5.240109   6.014937   7.379617   8.017320   7.471607
    18  O    2.456122   3.696674   4.156207   3.625793   2.343420
    19  C    3.033053   4.345494   5.032325   4.693985   3.507725
    20  H    2.745395   3.916215   4.688770   4.562397   3.593808
    21  H    3.976513   5.211834   5.721585   5.183964   3.927157
    22  C    3.743836   5.125964   6.034448   5.857438   4.703252
    23  C    4.331911   5.706264   6.548224   6.276664   5.076766
    24  C    4.437378   5.726384   6.796100   6.824580   5.792131
    25  C    5.348680   6.675196   7.633296   7.488768   6.357271
    26  H    4.330751   5.656484   6.306949   5.852564   4.602032
    27  C    5.415237   6.672197   7.827900   7.936861   6.927091
    28  H    4.523214   5.699454   6.763097   6.861383   5.920099
    29  C    5.837512   7.121454   8.230214   8.261708   7.204796
    30  H    6.093574   7.384312   8.267085   8.049940   6.911189
    31  H    7.054561   8.295525   9.436096   9.508128   8.470334
    32  N    3.732617   4.328495   5.698345   6.449462   6.074208
    33  N    3.723168   4.707762   5.971025   6.401492   5.737897
    34  Pd   5.460505   6.522676   7.688678   7.944697   7.126437
    35  O    7.973097   8.552148   9.590729  10.074259   9.623821
    36  O    6.052146   6.784566   7.933681   8.405524   7.858398
    37  O    8.245194   9.441653  10.597736  10.703036   9.689996
    38  N    7.356721   8.416885   9.522666   9.694754   8.821739
    39  C    7.774344   8.692590   9.733874   9.949918   9.193862
    40  C    7.190036   7.919641   9.000768   9.407039   8.836563
    41  C    8.319262   9.441455  10.576061  10.717593   9.773463
    42  C    9.761782  10.848739  11.969931  12.113379  11.182472
    43  H    8.855013   9.751707  10.798508  11.029960  10.281863
    44  H   10.054329  11.050438  12.209107  12.462408  11.621399
    45  H   10.415292  11.551598  12.690743  12.806614  11.822209
    46  H   10.028095  11.118728  12.162850  12.223285  11.274089
    47  H    7.633730   8.559559   9.486900   9.584675   8.804191
    48  H    6.143647   7.317109   8.531953   8.744525   7.801118
                    6          7          8          9         10
     6  C    0.000000
     7  H    3.381987   0.000000
     8  H    3.868824   2.461559   0.000000
     9  H    3.387952   4.267604   2.476299   0.000000
    10  H    2.123506   4.914835   4.277971   2.473703   0.000000
    11  C    2.520332   2.628935   4.590216   5.330943   4.637327
    12  C    3.669980   2.838781   5.103970   6.226023   5.753825
    13  C    3.133057   3.755690   5.629907   6.142744   5.128329
    14  H    3.945603   2.628515   4.767858   6.072536   5.884628
    15  H    2.994227   4.200037   5.713363   5.899389   4.723015
    16  C    5.057007   4.710328   7.033501   8.005083   7.155966
    17  H    6.123693   5.701347   8.069838   9.093282   8.209467
    18  O    1.369439   4.579507   5.234579   4.476168   2.514115
    19  C    2.406447   5.058777   6.084351   5.582167   3.701118
    20  H    2.488422   4.522711   5.675545   5.490728   3.992929
    21  H    3.121185   5.992958   6.765168   5.942788   3.844788
    22  C    3.448222   5.655204   7.073852   6.804423   4.940784
    23  C    3.922856   6.263759   7.594774   7.174404   5.199387
    24  C    4.474388   6.048822   7.772852   7.819242   6.141172
    25  C    5.160009   7.081358   8.641425   8.413299   6.531831
    26  H    3.655153   6.343253   7.361161   6.657534   4.571420
    27  C    5.575039   6.870544   8.778627   8.953426   7.291482
    28  H    4.651624   5.968533   7.690776   7.847103   6.318113
    29  C    5.896497   7.363790   9.199279   9.250795   7.496748
    30  H    5.820848   7.816224   9.266358   8.918721   6.999013
    31  H    7.168271   8.461699  10.379931  10.497833   8.756220
    32  N    4.810165   3.965254   6.338645   7.516912   6.924799
    33  N    4.408179   4.685521   6.787671   7.456566   6.409115
    34  Pd   5.847593   6.575811   8.539266   8.948721   7.608988
    35  O    8.596498   8.323346  10.158382  10.962115  10.206766
    36  O    6.701045   6.613814   8.608361   9.374269   8.475803
    37  O    8.401377   9.547923  11.515009  11.688683   9.974688
    38  N    7.612658   8.482223  10.369336  10.650723   9.186234
    39  C    8.085293   8.708286  10.503401  10.858856   9.586804
    40  C    7.737547   7.778890   9.664135  10.332005   9.381599
    41  C    8.527510   9.511736  11.452407  11.685686  10.088967
    42  C    9.968507  10.889406  12.823492  13.062341  11.474189
    43  H    9.177952   9.730110  11.547525  11.931720  10.663742
    44  H   10.394203  10.990334  13.004096  13.426853  11.994146
    45  H   10.583214  11.607396  13.571707  13.765429  12.079808
    46  H   10.135477  11.224620  13.024056  13.124892  11.498481
    47  H    7.799647   8.681968  10.272096  10.432505   9.114696
    48  H    6.436254   7.398000   9.434677   9.778131   8.216389
                   11         12         13         14         15
    11  C    0.000000
    12  C    1.395666   0.000000
    13  C    1.395447   2.362075   0.000000
    14  H    2.168129   1.081949   3.366820   0.000000
    15  H    2.164490   3.365956   1.085843   4.300864   0.000000
    16  C    2.681630   2.258801   2.280666   3.221332   3.256558
    17  H    3.771719   3.240130   3.260854   4.098847   4.137432
    18  O    2.982181   4.117973   3.153926   4.571601   2.887034
    19  C    3.052857   3.814559   3.247933   4.254942   3.340068
    20  H    2.734749   3.176047   3.342171   3.406505   3.726575
    21  H    4.137372   4.828905   4.321565   5.168272   4.326546
    22  C    3.179549   3.836652   2.802355   4.557519   2.938244
    23  C    3.803595   4.692300   2.965098   5.553216   2.662227
    24  C    3.525947   3.677279   3.218564   4.372910   3.713042
    25  C    4.537707   5.246741   3.424303   6.215365   3.193780
    26  H    4.133039   5.232521   3.358464   6.044824   2.741780
    27  C    4.286700   4.339667   3.627886   5.165027   4.096945
    28  H    3.676963   3.515800   3.753468   3.977785   4.407513
    29  C    4.756808   5.095146   3.733622   6.050536   3.887532
    30  H    5.373145   6.181686   4.159363   7.177276   3.710195
    31  H    5.902961   6.142588   4.803109   7.113443   4.932439
    32  N    2.379808   1.323338   2.706292   2.046849   3.790063
    33  N    2.379345   2.699245   1.330190   3.779706   2.068852
    34  Pd   4.272519   4.685627   2.975195   5.759785   3.069902
    35  O    6.965311   7.333937   5.795580   8.319660   5.667604
    36  O    4.914885   5.257876   3.719115   6.287679   3.773192
    37  O    7.057011   7.256358   5.891853   8.243089   5.975792
    38  N    6.240227   6.666183   4.901525   7.736661   4.778723
    39  C    6.749576   7.266537   5.388501   8.340345   5.125256
    40  C    6.128243   6.536630   4.876463   7.569536   4.756083
    41  C    7.153343   7.456316   5.875077   8.496220   5.838636
    42  C    8.604105   8.897710   7.303529   9.938758   7.213745
    43  H    7.805567   8.259006   6.456686   9.325502   6.216667
    44  H    8.840459   9.043939   7.562266  10.073575   7.540550
    45  H    9.234445   9.456312   7.981422  10.468204   7.948032
    46  H    8.974675   9.415506   7.622041  10.479371   7.378481
    47  H    6.779244   7.489990   5.395945   8.564647   4.917720
    48  H    4.922208   4.682543   4.383729   5.419764   4.991917
                   16         17         18         19         20
    16  C    0.000000
    17  H    1.090090   0.000000
    18  O    5.043169   6.022623   0.000000
    19  C    4.580197   5.462283   1.421768   0.000000
    20  H    4.337885   5.248542   2.080088   1.096229   0.000000
    21  H    5.572647   6.390773   2.021106   1.099484   1.775208
    22  C    3.793439   4.499779   2.439222   1.508307   2.150419
    23  C    4.237910   4.847000   2.829462   2.508607   3.376910
    24  C    3.262560   3.746699   3.676952   2.521070   2.646672
    25  C    4.154267   4.473840   4.180099   3.793962   4.526725
    26  H    5.033328   5.727217   2.511083   2.687018   3.697700
    27  C    3.132605   3.232815   4.782414   3.790114   3.995591
    28  H    3.518110   4.004496   4.016704   2.715165   2.433379
    29  C    3.615164   3.646719   5.022568   4.328091   4.801774
    30  H    5.004882   5.254011   4.831034   4.654732   5.480398
    31  H    4.351193   4.071596   6.306597   5.637193   6.099012
    32  N    1.312066   2.057433   5.032907   4.534982   3.995225
    33  N    1.335790   2.077832   4.260998   4.032943   4.091039
    34  Pd   2.868416   2.873769   5.367640   5.129888   5.500056
    35  O    5.626667   5.375764   8.509761   8.700835   9.018859
    36  O    3.497026   3.388270   6.569128   6.615134   6.868680
    37  O    5.281643   4.806482   7.563406   6.954204   7.422429
    38  N    4.719162   4.426914   6.996035   6.783707   7.292946
    39  C    5.409333   5.170513   7.621441   7.644273   8.162632
    40  C    4.744300   4.526334   7.530961   7.632907   7.988624
    41  C    5.420185   4.962465   7.790100   7.391800   7.897340
    42  C    6.804497   6.255583   9.231372   8.876987   9.407238
    43  H    6.311797   5.946600   8.698886   8.690443   9.208345
    44  H    6.875356   6.230346   9.773373   9.448825   9.899683
    45  H    7.355492   6.748193   9.766556   9.285124   9.805448
    46  H    7.419179   6.984182   9.371527   9.145601   9.771575
    47  H    5.859522   5.805596   7.310318   7.497405   8.121709
    48  H    3.319196   3.125270   5.729702   4.649798   4.675483
                   21         22         23         24         25
    21  H    0.000000
    22  C    2.138214   0.000000
    23  C    2.993127   1.387772   0.000000
    24  C    3.050956   1.394835   2.403960   0.000000
    25  C    4.275140   2.414213   1.395655   2.781000   0.000000
    26  H    3.042871   2.130795   1.081487   3.377339   2.160600
    27  C    4.307973   2.408143   2.776991   1.382742   2.409832
    28  H    3.149658   2.143769   3.380530   1.081875   3.862747
    29  C    4.844255   2.822162   2.444890   2.435139   1.415165
    30  H    5.057290   3.391728   2.146960   3.865313   1.092680
    31  H    6.107419   4.129369   3.633869   3.633135   2.364901
    32  N    5.522293   4.132634   4.893207   3.593827   5.105635
    33  N    5.044198   3.149193   3.239756   3.064361   3.171734
    34  Pd   5.951578   3.852976   3.304456   3.751015   2.420225
    35  O    9.616436   7.653668   6.937662   7.683058   6.096893
    36  O    7.558503   5.564351   5.032919   5.534794   4.316995
    37  O    7.415203   5.447794   4.848576   4.946974   3.496261
    38  N    7.457301   5.405957   4.558953   5.293472   3.295604
    39  C    8.385722   6.391622   5.455970   6.445796   4.344993
    40  C    8.517083   6.518172   5.790876   6.535393   4.903975
    41  C    7.952021   5.925010   5.148698   5.614686   3.773246
    42  C    9.406607   7.413074   6.570911   7.109394   5.186833
    43  H    9.404733   7.398425   6.455098   7.378048   5.271475
    44  H   10.064729   8.003548   7.229603   7.639931   5.876392
    45  H    9.730630   7.790688   7.021465   7.372867   5.626728
    46  H    9.641428   7.726331   6.728992   7.604987   5.377763
    47  H    8.195332   6.339854   5.249030   6.625838   4.258389
    48  H    5.131062   3.384051   3.859483   2.131686   3.395328
                   26         27         28         29         30
    26  H    0.000000
    27  C    3.858307   0.000000
    28  H    4.262626   2.143794   0.000000
    29  C    3.429081   1.407117   3.414345   0.000000
    30  H    2.481149   3.402409   4.945732   2.176821   0.000000
    31  H    4.518299   2.377457   4.513439   1.314497   2.624863
    32  N    5.624369   3.855410   3.479741   4.631851   6.039931
    33  N    3.918927   2.974684   3.662162   3.028161   3.925189
    34  Pd   3.995240   2.996722   4.640842   2.180934   2.751606
    35  O    7.254394   6.929135   8.480969   6.057656   5.879266
    36  O    5.500023   4.885421   6.296448   4.199529   4.414405
    37  O    5.639932   3.645485   5.784996   2.633442   3.428667
    38  N    5.116050   4.259234   6.242565   3.053391   2.999265
    39  C    5.815564   5.539559   7.394205   4.365492   3.897975
    40  C    6.170452   5.760761   7.370547   4.852334   4.727412
    41  C    5.802220   4.398126   6.519766   3.227608   3.475937
    42  C    7.142861   5.865588   8.000731   4.710467   4.722598
    43  H    6.821688   6.372668   8.314123   5.186674   4.755160
    44  H    7.823668   6.383384   8.482649   5.324514   5.492589
    45  H    7.652123   6.073704   8.212328   5.012731   5.214138
    46  H    7.151923   6.452123   8.564036   5.176073   4.712402
    47  H    5.408380   5.874842   7.629627   4.625907   3.626306
    48  H    4.940614   1.082990   2.457806   2.154429   4.304321
                   31         32         33         34         35
    31  H    0.000000
    32  N    5.484309   0.000000
    33  N    3.892258   2.348124   0.000000
    34  Pd   2.482448   4.137999   2.004601   0.000000
    35  O    5.796572   6.738449   5.064272   3.996112   0.000000
    36  O    4.261837   4.668010   2.865567   2.028670   2.210285
    37  O    1.330913   6.482300   4.882517   3.181543   5.605359
    38  N    2.453346   6.024481   3.987548   1.991173   3.549710
    39  C    3.898406   6.691408   4.604227   2.812741   2.409895
    40  C    4.634308   5.940790   4.079926   2.811784   1.210904
    41  C    2.149796   6.705101   4.877006   2.938684   4.527603
    42  C    3.554011   8.097464   6.299837   4.341984   4.837143
    43  H    4.501993   7.602382   5.612115   3.792945   2.590904
    44  H    4.212843   8.161274   6.483617   4.606262   4.350374
    45  H    3.743036   8.611587   6.948001   5.048267   5.876687
    46  H    4.134390   8.724821   6.749983   4.746991   4.925606
    47  H    4.340075   7.096600   4.857860   3.182284   2.872916
    48  H    2.636688   3.960639   3.546971   3.550977   7.255777
                   36         37         38         39         40
    36  O    0.000000
    37  O    4.521708   0.000000
    38  N    2.651306   2.246432   0.000000
    39  C    2.403705   3.599846   1.450191   0.000000
    40  C    1.285230   4.561479   2.456259   1.559299   0.000000
    41  C    3.805498   1.265468   1.306845   2.440252   3.558749
    42  C    4.773025   2.375237   2.461036   2.915244   4.161670
    43  H    3.251682   3.889607   2.135152   1.092771   2.178720
    44  H    4.615737   3.083204   2.809009   2.924718   3.885705
    45  H    5.696876   2.430340   3.319833   3.973823   5.186247
    46  H    5.095013   3.096524   2.771129   2.887092   4.326217
    47  H    2.903974   4.195124   2.091849   1.101488   2.152606
    48  H    5.276225   3.686308   4.639508   5.963004   6.134933
                   41         42         43         44         45
    41  C    0.000000
    42  C    1.515200   0.000000
    43  H    2.628789   2.487828   0.000000
    44  H    2.151532   1.087971   2.260947   0.000000
    45  H    2.120999   1.086206   3.568872   1.772115   0.000000
    46  H    2.152408   1.087833   2.353039   1.773555   1.774639
    47  H    3.110947   3.575848   1.780783   3.771206   4.605319
    48  H    4.573622   5.949569   6.689441   6.383070   6.034076
                   46         47         48
    46  H    0.000000
    47  H    3.248997   0.000000
    48  H    6.680390   6.459706   0.000000
 Stoichiometry    C21H19N3O4Pd
 Framework group  C1[X(C21H19N3O4Pd)]
 Deg. of freedom   138
 Full point group                 C1      NOp   1
 Largest Abelian subgroup         C1      NOp   1
 Largest concise Abelian subgroup C1      NOp   1
                         Standard orientation:                         
 ---------------------------------------------------------------------
 Center     Atomic      Atomic             Coordinates (Angstroms)
 Number     Number       Type             X           Y           Z
 ---------------------------------------------------------------------
      1          6           0       -3.814755    0.651416    0.077023
      2          6           0       -4.719526    1.670139    0.373168
      3          6           0       -5.870776    1.843861   -0.368228
      4          6           0       -6.135465    0.993663   -1.430002
      5          6           0       -5.270479   -0.044130   -1.713812
      6          6           0       -4.113671   -0.240378   -0.962965
      7          1           0       -4.484859    2.351260    1.177938
      8          1           0       -6.551427    2.645086   -0.126759
      9          1           0       -7.024339    1.128872   -2.026630
     10          1           0       -5.469494   -0.730190   -2.522165
     11          6           0       -2.556679    0.597869    0.832917
     12          6           0       -2.509012    0.604093    2.227754
     13          6           0       -1.319781    0.589040    0.186945
     14          1           0       -3.410680    0.607713    2.825746
     15          1           0       -1.254560    0.646367   -0.895421
     16          6           0       -0.250818    0.558858    2.201354
     17          1           0        0.687101    0.544686    2.756696
     18          8           0       -3.335826   -1.307914   -1.324471
     19          6           0       -2.888568   -2.209337   -0.320070
     20          1           0       -3.383067   -2.001583    0.635977
     21          1           0       -3.202259   -3.209334   -0.652437
     22          6           0       -1.390102   -2.192229   -0.148908
     23          6           0       -0.571549   -1.904639   -1.232040
     24          6           0       -0.816634   -2.457630    1.094579
     25          6           0        0.808394   -1.786192   -1.060048
     26          1           0       -1.025546   -1.753234   -2.201874
     27          6           0        0.547932   -2.324860    1.274323
     28          1           0       -1.453359   -2.735682    1.923868
     29          6           0        1.399889   -1.968826    0.212537
     30          1           0        1.441025   -1.677265   -1.944278
     31          1           0        2.708137   -2.023576    0.328254
     32          7           0       -1.364931    0.605264    2.892812
     33          7           0       -0.178531    0.530966    0.867813
     34         46           0        1.626638    0.195158    0.063436
     35          8           0        3.547989    3.639375   -0.580527
     36          8           0        2.040946    2.180369    0.116238
     37          8           0        4.030433   -1.876241    0.294278
     38          7           0        3.485078    0.090785   -0.643725
     39          6           0        3.807044    1.349975   -1.287023
     40          6           0        3.103619    2.514330   -0.524864
     41          6           0        4.368243   -0.803550   -0.285918
     42          6           0        5.840714   -0.619877   -0.592390
     43          1           0        4.880057    1.550353   -1.338398
     44          1           0        6.230549    0.252471   -0.072084
     45          1           0        6.369554   -1.505101   -0.250996
     46          1           0        5.994407   -0.496631   -1.662236
     47          1           0        3.401916    1.350985   -2.311302
     48          1           0        0.973709   -2.525825    2.249615
 ---------------------------------------------------------------------
 Rotational constants (GHZ):           0.3222264           0.0978315           0.0888347
 General basis read from cards:  (5D, 7F)
 ======================================================================================================
                                       Pseudopotential Parameters
 ======================================================================================================
  Center     Atomic      Valence      Angular      Power
  Number     Number     Electrons     Momentum     of R      Exponent        Coefficient   SO-Coeffient
 ======================================================================================================
    1          6
                                   No pseudopotential on this center.
    2          6
                                   No pseudopotential on this center.
    3          6
                                   No pseudopotential on this center.
    4          6
                                   No pseudopotential on this center.
    5          6
                                   No pseudopotential on this center.
    6          6
                                   No pseudopotential on this center.
    7          1
                                   No pseudopotential on this center.
    8          1
                                   No pseudopotential on this center.
    9          1
                                   No pseudopotential on this center.
   10          1
                                   No pseudopotential on this center.
   11          6
                                   No pseudopotential on this center.
   12          6
                                   No pseudopotential on this center.
   13          6
                                   No pseudopotential on this center.
   14          1
                                   No pseudopotential on this center.
   15          1
                                   No pseudopotential on this center.
   16          6
                                   No pseudopotential on this center.
   17          1
                                   No pseudopotential on this center.
   18          8
                                   No pseudopotential on this center.
   19          6
                                   No pseudopotential on this center.
   20          1
                                   No pseudopotential on this center.
   21          1
                                   No pseudopotential on this center.
   22          6
                                   No pseudopotential on this center.
   23          6
                                   No pseudopotential on this center.
   24          6
                                   No pseudopotential on this center.
   25          6
                                   No pseudopotential on this center.
   26          1
                                   No pseudopotential on this center.
   27          6
                                   No pseudopotential on this center.
   28          1
                                   No pseudopotential on this center.
   29          6
                                   No pseudopotential on this center.
   30          1
                                   No pseudopotential on this center.
   31          1
                                   No pseudopotential on this center.
   32          7
                                   No pseudopotential on this center.
   33          7
                                   No pseudopotential on this center.
   34         46           18
                                      F and up 
                                                     2       13.2700000      -31.92955431    0.00000000
                                                     2        6.6300000       -5.39821694    0.00000000
                                      S - F
                                                     2       12.4300000      240.22904033    0.00000000
                                                     2        6.1707594       35.17194347    0.00000000
                                                     2       13.2700000       31.92955431    0.00000000
                                                     2        6.6300000        5.39821694    0.00000000
                                      P - F
                                                     2       11.0800000      170.41727605    0.00000000
                                                     2        5.8295541       28.47213287    0.00000000
                                                     2       13.2700000       31.92955431    0.00000000
                                                     2        6.6300000        5.39821694    0.00000000
                                      D - F
                                                     2        9.5100000       69.01384488    0.00000000
                                                     2        4.1397811       11.75086158    0.00000000
                                                     2       13.2700000       31.92955431    0.00000000
                                                     2        6.6300000        5.39821694    0.00000000
   35          8
                                   No pseudopotential on this center.
   36          8
                                   No pseudopotential on this center.
   37          8
                                   No pseudopotential on this center.
   38          7
                                   No pseudopotential on this center.
   39          6
                                   No pseudopotential on this center.
   40          6
                                   No pseudopotential on this center.
   41          6
                                   No pseudopotential on this center.
   42          6
                                   No pseudopotential on this center.
   43          1
                                   No pseudopotential on this center.
   44          1
                                   No pseudopotential on this center.
   45          1
                                   No pseudopotential on this center.
   46          1
                                   No pseudopotential on this center.
   47          1
                                   No pseudopotential on this center.
   48          1
                                   No pseudopotential on this center.
 ======================================================================================================
 There are   586 symmetry adapted cartesian basis functions of A   symmetry.
 There are   543 symmetry adapted basis functions of A   symmetry.
   543 basis functions,   932 primitive gaussians,   586 cartesian basis functions
   108 alpha electrons      108 beta electrons
       nuclear repulsion energy      3086.4820194515 Hartrees.
 NAtoms=   48 NActive=   48 NUniq=   48 SFac= 1.00D+00 NAtFMM=   60 NAOKFM=F Big=F
 Integral buffers will be    131072 words long.
 Raffenetti 2 integral format.
 Two-electron integral symmetry is turned on.
 One-electron integrals computed using PRISM.
   1 Symmetry operations used in ECPInt.
 ECPInt:  NShTT=   29161 NPrTT=  103719 LenC2=   25289 LenP2D=   61252.
 LDataN:  DoStor=T MaxTD1= 8 Len=  415
 NBasis=   543 RedAO= T EigKep=  2.00D-04  NBF=   543
 NBsUse=   543 1.00D-06 EigRej= -1.00D+00 NBFU=   543
 Defaulting to unpruned grid for atomic number  46.
 ExpMin= 3.70D-02 ExpMax= 2.27D+03 ExpMxC= 3.41D+02 IAcc=3 IRadAn=         5 AccDes= 0.00D+00
 Harris functional with IExCor= 1009 and IRadAn=       5 diagonalized for initial guess.
 HarFok:  IExCor= 1009 AccDes= 0.00D+00 IRadAn=         5 IDoV= 1 UseB2=F ITyADJ=14
 ICtDFT=  3500011 ScaDFX=  1.000000  1.000000  1.000000  1.000000
 Defaulting to unpruned grid for atomic number  46.
 FoFCou: FMM=F IPFlag=           0 FMFlag=      100000 FMFlg1=           0
         NFxFlg=           0 DoJE=T BraDBF=F KetDBF=T FulRan=T
         wScrn=  0.000000 ICntrl=       500 IOpCl=  0 I1Cent=   200000004 NGrid=           0
         NMat0=    1 NMatS0=      1 NMatT0=    0 NMatD0=    1 NMtDS0=    0 NMtDT0=    0
 Petite list used in FoFCou.
 Requested convergence on RMS density matrix=1.00D-08 within 128 cycles.
 Requested convergence on MAX density matrix=1.00D-06.
 Requested convergence on             energy=1.00D-06.
 No special actions if energy rises.
 Defaulting to unpruned grid for atomic number  46.
 Defaulting to unpruned grid for atomic number  46.
 Defaulting to unpruned grid for atomic number  46.
 Defaulting to unpruned grid for atomic number  46.
 Defaulting to unpruned grid for atomic number  46.
 Defaulting to unpruned grid for atomic number  46.
 Defaulting to unpruned grid for atomic number  46.
 Defaulting to unpruned grid for atomic number  46.
 Defaulting to unpruned grid for atomic number  46.
 Defaulting to unpruned grid for atomic number  46.
 Defaulting to unpruned grid for atomic number  46.
 Defaulting to unpruned grid for atomic number  46.
 Defaulting to unpruned grid for atomic number  46.
 Defaulting to unpruned grid for atomic number  46.
 Defaulting to unpruned grid for atomic number  46.
 Defaulting to unpruned grid for atomic number  46.
 Defaulting to unpruned grid for atomic number  46.
 Defaulting to unpruned grid for atomic number  46.
 Defaulting to unpruned grid for atomic number  46.
 Defaulting to unpruned grid for atomic number  46.
 Defaulting to unpruned grid for atomic number  46.
 Defaulting to unpruned grid for atomic number  46.
 Defaulting to unpruned grid for atomic number  46.
 Defaulting to unpruned grid for atomic number  46.
 Defaulting to unpruned grid for atomic number  46.
 Defaulting to unpruned grid for atomic number  46.
 Defaulting to unpruned grid for atomic number  46.
 Defaulting to unpruned grid for atomic number  46.
 Defaulting to unpruned grid for atomic number  46.
 Defaulting to unpruned grid for atomic number  46.
 Defaulting to unpruned grid for atomic number  46.
 Defaulting to unpruned grid for atomic number  46.
 Defaulting to unpruned grid for atomic number  46.
 Defaulting to unpruned grid for atomic number  46.
 Defaulting to unpruned grid for atomic number  46.
 Defaulting to unpruned grid for atomic number  46.
 Defaulting to unpruned grid for atomic number  46.
 Defaulting to unpruned grid for atomic number  46.
 Defaulting to unpruned grid for atomic number  46.
 Defaulting to unpruned grid for atomic number  46.
 Defaulting to unpruned grid for atomic number  46.
 Defaulting to unpruned grid for atomic number  46.
 Defaulting to unpruned grid for atomic number  46.
 Defaulting to unpruned grid for atomic number  46.
 Defaulting to unpruned grid for atomic number  46.
 Defaulting to unpruned grid for atomic number  46.
 Defaulting to unpruned grid for atomic number  46.
 Defaulting to unpruned grid for atomic number  46.
 Defaulting to unpruned grid for atomic number  46.
 Defaulting to unpruned grid for atomic number  46.
 Defaulting to unpruned grid for atomic number  46.
 Defaulting to unpruned grid for atomic number  46.
 Defaulting to unpruned grid for atomic number  46.
 Defaulting to unpruned grid for atomic number  46.
 Defaulting to unpruned grid for atomic number  46.
 Defaulting to unpruned grid for atomic number  46.
 Defaulting to unpruned grid for atomic number  46.
 Defaulting to unpruned grid for atomic number  46.
 Defaulting to unpruned grid for atomic number  46.
 Defaulting to unpruned grid for atomic number  46.
 Defaulting to unpruned grid for atomic number  46.
 Defaulting to unpruned grid for atomic number  46.
 Defaulting to unpruned grid for atomic number  46.
 Defaulting to unpruned grid for atomic number  46.
 EnCoef did     8 forward-backward iterations
 EnCoef did   100 forward-backward iterations
 EnCoef did     2 forward-backward iterations
 Restarting incremental Fock formation.
 SCF Done:  E(RMN15) =  -1401.97674712     A.U. after   22 cycles
            NFock= 22  Conv=0.53D-08     -V/T= 2.0720
 DoSCS=F DFT=T ScalE2(SS,OS)=  1.000000  1.000000
 Range of M.O.s used for correlation:     1   543
 NBasis=   543 NAE=   108 NBE=   108 NFC=     0 NFV=     0
 NROrb=    543 NOA=   108 NOB=   108 NVA=   435 NVB=   435

 **** Warning!!: The largest alpha MO coefficient is  0.11625096D+02

   1 Symmetry operations used in ECPInt.
 ECPInt:  NShTT=   29161 NPrTT=  103719 LenC2=   25289 LenP2D=   61252.
 LDataN:  DoStor=T MaxTD1= 9 Len=  602
 Number of processors reduced to  12 by ecpmxn.
 Symmetrizing basis deriv contribution to polar:
 IMax=3 JMax=2 DiffMx= 0.00D+00
 G2DrvN: will do    49 centers at a time, making    1 passes.
 Calling FoFCou, ICntrl=  3107 FMM=F I1Cent=   0 AccDes= 0.00D+00.
 Defaulting to unpruned grid for atomic number  46.
 Defaulting to unpruned grid for atomic number  46.
 Defaulting to unpruned grid for atomic number  46.
 Defaulting to unpruned grid for atomic number  46.
 Defaulting to unpruned grid for atomic number  46.
 Defaulting to unpruned grid for atomic number  46.
 Defaulting to unpruned grid for atomic number  46.
 Defaulting to unpruned grid for atomic number  46.
 Defaulting to unpruned grid for atomic number  46.
 Defaulting to unpruned grid for atomic number  46.
 Defaulting to unpruned grid for atomic number  46.
 Defaulting to unpruned grid for atomic number  46.
 Defaulting to unpruned grid for atomic number  46.
 Defaulting to unpruned grid for atomic number  46.
 Defaulting to unpruned grid for atomic number  46.
 Defaulting to unpruned grid for atomic number  46.
 Defaulting to unpruned grid for atomic number  46.
 Defaulting to unpruned grid for atomic number  46.
 Defaulting to unpruned grid for atomic number  46.
 Defaulting to unpruned grid for atomic number  46.
 Defaulting to unpruned grid for atomic number  46.
 Defaulting to unpruned grid for atomic number  46.
 Defaulting to unpruned grid for atomic number  46.
 Defaulting to unpruned grid for atomic number  46.
 Defaulting to unpruned grid for atomic number  46.
 Defaulting to unpruned grid for atomic number  46.
 Defaulting to unpruned grid for atomic number  46.
 Defaulting to unpruned grid for atomic number  46.
 Defaulting to unpruned grid for atomic number  46.
 Defaulting to unpruned grid for atomic number  46.
 Defaulting to unpruned grid for atomic number  46.
 Defaulting to unpruned grid for atomic number  46.
 Defaulting to unpruned grid for atomic number  46.
 Defaulting to unpruned grid for atomic number  46.
 Defaulting to unpruned grid for atomic number  46.
 Defaulting to unpruned grid for atomic number  46.
 Defaulting to unpruned grid for atomic number  46.
 Defaulting to unpruned grid for atomic number  46.
 Defaulting to unpruned grid for atomic number  46.
 Defaulting to unpruned grid for atomic number  46.
 Defaulting to unpruned grid for atomic number  46.
 Defaulting to unpruned grid for atomic number  46.
 Defaulting to unpruned grid for atomic number  46.
 Defaulting to unpruned grid for atomic number  46.
 Defaulting to unpruned grid for atomic number  46.
 Defaulting to unpruned grid for atomic number  46.
 Defaulting to unpruned grid for atomic number  46.
 Defaulting to unpruned grid for atomic number  46.
 Defaulting to unpruned grid for atomic number  46.
 Defaulting to unpruned grid for atomic number  46.
 Defaulting to unpruned grid for atomic number  46.
 Defaulting to unpruned grid for atomic number  46.
 Defaulting to unpruned grid for atomic number  46.
 Defaulting to unpruned grid for atomic number  46.
 Defaulting to unpruned grid for atomic number  46.
 Defaulting to unpruned grid for atomic number  46.
 Defaulting to unpruned grid for atomic number  46.
 Defaulting to unpruned grid for atomic number  46.
 Defaulting to unpruned grid for atomic number  46.
 Defaulting to unpruned grid for atomic number  46.
 Defaulting to unpruned grid for atomic number  46.
 Defaulting to unpruned grid for atomic number  46.
 Defaulting to unpruned grid for atomic number  46.
 Defaulting to unpruned grid for atomic number  46.
 End of G2Drv F.D. properties file   721 does not exist.
 End of G2Drv F.D. properties file   722 does not exist.
 End of G2Drv F.D. properties file   788 does not exist.
          IDoAtm=111111111111111111111111111111111111111111111111
          Differentiating once with respect to nuclear coordinates.
 Defaulting to unpruned grid for atomic number  46.
 CalDSu exits because no D1Ps are significant.
 Defaulting to unpruned grid for atomic number  46.
 Defaulting to unpruned grid for atomic number  46.
 Defaulting to unpruned grid for atomic number  46.
 Defaulting to unpruned grid for atomic number  46.
 Defaulting to unpruned grid for atomic number  46.
 Defaulting to unpruned grid for atomic number  46.
 Defaulting to unpruned grid for atomic number  46.
 Defaulting to unpruned grid for atomic number  46.
 Defaulting to unpruned grid for atomic number  46.
 Defaulting to unpruned grid for atomic number  46.
 Defaulting to unpruned grid for atomic number  46.
 Defaulting to unpruned grid for atomic number  46.
 Defaulting to unpruned grid for atomic number  46.
 Defaulting to unpruned grid for atomic number  46.
 Defaulting to unpruned grid for atomic number  46.
 Defaulting to unpruned grid for atomic number  46.
 Defaulting to unpruned grid for atomic number  46.
 Defaulting to unpruned grid for atomic number  46.
 Defaulting to unpruned grid for atomic number  46.
 Defaulting to unpruned grid for atomic number  46.
 Defaulting to unpruned grid for atomic number  46.
 Defaulting to unpruned grid for atomic number  46.
 Defaulting to unpruned grid for atomic number  46.
 Defaulting to unpruned grid for atomic number  46.
 Defaulting to unpruned grid for atomic number  46.
 Defaulting to unpruned grid for atomic number  46.
 Defaulting to unpruned grid for atomic number  46.
 Defaulting to unpruned grid for atomic number  46.
 Defaulting to unpruned grid for atomic number  46.
 Defaulting to unpruned grid for atomic number  46.
 Defaulting to unpruned grid for atomic number  46.
 Defaulting to unpruned grid for atomic number  46.
 Defaulting to unpruned grid for atomic number  46.
 Defaulting to unpruned grid for atomic number  46.
 Defaulting to unpruned grid for atomic number  46.
 Defaulting to unpruned grid for atomic number  46.
 Defaulting to unpruned grid for atomic number  46.
 Defaulting to unpruned grid for atomic number  46.
 Defaulting to unpruned grid for atomic number  46.
 Defaulting to unpruned grid for atomic number  46.
 Defaulting to unpruned grid for atomic number  46.
 Defaulting to unpruned grid for atomic number  46.
 Defaulting to unpruned grid for atomic number  46.
 Defaulting to unpruned grid for atomic number  46.
 Defaulting to unpruned grid for atomic number  46.
 Defaulting to unpruned grid for atomic number  46.
 Defaulting to unpruned grid for atomic number  46.
 Defaulting to unpruned grid for atomic number  46.
 Defaulting to unpruned grid for atomic number  46.
 Defaulting to unpruned grid for atomic number  46.
 Defaulting to unpruned grid for atomic number  46.
 Defaulting to unpruned grid for atomic number  46.
 Defaulting to unpruned grid for atomic number  46.
 Defaulting to unpruned grid for atomic number  46.
 Defaulting to unpruned grid for atomic number  46.
 Defaulting to unpruned grid for atomic number  46.
 Defaulting to unpruned grid for atomic number  46.
 Defaulting to unpruned grid for atomic number  46.
 Defaulting to unpruned grid for atomic number  46.
 Defaulting to unpruned grid for atomic number  46.
 Defaulting to unpruned grid for atomic number  46.
 Defaulting to unpruned grid for atomic number  46.
 Defaulting to unpruned grid for atomic number  46.
 Defaulting to unpruned grid for atomic number  46.
          There are   147 degrees of freedom in the 1st order CPHF.  IDoFFX=6 NUNeed=     0.
    141 vectors produced by pass  0 Test12= 4.70D-14 1.00D-09 XBig12= 1.21D-01 8.68D-02.
 AX will form    64 AO Fock derivatives at one time.
    141 vectors produced by pass  1 Test12= 4.70D-14 1.00D-09 XBig12= 1.73D-02 3.58D-02.
    141 vectors produced by pass  2 Test12= 4.70D-14 1.00D-09 XBig12= 3.11D-04 2.73D-03.
    141 vectors produced by pass  3 Test12= 4.70D-14 1.00D-09 XBig12= 2.96D-06 2.23D-04.
    141 vectors produced by pass  4 Test12= 4.70D-14 1.00D-09 XBig12= 1.94D-08 1.50D-05.
    141 vectors produced by pass  5 Test12= 4.70D-14 1.00D-09 XBig12= 8.17D-11 9.07D-07.
    116 vectors produced by pass  6 Test12= 4.70D-14 1.00D-09 XBig12= 2.98D-13 5.34D-08.
     22 vectors produced by pass  7 Test12= 4.70D-14 1.00D-09 XBig12= 9.85D-16 2.23D-09.
 InvSVY:  IOpt=1 It=  1 EMax= 1.72D-15
 Solved reduced A of dimension   984 with   147 vectors.
 End of Minotr F.D. properties file   721 does not exist.
 End of Minotr F.D. properties file   722 does not exist.
 End of Minotr F.D. properties file   788 does not exist.

 **********************************************************************

            Population analysis using the SCF Density.

 **********************************************************************

 Orbital symmetries:
       Occupied  (A) (A) (A) (A) (A) (A) (A) (A) (A) (A) (A) (A)
                 (A) (A) (A) (A) (A) (A) (A) (A) (A) (A) (A) (A)
                 (A) (A) (A) (A) (A) (A) (A) (A) (A) (A) (A) (A)
                 (A) (A) (A) (A) (A) (A) (A) (A) (A) (A) (A) (A)
                 (A) (A) (A) (A) (A) (A) (A) (A) (A) (A) (A) (A)
                 (A) (A) (A) (A) (A) (A) (A) (A) (A) (A) (A) (A)
                 (A) (A) (A) (A) (A) (A) (A) (A) (A) (A) (A) (A)
                 (A) (A) (A) (A) (A) (A) (A) (A) (A) (A) (A) (A)
                 (A) (A) (A) (A) (A) (A) (A) (A) (A) (A) (A) (A)
       Virtual   (A) (A) (A) (A) (A) (A) (A) (A) (A) (A) (A) (A)
                 (A) (A) (A) (A) (A) (A) (A) (A) (A) (A) (A) (A)
                 (A) (A) (A) (A) (A) (A) (A) (A) (A) (A) (A) (A)
                 (A) (A) (A) (A) (A) (A) (A) (A) (A) (A) (A) (A)
                 (A) (A) (A) (A) (A) (A) (A) (A) (A) (A) (A) (A)
                 (A) (A) (A) (A) (A) (A) (A) (A) (A) (A) (A) (A)
                 (A) (A) (A) (A) (A) (A) (A) (A) (A) (A) (A) (A)
                 (A) (A) (A) (A) (A) (A) (A) (A) (A) (A) (A) (A)
                 (A) (A) (A) (A) (A) (A) (A) (A) (A) (A) (A) (A)
                 (A) (A) (A) (A) (A) (A) (A) (A) (A) (A) (A) (A)
                 (A) (A) (A) (A) (A) (A) (A) (A) (A) (A) (A) (A)
                 (A) (A) (A) (A) (A) (A) (A) (A) (A) (A) (A) (A)
                 (A) (A) (A) (A) (A) (A) (A) (A) (A) (A) (A) (A)
                 (A) (A) (A) (A) (A) (A) (A) (A) (A) (A) (A) (A)
[...]
 0000043,0.00000084,-0.00000014,-0.00000069,0.00000034,0.00000048,-0.00
 000057,0.00000495,0.00000059,0.00000823,-0.00000618,0.00000164,-0.0000
 0688,-0.00001983,-0.00001548,0.00003591,0.00000264,-0.00000162,0.00000
 015,-0.00000463,-0.00000128,-0.00000277,0.00001066,0.00000564,-0.00004
 017,-0.00000270,-0.00000174,-0.00000651,0.00000510,0.00000501,-0.00000
 029,-0.00000111,0.00000217,-0.00000052,-0.00000118,-0.00000096,-0.0000
 0113,0.00000355,0.00000051,-0.00000189,-0.00000583,0.00000788,-0.00000
 738,0.00001092,-0.00002588,0.00001791,-0.00000730,-0.00003056,-0.00001
 205,-0.00003251,-0.00000415,0.00000284,-0.00000070,-0.00000292,0.00000
 070,-0.00002411,0.00001121,0.00000201,-0.00000151,-0.00000390,-0.00000
 103,-0.00027202,0.00023760,-0.00000315,-0.00000045,0.00000631,0.000008
 79,0.00067620,-0.00021437,0.00004251,0.00002818,-0.00000635,0.00002718
 ,0.00009656,-0.00004138,0.00003258,-0.00042613,0.00001408,-0.00017866,
 0.00000931,-0.00020119,-0.00000076,0.00025792,-0.00011740,0.00008864,-
 0.00207245,0.00168512,-0.00029329,0.00092795,0.00033264,0.00021934,0.0
 0022766,-0.00019192,0.00019595,-0.00016576,0.00057226,-0.00009114,-0.0
 0191729,-0.00571836,-0.00087542,0.04978552,-0.33619974,-0.01386244,0.0
 0015119,0.00015683,-0.00019000,0.00320610,-0.00909722,-0.00215051,-0.0
 5184389,0.35400067,0.00000042,0.00000013,-0.00000110,-0.00000077,-0.00
 000021,0.00000021,0.00000016,-0.00000013,-0.00000026,-0.00000008,-0.00
 000018,-0.00000020,-0.00000032,-0.00000084,-0.00000005,-0.00000062,0.0
 0000180,-0.00000050,0.00000027,-0.00000010,0.00000008,-0.00000007,0.00
 000015,0.00000023,0.00000019,-0.00000009,0.00000025,0.00000028,0.00000
 020,0.00000046,-0.00000142,0.00000295,-0.00000213,0.00000058,-0.000000
 18,0.00000140,0.00001835,0.00000078,-0.00000095,-0.00000084,-0.0000003
 1,0.00000028,0.00000299,-0.00000107,0.00000278,-0.00003173,-0.00000058
 ,0.00001582,-0.00000021,0.00000160,-0.00000011,0.00000227,-0.00000398,
 -0.00000620,-0.00000510,0.00000259,0.00000346,-0.00000014,0.00000068,0
 .00000008,0.00000157,-0.00000109,0.00000022,0.00001071,-0.00000339,0.0
 0001551,-0.00001696,0.00001857,-0.00000509,0.00000845,0.00002156,-0.00
 002169,0.00000187,0.00001397,0.00002796,0.00000153,0.00000025,-0.00000
 136,-0.00001956,0.00000796,0.00000634,-0.00000212,-0.00000079,0.000000
 60,0.00020781,-0.00019230,0.00002347,-0.00000453,-0.00001767,-0.000009
 26,-0.00047625,0.00013960,-0.00011542,-0.00000311,0.00000620,-0.000016
 85,-0.00001012,0.00001215,-0.00012264,-0.00002537,0.00008832,0.0004705
 6,0.00001848,-0.00002352,-0.00001164,0.00017708,-0.00005945,-0.0000243
 9,0.00077732,-0.00008316,-0.00035347,-0.00173500,0.00025195,0.00143358
 ,-0.00006699,-0.00048347,-0.00048736,-0.00014277,0.00019053,0.00024085
 ,0.00013135,0.00699465,-0.00212824,0.00218375,-0.01559324,-0.04613194,
 -0.00003589,-0.00024792,-0.00012622,-0.00525317,0.01974315,0.00168597,
 -0.00148357,0.01517442,0.04366581,0.00000209,0.00000666,-0.00000329,-0
 .00000014,-0.00000326,0.00000286,-0.00000310,0.00000062,0.00000102,-0.
 00000083,0.00000026,0.00000072,-0.00000454,0.00000702,0.00000228,0.000
 01816,-0.00003170,0.00000193,0.00000094,-0.00000097,-0.00000049,-0.000
 00106,0.00000080,0.,-0.00000151,0.00000056,0.00000024,0.00000030,-0.00
 000094,-0.00000076,0.00000465,0.00000389,-0.00001481,0.00000399,-0.000
 00375,0.00000706,0.00004816,-0.00001641,-0.00000194,-0.00000211,0.0000
 0049,0.00000069,0.00000798,-0.00000731,0.00000041,-0.00004057,-0.00000
 306,-0.00000162,-0.00000754,-0.00000169,0.00000460,-0.00004000,0.00004
 081,0.00002214,0.00004104,-0.00002562,-0.00001855,-0.00000257,0.000003
 22,-0.00000225,-0.00001773,0.00000764,0.00000733,-0.00005018,-0.000008
 03,0.00001536,-0.00001528,-0.00005171,-0.00004480,0.00001382,-0.000077
 32,0.00002334,0.00005083,-0.00003585,-0.00011198,-0.00000629,0.0000068
 8,0.00000521,-0.00007005,-0.00010602,0.00005475,-0.00000922,0.00000864
 ,-0.00000672,-0.00071336,0.00090511,-0.00018687,-0.00000382,0.00003063
 ,0.00002602,0.00158786,-0.00096291,0.00079501,-0.00001194,0.00000850,-
 0.00002190,0.00009062,0.00001122,-0.00019507,-0.00065709,-0.00062446,0
 .00054523,0.00009682,-0.00005179,0.00002198,0.00034688,0.00009363,0.00
 014362,-0.00668396,0.00022879,0.00068364,0.00022021,-0.00075427,0.0021
 3647,0.00032023,0.00009745,-0.00116346,-0.00039850,0.00028983,0.000108
 74,-0.00389330,-0.01123702,-0.02905446,-0.05805772,-0.02134843,-0.0655
 4408,-0.00006263,0.00035542,0.00035317,0.00465996,0.00689251,0.0164469
 3,0.00037337,0.00145717,0.00579920,0.06272079,0.00000051,0.00000060,-0
 .00000100,0.00000034,-0.00000104,0.00000060,-0.00000155,-0.00000144,0.
 00000101,-0.00000076,0.00000131,0.00000004,0.00000072,0.00000004,-0.00
 000010,-0.00000193,0.00000552,-0.00000162,0.00000060,-0.00000082,0.000
 00043,-0.00000010,0.00000019,0.00000004,-0.00000046,0.00000018,0.00000
 014,-0.00000057,-0.00000038,-0.00000003,-0.00000034,-0.00000146,-0.000
 00105,0.00000340,0.00000059,0.00000190,-0.00000133,0.00000809,-0.00001
 385,-0.00000044,0.00000079,-0.00000031,-0.00000208,0.00000231,-0.00000
 111,0.00002013,0.00000271,0.00000919,0.00000380,0.00000159,0.00000283,
 -0.00000104,-0.00000385,0.00000431,0.00000277,-0.00000023,-0.00000076,
 0.00000088,-0.00000033,0.00000047,-0.00000258,0.00000023,0.00000057,-0
 .00000190,0.00000102,-0.00001953,0.00001302,-0.00000990,0.00002049,-0.
 00001713,-0.00000450,0.00001319,-0.00003078,-0.00002217,-0.00005419,-0
 .00000589,0.00000245,0.00000059,0.00000658,-0.00000402,0.00002567,-0.0
 0000250,0.00000128,0.00000011,-0.00012870,0.00002964,-0.00002534,-0.00
 000873,0.00001039,0.00001809,0.00027720,0.00003387,-0.00001648,-0.0000
 1022,-0.00000453,0.00000027,-0.00005610,0.00001883,0.00004503,0.000259
 28,0.00016151,-0.00014527,-0.00017631,0.00015944,-0.00006533,-0.000506
 62,-0.00001202,-0.00020296,-0.00037955,0.00077871,-0.00026052,0.000594
 93,-0.00207408,-0.00128170,0.00135827,0.00066902,0.00218375,0.00067617
 ,-0.00049195,0.00015321,-0.00246517,0.00120539,0.00686052,-0.02013887,
 -0.07862867,-0.09194095,-0.00020486,-0.00024138,0.00023806,0.00419091,
 0.00414806,0.01337035,-0.00761706,-0.00524369,-0.02612795,0.02431791,0
 .07986853,0.00000039,0.00000346,-0.00000343,-0.00000044,-0.00000209,0.
 00000209,-0.00000114,0.00000076,0.00000039,0.00000003,-0.00000036,0.00
 000031,-0.00000312,0.00000378,0.00000165,0.00001164,-0.00002007,0.0000
 0116,0.00000038,-0.00000040,-0.00000071,-0.00000075,0.00000051,-0.0000
 0006,-0.00000075,0.00000015,0.00000013,0.00000056,-0.00000040,-0.00000
 039,-0.00000165,0.00000110,-0.00000473,0.00000091,-0.00000381,0.000004
 00,0.00000482,-0.00000162,-0.00000916,-0.00000086,-0.00000024,-0.00000
 014,0.00000106,-0.00000371,0.00000057,-0.00000869,-0.00001032,0.000007
 06,-0.00000041,-0.00000451,-0.00000253,-0.00002076,0.00002424,0.000008
 57,0.00001547,-0.00001180,-0.00000996,-0.00000132,0.00000160,-0.000000
 39,-0.00000484,0.00000254,0.00000267,-0.00000738,-0.00000168,-0.000003
 17,-0.00000570,-0.00001442,-0.00001095,-0.00000861,-0.00001858,0.00001
 372,0.00001624,-0.00001353,-0.00002553,-0.00000082,0.00000034,0.000002
 19,0.00000681,-0.00000994,0.00001436,-0.00000199,0.00000055,-0.0000023
 5,-0.00022794,0.00024224,0.00000187,0.00000726,0.00000701,0.00000508,0
 .00061562,-0.00015844,-0.00001515,-0.00000279,0.00000948,-0.00000532,-
 0.00003971,-0.00000251,-0.00001952,-0.00009553,-0.00023359,-0.00006994
 ,0.00014069,-0.00007727,0.00006105,0.00066309,-0.00008608,0.00018288,-
 0.00032667,0.00111822,-0.00011442,-0.00083336,-0.00071057,0.00081651,0
 .00079132,-0.00079818,0.00076811,-0.00033483,0.00050986,-0.00001466,0.
 00051179,-0.00166829,-0.00305460,-0.06425051,-0.09098417,-0.27857831,0
 .00008444,0.00009042,-0.00077715,-0.00611636,-0.00747788,-0.01617075,0
 .00092478,0.00174875,0.00167323,0.06880522,0.09813927,0.29539125,0.000
 00318,0.00001135,-0.00001357,-0.00000260,-0.00000593,0.00000793,-0.000
 00490,0.00000022,0.00000354,-0.00000317,0.00000225,0.00000223,-0.00000
 507,0.00000730,0.00000483,0.00001920,-0.00003138,-0.00000133,0.0000020
 0,-0.00000314,-0.00000246,-0.00000311,0.00000132,-0.00000034,-0.000002
 58,0.00000022,0.00000010,-0.00000069,-0.00000179,-0.00000106,-0.000033
 46,-0.00001820,-0.00001961,-0.00000132,-0.00000783,0.00002215,0.000027
 85,0.00003086,-0.00012608,-0.00000298,0.00000352,0.00000075,0.00000907
 ,0.00000079,-0.00000038,-0.00005628,-0.00002610,0.00012056,0.00000806,
 -0.00002678,0.00000270,-0.00004172,0.00004305,0.00002475,0.00003303,-0
 .00003028,-0.00002379,-0.00000067,0.00000322,0.00000097,-0.00001338,0.
 00000541,0.00000691,-0.00001516,-0.00000828,-0.00000934,-0.00000587,-0
 .00000622,-0.00000102,-0.00001676,-0.00000715,0.00003083,-0.00002685,-
 0.00002113,-0.00008980,-0.00001246,0.00000363,0.00000270,0.00002007,-0
 .00004447,0.00004688,-0.00000885,0.00000512,-0.00000353,-0.00021259,0.
 00022535,0.00002113,0.00000111,-0.00002145,0.00000268,0.00084700,-0.00
 007912,0.00003868,-0.00002410,0.00001654,-0.00006223,-0.00033328,0.000
 25233,0.00005948,0.00065388,-0.00110617,-0.00036323,0.00028326,-0.0016
 8819,0.00258488,-0.00194445,0.00157877,0.00194535,-0.00078836,-0.00130
 139,0.00048977,-0.00827437,-0.00623303,-0.01820106,-0.06110104,0.00501
 080,-0.07279516,-0.00478986,0.00238205,-0.01861082,-0.00160603,0.00390
 481,-0.00076296,0.00111952,0.00007167,0.00016043,0.00699696,-0.0021140
 5,0.02358736,0.00012722,-0.00053006,0.00024179,-0.00007048,-0.00005908
 ,-0.00002335,0.00015708,0.00003425,-0.00030716,0.06907910,-0.00000008,
 0.00000638,-0.00001176,-0.00000208,-0.00000519,0.00000423,-0.00000227,
 0.00000151,0.00000124,-0.00000088,0.00000010,0.00000035,-0.00000389,0.
 00000577,0.00000230,0.00001715,-0.00002833,0.00000208,0.00000053,-0.00
 000086,-0.00000148,-0.00000140,0.00000086,0.00000032,-0.00000113,0.000
 00038,0.00000028,0.00000063,-0.00000061,-0.00000045,-0.00002935,-0.000
 01788,-0.00001278,-0.00001128,-0.00000770,0.00001727,-0.00003081,0.000
 00961,-0.00007959,-0.00000057,0.00000249,0.00000048,0.00000827,0.00000
 440,0.00000732,-0.00006281,-0.00003985,0.00009475,0.00000419,-0.000020
 80,-0.00001000,-0.00003236,0.00003516,0.00001336,0.00002737,-0.0000176
 9,-0.00001510,-0.00000159,0.00000297,-0.00000097,-0.00000912,0.0000036
 3,0.00000477,-0.00002128,0.00000200,-0.00002332,0.00001598,-0.00003417
 ,-0.00000861,-0.00002321,-0.00004175,0.00003574,-0.00000766,-0.0000270
 8,-0.00001857,-0.00000232,0.00000024,0.00000296,0.00005346,0.00000441,
 0.00001683,-0.00000392,0.00000400,-0.00000451,-0.00033414,0.00054404,0
 .00002564,-0.00001087,0.00000707,-0.00000222,0.00143015,-0.00029378,0.
 00012280,0.00001003,0.00002073,-0.00004135,-0.00035322,0.00023353,0.00
 013615,0.00030309,-0.00214180,-0.00049248,0.00068628,0.00005777,-0.003
 59107,0.00466801,-0.00197529,-0.00181965,-0.00218989,-0.00297786,0.000
 76134,-0.01117605,-0.00706101,-0.02744148,0.00502690,-0.04411562,0.023
 33782,0.00311396,0.00070630,0.02648431,-0.00170124,0.00515011,-0.00188
 350,-0.00059871,0.00014612,-0.00092345,0.00083794,0.00052527,-0.000338
 33,0.00018489,0.00014933,0.00029661,-0.00006070,0.00007122,0.00017359,
 0.00052265,-0.00036715,0.00039958,-0.00023346,0.05145773,0.00000314,0.
 00000898,-0.00001063,-0.00000148,-0.00000742,0.00000700,-0.00000560,-0
 .00000129,0.00000284,-0.00000197,0.00000178,0.00000098,-0.00000616,0.0
 0000699,0.00000389,0.00002070,-0.00003011,-0.00000209,0.00000243,-0.00
 000301,-0.00000114,-0.00000239,0.00000169,0.00000003,-0.00000248,0.000
 00042,0.00000079,0.00000024,-0.00000146,-0.00000040,-0.00000826,0.0000
 0048,-0.00002202,0.00000432,-0.00000766,0.00001666,0.00001634,0.000020
 53,-0.00005790,-0.00000420,0.00000108,-0.00000064,0.00000296,-0.000006
 54,-0.00000266,0.00002012,-0.00002378,0.00004168,0.00000856,-0.0000053
 4,0.00001230,-0.00004440,0.00004017,0.00001958,0.00003253,-0.00002247,
 -0.00002026,-0.00000121,0.00000376,0.00000056,-0.00001251,0.00000355,0
 .00000706,-0.00000842,-0.00000675,-0.00001614,-0.00000388,-0.00000063,
 -0.00000542,-0.00002478,-0.00000054,0.00002550,-0.00001168,-0.00002704
 ,-0.00004582,-0.00000796,0.00000300,0.00000307,0.00002642,-0.00002527,
 0.00003273,-0.00000781,0.00000641,-0.00000348,-0.00012423,0.00009852,0
 .00000887,0.00001090,-0.00000569,-0.00000718,0.00055971,-0.00004446,0.
 00006204,-0.00004013,0.00001625,-0.00001868,-0.00014982,0.00002319,0.0
 0008133,0.00080109,-0.00032420,-0.00039439,0.00023578,0.00026427,0.001
 63133,0.00061287,0.00034673,0.00008419,-0.00023333,-0.00126403,-0.0003
 2979,-0.00474494,-0.00809001,-0.00133054,-0.07114621,0.01907632,-0.293
 99016,-0.00037174,-0.00093670,-0.00280202,-0.00285068,0.00339871,0.000
 67282,0.00052294,0.00093701,0.00036130,-0.00554639,0.00257225,-0.01570
 458,-0.00009707,0.00003706,-0.00038967,0.00020374,0.00012249,0.0003071
 7,0.00035947,-0.00093146,-0.00006774,0.08200681,-0.01522703,0.31183091
 ,-0.00002148,0.00001394,-0.00003638,0.00000513,0.00000991,-0.00001546,
 0.00000576,0.00002630,-0.00000908,0.00000625,-0.00002376,0.00000501,-0
 .00005022,0.00008377,0.00000733,0.00013654,-0.00039776,0.00011800,-0.0
 0000385,0.00001176,-0.00000159,0.00000257,0.00000213,-0.00000015,-0.00
 000478,0.00000549,-0.00000056,0.00001182,-0.00000205,-0.00000782,-0.00
 004045,0.00008854,-0.00002165,-0.00016815,0.00001652,0.00008687,0.0000
 4597,-0.00007626,0.00002642,0.00000292,-0.00000622,0.00000959,-0.00001
 007,-0.00001219,-0.00001001,0.00002340,0.00002624,0.00015532,0.0000574
 7,0.00004019,0.00001877,-0.00051175,0.00059849,0.00030376,0.00042370,-
 0.00002778,0.00086496,-0.00000850,0.00004060,-0.00003435,-0.00011540,-
 0.00003282,-0.00003949,-0.00549404,-0.00079259,-0.00123948,-0.00021906
 ,-0.00001184,-0.00073610,-0.00949073,-0.00408433,0.02738661,-0.0008479
 8,-0.00121264,-0.00308852,0.00005568,0.00019440,0.00008374,-0.11885389
 ,-0.01670508,0.11852820,0.00114303,0.00043936,-0.00022567,0.01022998,0
 .00267690,-0.01576134,0.00030959,0.00014985,-0.00064038,0.00150090,-0.
 00005950,0.00023981,0.00003314,-0.00012023,-0.00012176,-0.00000276,0.0
 0003010,-0.00002839,0.00014545,-0.00024699,0.00025563,0.00009102,0.000
 07551,0.00002831,0.00017012,0.00022793,0.00003688,-0.00053460,0.000063
 59,0.00025757,-0.00002074,0.00000375,0.00006431,-0.00002601,-0.0000281
 4,0.00000072,-0.00021059,-0.00002250,-0.00006897,-0.00010156,0.0000664
 5,-0.00007517,0.00001260,-0.00000988,-0.00004989,0.00000488,0.00000369
 ,0.00000329,-0.00000252,-0.00000639,-0.00000033,0.00000086,-0.00000184
 ,-0.00000456,-0.00001074,0.00000186,0.00000159,0.00001483,-0.00000520,
 0.00000863,0.12231626,0.00003612,0.00005224,-0.00001146,-0.00001332,-0
 .00000274,0.00001376,-0.00000140,0.00000433,-0.00000750,-0.00000485,-0
 .00000957,0.00001066,-0.00003571,0.00004037,0.00000319,0.00002494,-0.0
 0016717,0.00000624,0.00000308,-0.00000204,-0.00000064,-0.00000328,0.00
 000268,0.00000018,-0.00000379,0.00000304,0.00000257,0.00000274,-0.0000
 0228,-0.00000216,-0.00013676,-0.00012849,-0.00012195,0.00009600,-0.000
 04003,0.00000033,0.00022614,-0.00013783,-0.00008249,-0.00001533,0.0000
 0374,0.00000639,-0.00000956,0.00006520,-0.00000934,0.00032207,-0.00000
 380,-0.00032819,-0.00018792,-0.00006021,0.00009480,-0.00037547,0.00032
 403,0.00031820,0.00017588,-0.00021653,0.00022673,0.00002449,0.00000097
 ,0.00002944,-0.00010484,0.00002086,0.00004054,-0.00093104,0.00721772,0
 .00223203,-0.00212734,-0.00109124,-0.00105062,0.00196178,0.00575113,0.
 00261196,-0.00015086,0.00785971,-0.00137108,-0.00008285,-0.00114938,-0
 .00005672,-0.02044280,-0.04400508,0.02564245,0.00033068,-0.00435165,-0
 .00044009,0.00403579,-0.00122991,0.00231443,0.00007007,0.00024744,-0.0
 0016105,-0.00498500,-0.00035158,-0.00046674,-0.00007190,0.00017960,0.0
 0011075,-0.00027393,0.00054504,0.00035515,0.00121426,0.00088462,-0.000
 51042,-0.00021223,-0.00004160,-0.00008246,-0.00040486,-0.00012208,0.00
 005590,0.00317858,0.00014554,0.00043996,-0.00028456,0.00087477,0.00010
 494,-0.00006172,0.00000069,-0.00001795,0.00047644,-0.00014894,0.000177
 99,-0.00040679,-0.00153213,-0.00042796,0.00012871,0.00021376,0.0001021
 9,-0.00000345,0.00002082,0.00000313,0.00002987,0.00001019,0.00000730,-
 0.00005883,0.00001154,-0.00000612,0.00005422,0.00000135,0.00001063,0.0
 0000984,0.00002130,0.00000126,0.01898870,0.03029157,0.00000104,-0.0000
 2964,0.00000817,-0.00000194,-0.00001023,0.00001251,-0.00000653,-0.0000
 1507,0.00000595,-0.00000988,0.00001373,0.00000079,0.00002356,-0.000026
 77,0.00000087,-0.00010270,0.00020685,-0.00002770,0.00000300,-0.0000062
 2,0.00000098,-0.00000209,-0.00000069,0.00000026,0.00000071,-0.00000191
 ,-0.00000044,-0.00000781,0.00000021,0.00000426,0.00002146,-0.00001996,
 0.00006318,0.00009968,-0.00005109,-0.00003765,0.00001872,0.00011484,-0
 .00009974,-0.00001317,0.00000292,-0.00000141,-0.00001496,0.00002847,0.
 00002054,0.00027059,-0.00012793,-0.00012908,-0.00001773,-0.00009995,0.
 00005340,0.00010628,-0.00019464,-0.00005921,-0.00023463,0.00014762,0.0
 0014309,0.00002551,-0.00000379,-0.00000441,0.00005014,-0.00002238,-0.0
 0001970,-0.00040668,0.00030975,0.00172207,-0.00083212,-0.00014343,0.00
 025210,-0.00327958,0.00004824,0.00277630,-0.00329514,-0.00027833,-0.00
 313917,0.00007786,-0.00002258,-0.00002781,0.12126429,0.02699254,-0.274
 29825,0.00025947,-0.00036140,0.00054390,0.01162482,0.00283891,-0.01736
 846,0.00062686,0.00024046,-0.00079385,0.00125647,-0.00070116,0.0004016
 8,-0.00011775,0.00008540,0.00006170,-0.00013820,0.00001422,0.00001819,
 -0.00000923,0.00068681,0.00025823,-0.00008893,-0.00001500,-0.00001424,
 -0.00011841,-0.00021519,-0.00017737,-0.00098504,0.00036539,-0.00013856
 ,0.00007860,-0.00000682,0.00011779,-0.00002285,-0.00001051,-0.00000494
 ,0.00018157,-0.00007320,0.00003736,0.00004017,0.00013815,-0.00006029,-
 0.00003460,-0.00002547,-0.00000255,-0.00000507,0.00000580,0.00000109,-
 0.00001612,-0.00001145,-0.00000584,0.00000406,-0.00000440,-0.00000927,
 -0.00000158,0.00000140,0.00000226,0.00000208,0.00000560,0.00000871,-0.
 12627421,-0.02976813,0.28990455\\0.,-0.00000115,0.00000023,-0.00000010
 ,-0.00000083,0.00000068,-0.00000041,-0.00000094,0.00000091,-0.00000022
 ,-0.00000073,0.00000041,0.,-0.00000148,-0.00000008,0.00000021,-0.00000
 109,0.00000038,-0.00000043,-0.00000023,0.00000084,-0.00000049,-0.00000
 081,0.00000105,-0.00000014,-0.00000125,0.00000075,0.00000025,-0.000001
 06,0.00000031,0.00000033,0.00000006,0.00000126,-0.00000073,-0.00000032
 ,0.00000042,-0.00000027,-0.00000078,-0.00000127,-0.00000042,0.00000016
 ,0.00000057,0.00000008,0.00000018,-0.00000003,-0.00000031,0.00000093,-
 0.00000028,-0.00000032,0.00000043,0.00000002,-0.00000111,-0.00000004,0
 .00000084,-0.00000035,0.00000116,-0.00000019,0.00000029,0.00000048,-0.
 00000032,0.00000027,-0.00000026,0.00000018,0.00000225,-0.00000026,-0.0
 0000187,-0.00000122,-0.00000121,-0.00000284,-0.00000022,0.00000280,0.0
 0000084,0.00000487,0.00000069,-0.00000052,0.00000072,-0.00000087,-0.00
 000048,-0.00000244,-0.00000215,-0.00000060,-0.00000017,0.00000005,-0.0
 0000039,0.00000239,0.00000081,0.00000066,-0.00000079,-0.00000004,0.000
 00037,0.00000110,-0.00000044,-0.00000051,0.00000046,0.00000030,0.00000
 040,-0.00000375,-0.00000207,0.00000141,0.00000434,0.00000431,0.0000018
 5,-0.00000081,0.00000065,-0.00000165,0.00000124,-0.00000053,-0.0000006
 7,-0.00000261,0.00000271,-0.00000056,-0.00000341,-0.00000328,0.0000020
 5,0.00000726,-0.00000249,-0.00000105,-0.00000663,-0.00000030,0.0000027
 4,0.00000060,0.00000370,-0.00000249,0.00000015,0.00000175,0.00000030,0
 .00000058,0.00000120,-0.00000162,0.00000010,0.00000142,-0.00000035,0.0
 0000051,0.00000085,-0.00000142,0.00000028,0.00000032,-0.00000029,-0.00
 000080,-0.00000097,0.00000016,-0.00000013,0.00000061,-0.00000018\\\@


 WE LEARN WISDOM FROM FAILURE MUCH MORE THAN FROM SUCCESS.
 WE DISCOVER WHAT WILL DO BY FINDING OUT WHAT WILL NOT DO...
 AND HE WHO NEVER MADE A MISTAKE NEVER MADE A DISCOVERY
 Job cpu time:       0 days 16 hours 40 minutes 33.1 seconds.
 Elapsed time:       0 days  0 hours 15 minutes 49.7 seconds.
 File lengths (MBytes):  RWF=   1476 Int=      0 D2E=      0 Chk=     26 Scr=      1
 Normal termination of Gaussian 16 at Thu Nov  9 00:39:10 2023.
