 Entering Gaussian System, Link 0=/jet/home/htan2/programs/g16/g16
 Input=/jet/home/htan2/scratch/co2_temperature_330p15/co2_temperature_330p15.com
 Output=/jet/home/htan2/scratch/co2_temperature_330p15/co2_temperature_330p15.log
 Initial command:
 /jet/home/htan2/programs/g16/l1.exe "/tmp/co2_temperature_330p15/Gau-85123.inp" -scrdir="/tmp/co2_temperature_330p15/"
 Entering Link 1 = /jet/home/htan2/programs/g16/l1.exe PID=     85124.
  
 Copyright (c) 1988-2017, Gaussian, Inc.  All Rights Reserved.
  
 This is part of the Gaussian(R) 16 program.  It is based on
 the Gaussian(R) 09 system (copyright 2009, Gaussian, Inc.),
 the Gaussian(R) 03 system (copyright 2003, Gaussian, Inc.),
 the Gaussian(R) 98 system (copyright 1998, Gaussian, Inc.),
 the Gaussian(R) 94 system (copyright 1995, Gaussian, Inc.),
 the Gaussian 92(TM) system (copyright 1992, Gaussian, Inc.),
 the Gaussian 90(TM) system (copyright 1990, Gaussian, Inc.),
 the Gaussian 88(TM) system (copyright 1988, Gaussian, Inc.),
 the Gaussian 86(TM) system (copyright 1986, Carnegie Mellon
 University), and the Gaussian 82(TM) system (copyright 1983,
 Carnegie Mellon University). Gaussian is a federally registered
 trademark of Gaussian, Inc.
  
 This software contains proprietary and confidential information,
 including trade secrets, belonging to Gaussian, Inc.
  
 This software is provided under written license and may be
 used, copied, transmitted, or stored only in accord with that
 written license.
  
 The following legend is applicable only to US Government
 contracts under FAR:
  
                    RESTRICTED RIGHTS LEGEND
  
 Use, reproduction and disclosure by the US Government is
 subject to restrictions as set forth in subparagraphs (a)
 and (c) of the Commercial Computer Software - Restricted
 Rights clause in FAR 52.227-19.
  
 Gaussian, Inc.
 340 Quinnipiac St., Bldg. 40, Wallingford CT 06492
  
  
 ---------------------------------------------------------------
 Warning -- This program may not be used in any manner that
 competes with the business of Gaussian, Inc. or will provide
 assistance to any competitor of Gaussian, Inc.  The licensee
 of this program is prohibited from giving any competitor of
 Gaussian, Inc. access to this program.  By using this program,
 the user acknowledges that Gaussian, Inc. is engaged in the
 business of creating and licensing software in the field of
 computational chemistry and represents and warrants to the
 licensee that it is not a competitor of Gaussian, Inc. and that
 it will not use this program in any manner prohibited above.
 ---------------------------------------------------------------
  

 Cite this work as:
 Gaussian 16, Revision B.01,
 M. J. Frisch, G. W. Trucks, H. B. Schlegel, G. E. Scuseria, 
 M. A. Robb, J. R. Cheeseman, G. Scalmani, V. Barone, 
 G. A. Petersson, H. Nakatsuji, X. Li, M. Caricato, A. V. Marenich, 
 J. Bloino, B. G. Janesko, R. Gomperts, B. Mennucci, H. P. Hratchian, 
 J. V. Ortiz, A. F. Izmaylov, J. L. Sonnenberg, D. Williams-Young, 
 F. Ding, F. Lipparini, F. Egidi, J. Goings, B. Peng, A. Petrone, 
 T. Henderson, D. Ranasinghe, V. G. Zakrzewski, J. Gao, N. Rega, 
 G. Zheng, W. Liang, M. Hada, M. Ehara, K. Toyota, R. Fukuda, 
 J. Hasegawa, M. Ishida, T. Nakajima, Y. Honda, O. Kitao, H. Nakai, 
 T. Vreven, K. Throssell, J. A. Montgomery, Jr., J. E. Peralta, 
 F. Ogliaro, M. J. Bearpark, J. J. Heyd, E. N. Brothers, K. N. Kudin, 
 V. N. Staroverov, T. A. Keith, R. Kobayashi, J. Normand, 
 K. Raghavachari, A. P. Rendell, J. C. Burant, S. S. Iyengar, 
 J. Tomasi, M. Cossi, J. M. Millam, M. Klene, C. Adamo, R. Cammi, 
 J. W. Ochterski, R. L. Martin, K. Morokuma, O. Farkas, 
 J. B. Foresman, and D. J. Fox, Gaussian, Inc., Wallingford CT, 2016.
 
 ******************************************
 Gaussian 16:  ES64L-G16RevB.01 20-Dec-2017
                13-Aug-2025 
 ******************************************
 %chk=co2_temperature_330p15.chk
 %nprocshared=64
 Will use up to   64 processors via shared memory.
 %mem=100GB
 ----------------------------------------------------------------------
 # opt freq b3lyp empiricaldispersion=gd3bj def2svp scrf=(smd,solvent=d
 ichloroethane) temperature=330.15
 ----------------------------------------------------------------------
 1/18=20,19=15,26=3,38=1,112=330150/1,3;
 2/9=110,12=2,17=6,18=5,40=1/2;
 3/5=43,7=101,11=2,25=1,30=1,70=32201,71=1,72=10,74=-5,124=41/1,2,3;
 4//1;
 5/5=2,38=5,53=10/2;
 6/7=2,8=2,9=2,10=2,28=1/1;
 7//1,2,3,16;
 1/18=20,19=15,26=3/3(2);
 2/9=110/2;
 99//99;
 2/9=110/2;
 3/5=43,7=101,11=2,25=1,30=1,70=32205,71=1,72=10,74=-5,124=41/1,2,3;
 4/5=5,16=3,69=1/1;
 5/5=2,38=5,53=10/2;
 7//1,2,3,16;
 1/18=20,19=15,26=3/3(-5);
 2/9=110/2;
 6/7=2,8=2,9=2,10=2,19=2,28=1/1;
 99/9=1/99;
 ----------------------------------
 Gaussian job with default settings
 ----------------------------------
 Symbolic Z-matrix:
 Charge =  0 Multiplicity = 1
 O                     0.        0.        1.16306 
 O                     0.        0.       -1.16306 
 C                     0.        0.        0. 
 

 GradGradGradGradGradGradGradGradGradGradGradGradGradGradGradGradGradGrad
 Berny optimization.
 Initialization pass.
                           ----------------------------
                           !    Initial Parameters    !
                           ! (Angstroms and Degrees)  !
 --------------------------                            --------------------------
 ! Name  Definition              Value          Derivative Info.                !
 --------------------------------------------------------------------------------
 ! R1    R(1,3)                  1.1631         estimate D2E/DX2                !
 ! R2    R(2,3)                  1.1631         estimate D2E/DX2                !
 ! A1    L(1,3,2,-1,-1)        180.0            estimate D2E/DX2                !
 ! A2    L(1,3,2,-2,-2)        180.0            estimate D2E/DX2                !
 --------------------------------------------------------------------------------
 Trust Radius=3.00D-01 FncErr=1.00D-07 GrdErr=1.00D-06 EigMax=2.50D+02 EigMin=1.00D-04
 Number of steps in this run=     20 maximum allowed number of steps=    100.
 GradGradGradGradGradGradGradGradGradGradGradGradGradGradGradGradGradGrad

                          Input orientation:                          
 ---------------------------------------------------------------------
 Center     Atomic      Atomic             Coordinates (Angstroms)
 Number     Number       Type             X           Y           Z
 ---------------------------------------------------------------------
      1          8           0        0.000000    0.000000    1.163062
      2          8           0        0.000000    0.000000   -1.163062
      3          6           0        0.000000    0.000000    0.000000
 ---------------------------------------------------------------------
                    Distance matrix (angstroms):
                    1          2          3
     1  O    0.000000
     2  O    2.326124   0.000000
     3  C    1.163062   1.163062   0.000000
 Stoichiometry    CO2
 Framework group  D*H[O(C),C*(O.O)]
 Deg. of freedom     1
 Full point group                 D*H     NOp   8
 Largest Abelian subgroup         D2H     NOp   8
 Largest concise Abelian subgroup C2      NOp   2
                         Standard orientation:                         
 ---------------------------------------------------------------------
 Center     Atomic      Atomic             Coordinates (Angstroms)
 Number     Number       Type             X           Y           Z
 ---------------------------------------------------------------------
      1          8           0        0.000000    0.000000    1.163062
      2          8           0        0.000000    0.000000   -1.163062
      3          6           0        0.000000    0.000000    0.000000
 ---------------------------------------------------------------------
 Rotational constants (GHZ):           0.0000000          11.6788356          11.6788356
 Standard basis: def2SVP (5D, 7F)
 There are    14 symmetry adapted cartesian basis functions of AG  symmetry.
 There are     2 symmetry adapted cartesian basis functions of B1G symmetry.
 There are     4 symmetry adapted cartesian basis functions of B2G symmetry.
 There are     4 symmetry adapted cartesian basis functions of B3G symmetry.
 There are     1 symmetry adapted cartesian basis functions of AU  symmetry.
 There are    10 symmetry adapted cartesian basis functions of B1U symmetry.
 There are     5 symmetry adapted cartesian basis functions of B2U symmetry.
 There are     5 symmetry adapted cartesian basis functions of B3U symmetry.
 There are    12 symmetry adapted basis functions of AG  symmetry.
 There are     2 symmetry adapted basis functions of B1G symmetry.
 There are     4 symmetry adapted basis functions of B2G symmetry.
 There are     4 symmetry adapted basis functions of B3G symmetry.
 There are     1 symmetry adapted basis functions of AU  symmetry.
 There are     9 symmetry adapted basis functions of B1U symmetry.
 There are     5 symmetry adapted basis functions of B2U symmetry.
 There are     5 symmetry adapted basis functions of B3U symmetry.
    42 basis functions,    75 primitive gaussians,    45 cartesian basis functions
    11 alpha electrons       11 beta electrons
       nuclear repulsion energy        58.2382392321 Hartrees.
 NAtoms=    3 NActive=    3 NUniq=    2 SFac= 2.25D+00 NAtFMM=   60 NAOKFM=F Big=F
 Integral buffers will be    131072 words long.
 Raffenetti 2 integral format.
 Two-electron integral symmetry is turned on.
 Nuclear repulsion after empirical dispersion term =       58.2365963264 Hartrees.
 ------------------------------------------------------------------------------
 Polarizable Continuum Model (PCM)
 =================================
 Model                : PCM.
 Atomic radii         : SMD-Coulomb.
 Polarization charges : Total charges.
 Charge compensation  : None.
 Solution method      : On-the-fly selection.
 Cavity type          : VdW (van der Waals Surface) (Alpha=1.000).
 Cavity algorithm     : GePol (No added spheres)
                        Default sphere list used, NSphG=    3.
                        Lebedev-Laikov grids with approx.  5.0 points / Ang**2.
                        Smoothing algorithm: York/Karplus (Gamma=1.0000).
                        Polarization charges: spherical gaussians, with
                                              point-specific exponents (IZeta= 3).
                        Self-potential: point-specific (ISelfS= 7).
                        Self-field    : sphere-specific E.n sum rule (ISelfD= 2).
 1st derivatives      : Analytical E(r).r(x)/FMM algorithm (CHGder, D1EAlg=3).
                        Cavity 1st derivative terms included.
 Solvent              : DiChloroEthane, Eps=  10.125000 Eps(inf)=   2.087447
 ------------------------------------------------------------------------------
 Spheres list:
 ISph  on   Nord     Re0    Alpha      Xe            Ye            Ze
    1   O      1    2.1140  1.000      0.000000      0.000000      1.163062
    2   O      2    2.1140  1.000      0.000000      0.000000     -1.163062
    3   C      3    1.8500  1.000      0.000000      0.000000      0.000000
 ------------------------------------------------------------------------------
 ------------------------------------------------------------------------------
 Atomic radii for non-electrostatic terms: SMD-CDS.
 ------------------------------------------------------------------------------
 Nuclear repulsion after PCM non-electrostatic terms =       58.2401388202 Hartrees.
 One-electron integrals computed using PRISM.
   8 Symmetry operations used in ECPInt.
 ECPInt:  NShTT=     171 NPrTT=     705 LenC2=     171 LenP2D=     625.
 LDataN:  DoStor=T MaxTD1= 4 Len=   56
 NBasis=    42 RedAO= T EigKep=  9.13D-03  NBF=    12     2     4     4     1     9     5     5
 NBsUse=    42 1.00D-06 EigRej= -1.00D+00 NBFU=    12     2     4     4     1     9     5     5
 ExpMin= 1.31D-01 ExpMax= 2.27D+03 ExpMxC= 3.41D+02 IAcc=3 IRadAn=         5 AccDes= 0.00D+00
 Harris functional with IExCor=  402 and IRadAn=       5 diagonalized for initial guess.
 HarFok:  IExCor=  402 AccDes= 0.00D+00 IRadAn=         5 IDoV= 1 UseB2=F ITyADJ=14
 ICtDFT=  3500011 ScaDFX=  1.000000  1.000000  1.000000  1.000000
 FoFCou: FMM=F IPFlag=           0 FMFlag=      100000 FMFlg1=           0
         NFxFlg=           0 DoJE=T BraDBF=F KetDBF=T FulRan=T
         wScrn=  0.000000 ICntrl=       500 IOpCl=  0 I1Cent=   200000004 NGrid=           0
         NMat0=    1 NMatS0=      1 NMatT0=    0 NMatD0=    1 NMtDS0=    0 NMtDT0=    0
 Petite list used in FoFCou.
 Initial guess orbital symmetries:
       Occupied  (SGU) (SGG) (SGG) (SGG) (SGU) (SGG) (SGU) (PIU)
                 (PIU) (PIG) (PIG)
       Virtual   (PIU) (PIU) (SGG) (SGU) (PIU) (PIU) (SGG) (SGU)
                 (SGG) (PIG) (PIG) (SGU) (PIU) (PIU) (SGG) (SGU)
                 (PIG) (PIG) (DLTG) (DLTG) (DLTU) (DLTU) (DLTG)
                 (DLTG) (PIU) (PIU) (SGG) (SGU) (PIG) (PIG) (SGG)
 The electronic state of the initial guess is 1-SGG.
 Keep R1 ints in memory in symmetry-blocked form, NReq=55996592.
 Requested convergence on RMS density matrix=1.00D-08 within 128 cycles.
 Requested convergence on MAX density matrix=1.00D-06.
 Requested convergence on             energy=1.00D-06.
 No special actions if energy rises.
 Inv3:  Mode=1 IEnd=      907500.
 Iteration    1 A*A^-1 deviation from unit magnitude is 3.55D-15 for    123.
 Iteration    1 A*A^-1 deviation from orthogonality  is 1.32D-15 for    178    102.
 Iteration    1 A^-1*A deviation from unit magnitude is 2.78D-15 for    102.
 Iteration    1 A^-1*A deviation from orthogonality  is 1.07D-15 for    413    337.
 Error on total polarization charges =  0.00080
 SCF Done:  E(RB3LYP) =  -188.443651871     A.U. after    8 cycles
            NFock=  8  Conv=0.74D-09     -V/T= 2.0076
 SMD-CDS (non-electrostatic) energy       (kcal/mol) =       2.22
 (included in total energy above)

 **********************************************************************

            Population analysis using the SCF Density.

 **********************************************************************

 Orbital symmetries:
       Occupied  (SGU) (SGG) (SGG) (SGG) (SGU) (SGG) (SGU) (PIU)
                 (PIU) (PIG) (PIG)
       Virtual   (PIU) (PIU) (SGG) (SGU) (PIU) (PIU) (SGG) (SGU)
                 (SGG) (PIG) (PIG) (SGU) (PIU) (PIU) (SGG) (DLTG)
                 (DLTG) (SGU) (PIG) (PIG) (DLTU) (DLTU) (DLTG)
                 (DLTG) (PIU) (PIU) (SGG) (SGU) (PIG) (PIG) (SGG)
 The electronic state is 1-SGG.
 Alpha  occ. eigenvalues --  -19.21126 -19.21119 -10.37463  -1.14334  -1.10491
 Alpha  occ. eigenvalues --   -0.54951  -0.51302  -0.51189  -0.51189  -0.36735
 Alpha  occ. eigenvalues --   -0.36735
 Alpha virt. eigenvalues --    0.03840   0.03840   0.06983   0.34642   0.42635
 Alpha virt. eigenvalues --    0.42635   0.47193   0.75892   0.80483   0.90422
 Alpha virt. eigenvalues --    0.90422   1.08224   1.09496   1.09496   1.23804
 Alpha virt. eigenvalues --    1.53444   1.53444   1.56883   1.57847   1.57847
 Alpha virt. eigenvalues --    2.55209   2.55209   2.67174   2.67174   2.76796
 Alpha virt. eigenvalues --    2.76796   2.83198   3.53646   3.54476   3.54476
 Alpha virt. eigenvalues --    3.84517
          Condensed to atoms (all electrons):
               1          2          3
     1  O    7.486877  -0.025560   0.685067
     2  O   -0.025560   7.486877   0.685067
     3  C    0.685067   0.685067   4.337096
 Mulliken charges:
               1
     1  O   -0.146385
     2  O   -0.146385
     3  C    0.292769
 Sum of Mulliken charges =  -0.00000
 Mulliken charges with hydrogens summed into heavy atoms:
               1
     1  O   -0.146385
     2  O   -0.146385
     3  C    0.292769
 Electronic spatial extent (au):  <R**2>=            113.1577
 Charge=             -0.0000 electrons
 Dipole moment (field-independent basis, Debye):
    X=             -0.0000    Y=              0.0000    Z=              0.0000  Tot=              0.0000
 Quadrupole moment (field-independent basis, Debye-Ang):
   XX=            -14.4425   YY=            -14.4425   ZZ=            -19.3581
   XY=              0.0000   XZ=              0.0000   YZ=             -0.0000
 Traceless Quadrupole moment (field-independent basis, Debye-Ang):
   XX=              1.6385   YY=              1.6385   ZZ=             -3.2770
   XY=              0.0000   XZ=              0.0000   YZ=             -0.0000
 Octapole moment (field-independent basis, Debye-Ang**2):
  XXX=             -0.0000  YYY=             -0.0000  ZZZ=             -0.0000  XYY=             -0.0000
  XXY=             -0.0000  XXZ=              0.0000  XZZ=             -0.0000  YZZ=             -0.0000
  YYZ=              0.0000  XYZ=             -0.0000
 Hexadecapole moment (field-independent basis, Debye-Ang**3):
 XXXX=            -10.4586 YYYY=            -10.4586 ZZZZ=           -101.1428 XXXY=              0.0000
 XXXZ=              0.0000 YYYX=              0.0000 YYYZ=             -0.0000 ZZZX=              0.0000
 ZZZY=              0.0000 XXYY=             -3.4862 XXZZ=            -17.9761 YYZZ=            -17.9761
 XXYZ=             -0.0000 YYXZ=              0.0000 ZZXY=              0.0000
 N-N= 5.824013882023D+01 E-N=-5.593979123466D+02  KE= 1.870222411842D+02
 Symmetry AG   KE= 1.008165834518D+02
 Symmetry B1G  KE= 9.755513957949D-34
 Symmetry B2G  KE= 4.930414285339D+00
 Symmetry B3G  KE= 4.930414285339D+00
 Symmetry AU   KE= 1.415981404614D-34
 Symmetry B1U  KE= 6.905999361364D+01
 Symmetry B2U  KE= 3.642417774050D+00
 Symmetry B3U  KE= 3.642417774050D+00
   8 Symmetry operations used in ECPInt.
 ECPInt:  NShTT=     171 NPrTT=     705 LenC2=     171 LenP2D=     625.
 LDataN:  DoStor=T MaxTD1= 5 Len=  102
 D1PCM: PCM CHGder 1st derivatives, ID1Alg=3 FixD1E=F DoIter=F DoCFld=F I1PDM=0.
 Calling FoFJK, ICntrl=      2127 FMM=F ISym2X=1 I1Cent= 0 IOpClX= 0 NMat=1 NMatS=1 NMatT=0.
 ***** Axes restored to original set *****
 -------------------------------------------------------------------
 Center     Atomic                   Forces (Hartrees/Bohr)
 Number     Number              X              Y              Z
 -------------------------------------------------------------------
      1        8          -0.000000000   -0.000000000   -0.000163860
      2        8          -0.000000000   -0.000000000    0.000163860
      3        6           0.000000000    0.000000000    0.000000000
 -------------------------------------------------------------------
 Cartesian Forces:  Max     0.000163860 RMS     0.000077244

 GradGradGradGradGradGradGradGradGradGradGradGradGradGradGradGradGradGrad
 Berny optimization.
 FormGI is forming the generalized inverse of G from B-inverse, IUseBI=4.
 Internal  Forces:  Max     0.000163860 RMS     0.000115866
 Search for a local minimum.
 Step number   1 out of a maximum of   20
 All quantities printed in internal units (Hartrees-Bohrs-Radians)
 Mixed Optimization -- En-DIIS/RFO-DIIS
 Second derivative matrix not updated -- first step.
 The second derivative matrix:
                          R1        R2        A1        A2
           R1           1.25811
           R2           0.00000   1.25811
           A1           0.00000   0.00000   0.04826
           A2           0.00000   0.00000   0.00000   0.04826
 ITU=  0
     Eigenvalues ---    0.04826   0.04826   1.25811   1.25811
 RFO step:  Lambda=-4.26832126D-08 EMin= 4.82601589D-02
 Linear search not attempted -- first point.
 Iteration  1 RMS(Cart)=  0.00009210 RMS(Int)=  0.00000000
 Iteration  2 RMS(Cart)=  0.00000000 RMS(Int)=  0.00000000
 ClnCor:  largest displacement from symmetrization is 2.24D-13 for atom     3.
 Variable       Old X    -DE/DX   Delta X   Delta X   Delta X     New X
                                 (Linear)    (Quad)   (Total)
    R1        2.19787  -0.00016   0.00000  -0.00013  -0.00013   2.19774
    R2        2.19787  -0.00016   0.00000  -0.00013  -0.00013   2.19774
    A1        3.14159   0.00000   0.00000   0.00000   0.00000   3.14159
    A2        3.14159  -0.00000   0.00000  -0.00000   0.00000   3.14159
         Item               Value     Threshold  Converged?
 Maximum Force            0.000164     0.000450     YES
 RMS     Force            0.000116     0.000300     YES
 Maximum Displacement     0.000130     0.001800     YES
 RMS     Displacement     0.000092     0.001200     YES
 Predicted change in Energy=-2.134161D-08
 Optimization completed.
    -- Stationary point found.
                           ----------------------------
                           !   Optimized Parameters   !
                           ! (Angstroms and Degrees)  !
 --------------------------                            --------------------------
 ! Name  Definition              Value          Derivative Info.                !
 --------------------------------------------------------------------------------
 ! R1    R(1,3)                  1.1631         -DE/DX =   -0.0002              !
 ! R2    R(2,3)                  1.1631         -DE/DX =   -0.0002              !
 ! A1    L(1,3,2,-1,-1)        180.0            -DE/DX =    0.0                 !
 ! A2    L(1,3,2,-2,-2)        180.0            -DE/DX =    0.0                 !
 --------------------------------------------------------------------------------
 GradGradGradGradGradGradGradGradGradGradGradGradGradGradGradGradGradGrad

                          Input orientation:                          
 ---------------------------------------------------------------------
 Center     Atomic      Atomic             Coordinates (Angstroms)
 Number     Number       Type             X           Y           Z
 ---------------------------------------------------------------------
      1          8           0        0.000000    0.000000    1.163062
      2          8           0        0.000000    0.000000   -1.163062
      3          6           0        0.000000    0.000000    0.000000
 ---------------------------------------------------------------------
                    Distance matrix (angstroms):
                    1          2          3
     1  O    0.000000
     2  O    2.326124   0.000000
     3  C    1.163062   1.163062   0.000000
 Stoichiometry    CO2
 Framework group  D*H[O(C),C*(O.O)]
 Deg. of freedom     1
 Full point group                 D*H     NOp   8
 Largest Abelian subgroup         D2H     NOp   8
 Largest concise Abelian subgroup C2      NOp   2
                         Standard orientation:                         
 ---------------------------------------------------------------------
 Center     Atomic      Atomic             Coordinates (Angstroms)
 Number     Number       Type             X           Y           Z
 ---------------------------------------------------------------------
      1          8           0        0.000000    0.000000    1.163062
      2          8           0        0.000000    0.000000   -1.163062
      3          6           0        0.000000    0.000000    0.000000
 ---------------------------------------------------------------------
 Rotational constants (GHZ):           0.0000000          11.6788356          11.6788356
 1\1\GINC-R222\FOpt\RB3LYP\def2SVP\C1O2\HTAN2\13-Aug-2025\0\\# opt freq
  b3lyp empiricaldispersion=gd3bj def2svp scrf=(smd,solvent=dichloroeth
 ane) temperature=330.15\\Gaussian job with default settings\\0,1\O,0.,
 0.,1.163062\O,0.,0.,-1.163062\C,0.,0.,0.\\Version=ES64L-G16RevB.01\Sta
 te=1-SGG\HF=-188.4436519\RMSD=7.392e-10\RMSF=7.724e-05\Dipole=0.,0.,0.
 \Quadrupole=1.2182014,1.2182014,-2.4364028,0.,0.,0.\PG=D*H [O(C1),C*(O
 1.O1)]\\@


          EVOLUTION
 IN THE BEGINNING GOD MADE MAN.
 HE WORKED THE DIRT WITH HIS HANDS.
 THEN GOD DECIDED TO GIVE MAN SCIENCE,
 MAN SHOULD BE USEFUL (LIKE AN APPLIANCE.)
 BUT SOON MAN'S KNOWLEDGE GREW TOO GREAT,
 TO THE HEADING SCIENCE HE COULDN'T RELATE
 SO GOD SAID "LETS HAVE DIFFERENT FIELDS,
 WE'LL DIVIDE THEM UP, SEE WHAT IT YIELDS."
 ENTER PHYSICS, CHEMISTRY, BIO
 THEY SPRANG UP AROUND THE NILE.
 BUT CHEMISTRY SURPASSED THE REST
 FAR AND AWAY IT WAS THE BEST.
 EXPERIMENT WAS GOD'S DECREE
 EXPERIMENT DID CHEMISTS WITH LOTS OF GLEE
 BUT SOON THEIR TESTS BEGAN TO BOG,
 THEY FOUND THEMSELVES DEEP IN A FOG.
 "GIVE US SOME HELP" THEY CRIED TO GOD.
 GOD LOOKED AROUND, THEN GAVE THE NOD.
 ENTER EINSTEIN, HEISENBERG, BOHR,
 REACTION PATHS WERE CLEAR ONCE MORE.
 WITH THEORISTS GOD SEND DIRECTION
 AND THEN HE STOPPED, HE'D MADE PERFECTION.
          -- THOMAS A. HOLME, 1981
 Job cpu time:       0 days  0 hours  1 minutes 45.0 seconds.
 Elapsed time:       0 days  0 hours  0 minutes  1.9 seconds.
 File lengths (MBytes):  RWF=     12 Int=      0 D2E=      0 Chk=      2 Scr=      1
 Normal termination of Gaussian 16 at Wed Aug 13 03:34:52 2025.
 Link1:  Proceeding to internal job step number  2.
 -------------------------------------------------------------------
 #N Geom=AllCheck Guess=TCheck SCRF=Check GenChk RB3LYP/def2SVP Freq
 -------------------------------------------------------------------
 1/10=4,29=7,30=1,38=1,40=1,112=330150/1,3;
 2/12=2,40=1/2;
 3/5=43,7=101,11=2,14=-4,25=1,30=1,70=2,71=2,74=-5,116=1,124=41,140=1/1,2,3;
 4/5=101/1;
 5/5=2,38=6,98=1/2;
 8/6=4,10=90,11=11/1;
 11/6=1,8=1,9=11,15=111,16=1/1,2,10;
 10/6=1/2;
 6/7=2,8=2,9=2,10=2,28=1/1;
 7/8=1,10=1,25=1/1,2,3,16;
 1/10=4,30=1/3;
 99//99;
 Structure from the checkpoint file:  "co2_temperature_330p15.chk"
 ----------------------------------
 Gaussian job with default settings
 ----------------------------------
 Charge =  0 Multiplicity = 1
 Redundant internal coordinates found in file.  (old form).
 O,0,0.,0.,1.163062
 O,0,0.,0.,-1.163062
 C,0,0.,0.,0.
 Recover connectivity data from disk.

 GradGradGradGradGradGradGradGradGradGradGradGradGradGradGradGradGradGrad
 Berny optimization.
 Initialization pass.
                           ----------------------------
                           !    Initial Parameters    !
                           ! (Angstroms and Degrees)  !
 --------------------------                            --------------------------
 ! Name  Definition              Value          Derivative Info.                !
 --------------------------------------------------------------------------------
 ! R1    R(1,3)                  1.1631         calculate D2E/DX2 analytically  !
 ! R2    R(2,3)                  1.1631         calculate D2E/DX2 analytically  !
 ! A1    L(1,3,2,-1,-1)        180.0            calculate D2E/DX2 analytically  !
 ! A2    L(1,3,2,-2,-2)        180.0            calculate D2E/DX2 analytically  !
 --------------------------------------------------------------------------------
 Trust Radius=3.00D-01 FncErr=1.00D-07 GrdErr=1.00D-07 EigMax=2.50D+02 EigMin=1.00D-04
 Number of steps in this run=      2 maximum allowed number of steps=      2.
 GradGradGradGradGradGradGradGradGradGradGradGradGradGradGradGradGradGrad

                          Input orientation:                          
 ---------------------------------------------------------------------
 Center     Atomic      Atomic             Coordinates (Angstroms)
 Number     Number       Type             X           Y           Z
 ---------------------------------------------------------------------
      1          8           0        0.000000    0.000000    1.163062
      2          8           0        0.000000    0.000000   -1.163062
      3          6           0        0.000000    0.000000    0.000000
 ---------------------------------------------------------------------
                    Distance matrix (angstroms):
                    1          2          3
     1  O    0.000000
     2  O    2.326124   0.000000
     3  C    1.163062   1.163062   0.000000
 Stoichiometry    CO2
 Framework group  D*H[O(C),C*(O.O)]
 Deg. of freedom     1
 Full point group                 D*H     NOp   8
 Largest Abelian subgroup         D2H     NOp   8
 Largest concise Abelian subgroup C2      NOp   2
                         Standard orientation:                         
 ---------------------------------------------------------------------
 Center     Atomic      Atomic             Coordinates (Angstroms)
 Number     Number       Type             X           Y           Z
 ---------------------------------------------------------------------
      1          8           0        0.000000    0.000000    1.163062
      2          8           0        0.000000    0.000000   -1.163062
      3          6           0        0.000000    0.000000    0.000000
 ---------------------------------------------------------------------
 Rotational constants (GHZ):           0.0000000          11.6788356          11.6788356
 Standard basis: def2SVP (5D, 7F)
 There are    14 symmetry adapted cartesian basis functions of AG  symmetry.
 There are     2 symmetry adapted cartesian basis functions of B1G symmetry.
 There are     4 symmetry adapted cartesian basis functions of B2G symmetry.
 There are     4 symmetry adapted cartesian basis functions of B3G symmetry.
 There are     1 symmetry adapted cartesian basis functions of AU  symmetry.
 There are    10 symmetry adapted cartesian basis functions of B1U symmetry.
 There are     5 symmetry adapted cartesian basis functions of B2U symmetry.
 There are     5 symmetry adapted cartesian basis functions of B3U symmetry.
 There are    12 symmetry adapted basis functions of AG  symmetry.
 There are     2 symmetry adapted basis functions of B1G symmetry.
 There are     4 symmetry adapted basis functions of B2G symmetry.
 There are     4 symmetry adapted basis functions of B3G symmetry.
 There are     1 symmetry adapted basis functions of AU  symmetry.
 There are     9 symmetry adapted basis functions of B1U symmetry.
 There are     5 symmetry adapted basis functions of B2U symmetry.
 There are     5 symmetry adapted basis functions of B3U symmetry.
    42 basis functions,    75 primitive gaussians,    45 cartesian basis functions
    11 alpha electrons       11 beta electrons
       nuclear repulsion energy        58.2382392321 Hartrees.
 NAtoms=    3 NActive=    3 NUniq=    2 SFac= 2.25D+00 NAtFMM=   60 NAOKFM=F Big=F
 Integral buffers will be    131072 words long.
 Raffenetti 2 integral format.
 Two-electron integral symmetry is turned on.
 Nuclear repulsion after empirical dispersion term =       58.2365963264 Hartrees.
 Force inversion solution in PCM.
 ------------------------------------------------------------------------------
 Polarizable Continuum Model (PCM)
 =================================
 Model                : PCM.
 Atomic radii         : SMD-Coulomb.
 Polarization charges : Total charges.
 Charge compensation  : None.
 Solution method      : Matrix inversion.
 Cavity type          : VdW (van der Waals Surface) (Alpha=1.000).
 Cavity algorithm     : GePol (No added spheres)
                        Default sphere list used, NSphG=    3.
                        Lebedev-Laikov grids with approx.  5.0 points / Ang**2.
                        Smoothing algorithm: York/Karplus (Gamma=1.0000).
                        Polarization charges: spherical gaussians, with
                                              point-specific exponents (IZeta= 3).
                        Self-potential: point-specific (ISelfS= 7).
                        Self-field    : sphere-specific E.n sum rule (ISelfD= 2).
 1st derivatives      : Analytical E(r).r(x)/FMM algorithm (CHGder, D1EAlg=3).
                        Cavity 1st derivative terms included.
 2nd derivatives      : Analytical E(r).r(xy)/FMM algorithm (CHGder, D2EAlg=3).
                        Cavity 2nd derivative terms included.
 Solvent              : DiChloroEthane, Eps=  10.125000 Eps(inf)=   2.087447
 ------------------------------------------------------------------------------
 Spheres list:
 ISph  on   Nord     Re0    Alpha      Xe            Ye            Ze
    1   O      1    2.1140  1.000      0.000000      0.000000      1.163062
    2   O      2    2.1140  1.000      0.000000      0.000000     -1.163062
    3   C      3    1.8500  1.000      0.000000      0.000000      0.000000
 ------------------------------------------------------------------------------
 ------------------------------------------------------------------------------
 Atomic radii for non-electrostatic terms: SMD-CDS.
 ------------------------------------------------------------------------------
 Nuclear repulsion after PCM non-electrostatic terms =       58.2401388202 Hartrees.
 One-electron integrals computed using PRISM.
   8 Symmetry operations used in ECPInt.
 ECPInt:  NShTT=     171 NPrTT=     705 LenC2=     171 LenP2D=     625.
 LDataN:  DoStor=T MaxTD1= 4 Len=   56
 NBasis=    42 RedAO= T EigKep=  9.13D-03  NBF=    12     2     4     4     1     9     5     5
 NBsUse=    42 1.00D-06 EigRej= -1.00D+00 NBFU=    12     2     4     4     1     9     5     5
 Initial guess from the checkpoint file:  "co2_temperature_330p15.chk"
 B after Tr=     0.000000    0.000000    0.000000
         Rot=    1.000000    0.000000    0.000000    0.000000 Ang=   0.00 deg.
 Initial guess orbital symmetries:
       Occupied  (SGU) (SGG) (SGG) (SGG) (SGU) (SGG) (SGU) (PIU)
                 (PIU) (PIG) (PIG)
       Virtual   (PIU) (PIU) (SGG) (SGU) (PIU) (PIU) (SGG) (SGU)
                 (SGG) (PIG) (PIG) (SGU) (PIU) (PIU) (SGG) (DLTG)
                 (DLTG) (SGU) (PIG) (PIG) (DLTU) (DLTU) (DLTG)
                 (DLTG) (PIU) (PIU) (SGG) (SGU) (PIG) (PIG) (SGG)
 Keep R1 ints in memory in symmetry-blocked form, NReq=55996592.
 Requested convergence on RMS density matrix=1.00D-08 within 128 cycles.
 Requested convergence on MAX density matrix=1.00D-06.
 Requested convergence on             energy=1.00D-06.
 No special actions if energy rises.
 Inv3:  Mode=1 IEnd=      907500.
 Iteration    1 A*A^-1 deviation from unit magnitude is 3.44D-15 for    102.
 Iteration    1 A*A^-1 deviation from orthogonality  is 1.24D-15 for    178    102.
 Iteration    1 A^-1*A deviation from unit magnitude is 2.66D-15 for    102.
 Iteration    1 A^-1*A deviation from orthogonality  is 9.58D-16 for    413    337.
 Skip diagonalization as Alpha Fock matrix is already diagonal.
 Error on total polarization charges =  0.00080
 SCF Done:  E(RB3LYP) =  -188.443651871     A.U. after    1 cycles
            NFock=  1  Conv=0.00D+00     -V/T= 2.0076
 SMD-CDS (non-electrostatic) energy       (kcal/mol) =       2.22
 (included in total energy above)
 DoSCS=F DFT=T ScalE2(SS,OS)=  1.000000  1.000000
 Range of M.O.s used for correlation:     1    42
 NBasis=    42 NAE=    11 NBE=    11 NFC=     0 NFV=     0
 NROrb=     42 NOA=    11 NOB=    11 NVA=    31 NVB=    31
   8 Symmetry operations used in ECPInt.
 ECPInt:  NShTT=     171 NPrTT=     705 LenC2=     171 LenP2D=     625.
 LDataN:  DoStor=T MaxTD1= 5 Len=  102
 Symmetrizing basis deriv contribution to polar:
 IMax=3 JMax=2 DiffMx= 0.00D+00
 G2DrvN: will do     4 centers at a time, making    1 passes.
 Calling FoFCou, ICntrl=  3107 FMM=F I1Cent=   0 AccDes= 0.00D+00.
 NEqPCM:  Using equilibrium solvation (IEInf=0, Eps=  10.1250, EpsInf=   2.0874)
 G2PCM: DoFxE=T DoFxN=T DoGrad=T DoDP/DQ/DG/TGxP=FFFF NFrqRd=   0 IEInf=0 SqF1=F DoCFld=F IF1Alg=4.
 End of G2Drv F.D. properties file   721 does not exist.
 End of G2Drv F.D. properties file   722 does not exist.
 End of G2Drv F.D. properties file   788 does not exist.
          IDoAtm=111
 NEqPCM:  Using equilibrium solvation (IEInf=0, Eps=  10.1250, EpsInf=   2.0874)
          Differentiating once with respect to electric field.
                with respect to dipole field.
          Differentiating once with respect to nuclear coordinates.
 Keep R1 ints in memory in symmetry-blocked form, NReq=55774782.
          There are     9 degrees of freedom in the 1st order CPHF.  IDoFFX=4 NUNeed=     9.
      9 vectors produced by pass  0 Test12= 3.79D-15 1.11D-08 XBig12= 2.49D+01 3.36D+00.
 AX will form     9 AO Fock derivatives at one time.
      9 vectors produced by pass  1 Test12= 3.79D-15 1.11D-08 XBig12= 8.54D+00 1.31D+00.
      9 vectors produced by pass  2 Test12= 3.79D-15 1.11D-08 XBig12= 3.47D-02 7.49D-02.
      9 vectors produced by pass  3 Test12= 3.79D-15 1.11D-08 XBig12= 1.16D-04 4.11D-03.
      9 vectors produced by pass  4 Test12= 3.79D-15 1.11D-08 XBig12= 1.71D-07 1.86D-04.
      7 vectors produced by pass  5 Test12= 3.79D-15 1.11D-08 XBig12= 3.43D-09 3.29D-05.
      2 vectors produced by pass  6 Test12= 3.79D-15 1.11D-08 XBig12= 9.52D-12 1.29D-06.
      1 vectors produced by pass  7 Test12= 3.79D-15 1.11D-08 XBig12= 6.46D-15 4.59D-08.
 InvSVY:  IOpt=1 It=  1 EMax= 4.02D-16
 Solved reduced A of dimension    55 with     9 vectors.
 Isotropic polarizability for W=    0.000000       13.29 Bohr**3.
 End of Minotr F.D. properties file   721 does not exist.
 End of Minotr F.D. properties file   722 does not exist.
 End of Minotr F.D. properties file   788 does not exist.

 **********************************************************************

            Population analysis using the SCF Density.

 **********************************************************************

 Orbital symmetries:
       Occupied  (SGU) (SGG) (SGG) (SGG) (SGU) (SGG) (SGU) (PIU)
                 (PIU) (PIG) (PIG)
       Virtual   (PIU) (PIU) (SGG) (SGU) (PIU) (PIU) (SGG) (SGU)
                 (SGG) (PIG) (PIG) (SGU) (PIU) (PIU) (SGG) (DLTG)
                 (DLTG) (SGU) (PIG) (PIG) (DLTU) (DLTU) (DLTG)
                 (DLTG) (PIU) (PIU) (SGG) (SGU) (PIG) (PIG) (SGG)
 The electronic state is 1-SGG.
 Alpha  occ. eigenvalues --  -19.21126 -19.21119 -10.37463  -1.14334  -1.10491
 Alpha  occ. eigenvalues --   -0.54951  -0.51302  -0.51189  -0.51189  -0.36735
 Alpha  occ. eigenvalues --   -0.36735
 Alpha virt. eigenvalues --    0.03840   0.03840   0.06983   0.34642   0.42635
 Alpha virt. eigenvalues --    0.42635   0.47193   0.75892   0.80483   0.90422
 Alpha virt. eigenvalues --    0.90422   1.08224   1.09496   1.09496   1.23804
 Alpha virt. eigenvalues --    1.53444   1.53444   1.56883   1.57847   1.57847
 Alpha virt. eigenvalues --    2.55209   2.55209   2.67174   2.67174   2.76796
 Alpha virt. eigenvalues --    2.76796   2.83198   3.53646   3.54476   3.54476
 Alpha virt. eigenvalues --    3.84517
          Condensed to atoms (all electrons):
               1          2          3
     1  O    7.486877  -0.025560   0.685067
     2  O   -0.025560   7.486877   0.685067
     3  C    0.685067   0.685067   4.337096
 Mulliken charges:
               1
     1  O   -0.146385
     2  O   -0.146385
     3  C    0.292769
 Sum of Mulliken charges =  -0.00000
 Mulliken charges with hydrogens summed into heavy atoms:
               1
     1  O   -0.146385
     2  O   -0.146385
     3  C    0.292769
 APT charges:
               1
     1  O   -0.658311
     2  O   -0.658311
     3  C    1.316622
 Sum of APT charges =   0.00000
 APT charges with hydrogens summed into heavy atoms:
               1
     1  O   -0.658311
     2  O   -0.658311
     3  C    1.316622
 Electronic spatial extent (au):  <R**2>=            113.1577
 Charge=              0.0000 electrons
 Dipole moment (field-independent basis, Debye):
    X=             -0.0000    Y=             -0.0000    Z=              0.0000  Tot=              0.0000
 Quadrupole moment (field-independent basis, Debye-Ang):
   XX=            -14.4425   YY=            -14.4425   ZZ=            -19.3581
   XY=              0.0000   XZ=              0.0000   YZ=             -0.0000
 Traceless Quadrupole moment (field-independent basis, Debye-Ang):
   XX=              1.6385   YY=              1.6385   ZZ=             -3.2770
   XY=              0.0000   XZ=              0.0000   YZ=             -0.0000
 Octapole moment (field-independent basis, Debye-Ang**2):
  XXX=             -0.0000  YYY=              0.0000  ZZZ=              0.0000  XYY=             -0.0000
  XXY=              0.0000  XXZ=              0.0000  XZZ=             -0.0000  YZZ=              0.0000
  YYZ=              0.0000  XYZ=             -0.0000
 Hexadecapole moment (field-independent basis, Debye-Ang**3):
 XXXX=            -10.4586 YYYY=            -10.4586 ZZZZ=           -101.1428 XXXY=              0.0000
 XXXZ=              0.0000 YYYX=              0.0000 YYYZ=             -0.0000 ZZZX=              0.0000
 ZZZY=              0.0000 XXYY=             -3.4862 XXZZ=            -17.9761 YYZZ=            -17.9761
 XXYZ=             -0.0000 YYXZ=              0.0000 ZZXY=              0.0000
 N-N= 5.824013882023D+01 E-N=-5.593979123466D+02  KE= 1.870222411842D+02
 Symmetry AG   KE= 1.008165834518D+02
 Symmetry B1G  KE= 9.755513957949D-34
 Symmetry B2G  KE= 4.930414285339D+00
 Symmetry B3G  KE= 4.930414285339D+00
 Symmetry AU   KE= 1.415981404614D-34
 Symmetry B1U  KE= 6.905999361364D+01
 Symmetry B2U  KE= 3.642417774050D+00
 Symmetry B3U  KE= 3.642417774050D+00
  Exact polarizability:   7.908   0.000   7.908  -0.000   0.000  24.053
 Approx polarizability:   8.991  -0.000   8.991  -0.000  -0.000  44.761
   8 Symmetry operations used in ECPInt.
 ECPInt:  NShTT=     171 NPrTT=     705 LenC2=     171 LenP2D=     625.
 LDataN:  DoStor=T MaxTD1= 6 Len=  172
 D2PCM: PCM CHGder 2nd derivatives, FixD1E=F FixD2E=F DoIter=F DoCFld=F I1PDM=0
 Calling FoFJK, ICntrl=    100127 FMM=F ISym2X=1 I1Cent= 0 IOpClX= 0 NMat=1 NMatS=1 NMatT=0.
 Full mass-weighted force constant matrix:
 Low frequencies ---    0.0018    0.0021    0.0021    9.4932    9.4932  647.2854
 Low frequencies ---  647.2854 1390.0047 2452.4181
 Diagonal vibrational polarizability:
        2.7868854       2.7868854       3.6533407
 Harmonic frequencies (cm**-1), IR intensities (KM/Mole), Raman scattering
 activities (A**4/AMU), depolarization ratios for plane and unpolarized
 incident light, reduced masses (AMU), force constants (mDyne/A),
 and normal coordinates:
                      1                      2                      3
                     PIU                    PIU                    SGG
 Frequencies --    647.2854               647.2854              1390.0047
 Red. masses --     12.8774                12.8774                15.9949
 Frc consts  --      3.1788                 3.1788                18.2081
 IR Inten    --     43.3888                43.3888                 0.0000
  Atom  AN      X      Y      Z        X      Y      Z        X      Y      Z
     1   8    -0.33  -0.00  -0.00     0.00  -0.33   0.00    -0.00   0.00   0.71
     2   8    -0.33  -0.00   0.00     0.00  -0.33  -0.00    -0.00   0.00  -0.71
     3   6     0.88   0.00  -0.00    -0.00   0.88  -0.00     0.00  -0.00   0.00
                      4
                     SGU
 Frequencies --   2452.4181
 Red. masses --     12.8774
 Frc consts  --     45.6317
 IR Inten    --    816.4810
  Atom  AN      X      Y      Z
     1   8    -0.00  -0.00  -0.33
     2   8    -0.00  -0.00  -0.33
     3   6     0.00   0.00   0.88

 -------------------
 - Thermochemistry -
 -------------------
 Temperature   330.150 Kelvin.  Pressure   1.00000 Atm.
 Atom     1 has atomic number  8 and mass  15.99491
 Atom     2 has atomic number  8 and mass  15.99491
 Atom     3 has atomic number  6 and mass  12.00000
 Molecular mass:    43.98983 amu.
 Principal axes and moments of inertia in atomic units:
                           1         2         3
     Eigenvalues --     0.00000 154.53092 154.53092
           X           -0.00000   1.00000  -0.00000
           Y            0.00000   0.00000   1.00000
           Z            1.00000   0.00000  -0.00000
 This molecule is a prolate symmetric top.
 Rotational symmetry number  2.
 Rotational temperature (Kelvin)      0.56050
 Rotational constant (GHZ):          11.678836
 Zero-point vibrational energy      30726.0 (Joules/Mol)
                                    7.34370 (Kcal/Mol)
 Warning -- explicit consideration of   2 degrees of freedom as
           vibrations may cause significant error
 Vibrational temperatures:    931.30   931.30  1999.91  3528.48
          (Kelvin)
 
 Zero-point correction=                           0.011703 (Hartree/Particle)
 Thermal correction to Energy=                    0.014705
 Thermal correction to Enthalpy=                  0.015751
 Thermal correction to Gibbs Free Energy=        -0.011634
 Sum of electronic and zero-point Energies=           -188.431949
 Sum of electronic and thermal Energies=              -188.428946
 Sum of electronic and thermal Enthalpies=            -188.427901
 Sum of electronic and thermal Free Energies=         -188.455285
 
                     E (Thermal)             CV                S
                      KCal/Mol        Cal/Mol-Kelvin    Cal/Mol-Kelvin
 Total                    9.228              7.274             52.049
 Electronic               0.000              0.000              0.000
 Translational            0.984              2.981             37.777
 Rotational               0.656              1.987             13.285
 Vibrational              7.588              2.306              0.987
 Vibration     1          1.043              1.065              0.477
 Vibration     2          1.043              1.065              0.477
                       Q            Log10(Q)             Ln(Q)
 Total Bot       0.679863D+05          4.832421         11.127062
 Total V=0       0.493906D+10          9.693644         22.320440
 Vib (Bot)       0.156005D-04         -4.806861        -11.068207
 Vib (Bot)    1  0.259496D+00         -0.585870         -1.349015
 Vib (Bot)    2  0.259496D+00         -0.585870         -1.349015
 Vib (V=0)       0.113334D+01          0.054362          0.125172
 Vib (V=0)    1  0.106333D+01          0.026667          0.061403
 Vib (V=0)    2  0.106333D+01          0.026667          0.061403
 Electronic      0.100000D+01          0.000000          0.000000
 Translational   0.147970D+08          7.170174         16.509935
 Rotational      0.294516D+03          2.469109          5.685334
 ***** Axes restored to original set *****
 -------------------------------------------------------------------
 Center     Atomic                   Forces (Hartrees/Bohr)
 Number     Number              X              Y              Z
 -------------------------------------------------------------------
      1        8          -0.000000000   -0.000000000   -0.000163860
      2        8           0.000000000    0.000000000    0.000163860
      3        6          -0.000000000    0.000000000    0.000000000
 -------------------------------------------------------------------
 Cartesian Forces:  Max     0.000163860 RMS     0.000077244
 FormGI is forming the generalized inverse of G from B-inverse, IUseBI=4.

 GradGradGradGradGradGradGradGradGradGradGradGradGradGradGradGradGradGrad
 Berny optimization.
 Internal  Forces:  Max     0.000163860 RMS     0.000115866
 Search for a local minimum.
 Step number   1 out of a maximum of    2
 All quantities printed in internal units (Hartrees-Bohrs-Radians)
 Second derivative matrix not updated -- analytic derivatives used.
 The second derivative matrix:
                          R1        R2        A1        A2
           R1           1.08131
           R2           0.08821   1.08131
           A1          -0.00000   0.00000   0.16692
           A2          -0.00000  -0.00000  -0.00000   0.16692
 ITU=  0
     Eigenvalues ---    0.16692   0.16692   0.99310   1.16952
 Angle between quadratic step and forces=   0.00 degrees.
 Linear search not attempted -- first point.
 Iteration  1 RMS(Cart)=  0.00009907 RMS(Int)=  0.00000000
 Iteration  2 RMS(Cart)=  0.00000000 RMS(Int)=  0.00000001
 ClnCor:  largest displacement from symmetrization is 4.43D-14 for atom     3.
 Variable       Old X    -DE/DX   Delta X   Delta X   Delta X     New X
                                 (Linear)    (Quad)   (Total)
    R1        2.19787  -0.00016   0.00000  -0.00014  -0.00014   2.19773
    R2        2.19787  -0.00016   0.00000  -0.00014  -0.00014   2.19773
    A1        3.14159   0.00000   0.00000   0.00000   0.00000   3.14159
    A2        3.14159   0.00000   0.00000   0.00000   0.00000   3.14159
         Item               Value     Threshold  Converged?
 Maximum Force            0.000164     0.000450     YES
 RMS     Force            0.000116     0.000300     YES
 Maximum Displacement     0.000140     0.001800     YES
 RMS     Displacement     0.000099     0.001200     YES
 Predicted change in Energy=-2.295818D-08
 Optimization completed.
    -- Stationary point found.
                           ----------------------------
                           !   Optimized Parameters   !
                           ! (Angstroms and Degrees)  !
 --------------------------                            --------------------------
 ! Name  Definition              Value          Derivative Info.                !
 --------------------------------------------------------------------------------
 ! R1    R(1,3)                  1.1631         -DE/DX =   -0.0002              !
 ! R2    R(2,3)                  1.1631         -DE/DX =   -0.0002              !
 ! A1    L(1,3,2,-1,-1)        180.0            -DE/DX =    0.0                 !
 ! A2    L(1,3,2,-2,-2)        180.0            -DE/DX =    0.0                 !
 --------------------------------------------------------------------------------
 GradGradGradGradGradGradGradGradGradGradGradGradGradGradGradGradGradGrad

 Dipole is zero, so no output in dipole orientation.

 ----------------------------------------------------------------------

 Electric dipole moment (input orientation):
 (Debye = 10**-18 statcoulomb cm , SI units = C m)
                  (au)            (Debye)         (10**-30 SI)
   Tot        0.000000D+00      0.000000D+00      0.000000D+00
   x          0.000000D+00      0.000000D+00      0.000000D+00
   y          0.000000D+00      0.000000D+00      0.000000D+00
   z          0.000000D+00      0.000000D+00      0.000000D+00

 Dipole polarizability, Alpha (input orientation).
 (esu units = cm**3 , SI units = C**2 m**2 J**-1)
 Alpha(0;0):
               (au)            (10**-24 esu)      (10**-40 SI)
   iso        0.132900D+02      0.196937D+01      0.219122D+01
   aniso      0.161451D+02      0.239246D+01      0.266198D+01
   xx         0.790823D+01      0.117188D+01      0.130389D+01
   yx         0.000000D+00      0.000000D+00      0.000000D+00
   yy         0.790823D+01      0.117188D+01      0.130389D+01
   zx         0.000000D+00      0.000000D+00      0.000000D+00
   zy         0.000000D+00      0.000000D+00      0.000000D+00
   zz         0.240534D+02      0.356434D+01      0.396587D+01

 ----------------------------------------------------------------------
 1\1\GINC-R222\Freq\RB3LYP\def2SVP\C1O2\HTAN2\13-Aug-2025\0\\#N Geom=Al
 lCheck Guess=TCheck SCRF=Check GenChk RB3LYP/def2SVP Freq\\Gaussian jo
 b with default settings\\0,1\O,0.,0.,1.163062\O,0.,0.,-1.163062\C,0.,0
 .,0.\\Version=ES64L-G16RevB.01\State=1-SGG\HF=-188.4436519\RMSD=0.000e
 +00\RMSF=7.724e-05\ZeroPoint=0.0117029\Thermal=0.0147054\Dipole=0.,0.,
 0.\DipoleDeriv=-0.3116044,0.,0.,0.,-0.3116044,0.,0.,0.,-1.3517235,-0.3
 116044,0.,0.,0.,-0.3116044,0.,0.,0.,-1.3517235,0.6232089,0.,0.,0.,0.62
 32089,0.,0.,0.,2.703447\Polar=7.9082342,0.,7.9082342,0.,0.,24.0533838\
 Quadrupole=1.2182014,1.2182014,-2.4364028,0.,0.,0.\PG=D*H [O(C1),C*(O1
 .O1)]\NImag=0\\0.03461834,0.,0.03461834,0.,0.,1.08130580,0.03456379,0.
 ,0.,0.03461834,0.,0.03456379,0.,0.,0.03461834,0.,0.,-0.08820949,0.,0.,
 1.08130580,-0.06918214,0.,0.,-0.06918214,0.,0.,0.13836428,0.,-0.069182
 14,0.,0.,-0.06918214,0.,0.,0.13836428,0.,0.,-0.99309631,0.,0.,-0.99309
 631,0.,0.,1.98619261\\0.,0.,0.00016386,0.,0.,-0.00016386,0.,0.,0.\\\@


 The lyf so short, the craft so long to lerne.
                             -- Chaucer
 Job cpu time:       0 days  0 hours  3 minutes 58.0 seconds.
 Elapsed time:       0 days  0 hours  0 minutes  4.0 seconds.
 File lengths (MBytes):  RWF=     12 Int=      0 D2E=      0 Chk=      3 Scr=      1
 Normal termination of Gaussian 16 at Wed Aug 13 03:34:56 2025.
