3
co2_pressure1p5.xyz    Empirical formula: CO2    Energy(Hartree): -188.444680    
O        0.0000000000    0.0000000000    1.1630620000
O        0.0000000000    0.0000000000   -1.1630620000
C        0.0000000000    0.0000000000    0.0000000000
