 Entering Gaussian System, Link 0=/jet/home/zli48/programs/g16/g16
 Input=/tmp/interval_nonoverlapping_Ap_A_link_sp_link/interval_nonoverlapping_Ap_A_link_sp_link.com
 Output=/tmp/interval_nonoverlapping_Ap_A_link_sp_link/interval_nonoverlapping_Ap_A_link_sp_link.log
 Initial command:
 /jet/home/zli48/programs/g16/l1.exe "/tmp/Gau-45150.inp" -scrdir="/tmp/"
 Entering Link 1 = /jet/home/zli48/programs/g16/l1.exe PID=     45151.
  
 Copyright (c) 1988-2019, Gaussian, Inc.  All Rights Reserved.
  
 This is part of the Gaussian(R) 16 program.  It is based on
 the Gaussian(R) 09 system (copyright 2009, Gaussian, Inc.),
 the Gaussian(R) 03 system (copyright 2003, Gaussian, Inc.),
 the Gaussian(R) 98 system (copyright 1998, Gaussian, Inc.),
 the Gaussian(R) 94 system (copyright 1995, Gaussian, Inc.),
 the Gaussian 92(TM) system (copyright 1992, Gaussian, Inc.),
 the Gaussian 90(TM) system (copyright 1990, Gaussian, Inc.),
 the Gaussian 88(TM) system (copyright 1988, Gaussian, Inc.),
 the Gaussian 86(TM) system (copyright 1986, Carnegie Mellon
 University), and the Gaussian 82(TM) system (copyright 1983,
 Carnegie Mellon University). Gaussian is a federally registered
 trademark of Gaussian, Inc.
  
 This software contains proprietary and confidential information,
 including trade secrets, belonging to Gaussian, Inc.
  
 This software is provided under written license and may be
 used, copied, transmitted, or stored only in accord with that
 written license.
  
 The following legend is applicable only to US Government
 contracts under FAR:
  
                    RESTRICTED RIGHTS LEGEND
  
 Use, reproduction and disclosure by the US Government is
 subject to restrictions as set forth in subparagraphs (a)
 and (c) of the Commercial Computer Software - Restricted
 Rights clause in FAR 52.227-19.
  
 Gaussian, Inc.
 340 Quinnipiac St., Bldg. 40, Wallingford CT 06492
  
  
 ---------------------------------------------------------------
 Warning -- This program may not be used in any manner that
 competes with the business of Gaussian, Inc. or will provide
 assistance to any competitor of Gaussian, Inc.  The licensee
 of this program is prohibited from giving any competitor of
 Gaussian, Inc. access to this program.  By using this program,
 the user acknowledges that Gaussian, Inc. is engaged in the
 business of creating and licensing software in the field of
 computational chemistry and represents and warrants to the
 licensee that it is not a competitor of Gaussian, Inc. and that
 it will not use this program in any manner prohibited above.
 ---------------------------------------------------------------
  

 Cite this work as:
 Gaussian 16, Revision C.01,
 M. J. Frisch, G. W. Trucks, H. B. Schlegel, G. E. Scuseria, 
 M. A. Robb, J. R. Cheeseman, G. Scalmani, V. Barone, 
 G. A. Petersson, H. Nakatsuji, X. Li, M. Caricato, A. V. Marenich, 
 J. Bloino, B. G. Janesko, R. Gomperts, B. Mennucci, H. P. Hratchian, 
 J. V. Ortiz, A. F. Izmaylov, J. L. Sonnenberg, D. Williams-Young, 
 F. Ding, F. Lipparini, F. Egidi, J. Goings, B. Peng, A. Petrone, 
 T. Henderson, D. Ranasinghe, V. G. Zakrzewski, J. Gao, N. Rega, 
 G. Zheng, W. Liang, M. Hada, M. Ehara, K. Toyota, R. Fukuda, 
 J. Hasegawa, M. Ishida, T. Nakajima, Y. Honda, O. Kitao, H. Nakai, 
 T. Vreven, K. Throssell, J. A. Montgomery, Jr., J. E. Peralta, 
 F. Ogliaro, M. J. Bearpark, J. J. Heyd, E. N. Brothers, K. N. Kudin, 
 V. N. Staroverov, T. A. Keith, R. Kobayashi, J. Normand, 
 K. Raghavachari, A. P. Rendell, J. C. Burant, S. S. Iyengar, 
 J. Tomasi, M. Cossi, J. M. Millam, M. Klene, C. Adamo, R. Cammi, 
 J. W. Ochterski, R. L. Martin, K. Morokuma, O. Farkas, 
 J. B. Foresman, and D. J. Fox, Gaussian, Inc., Wallingford CT, 2019.
 
 ******************************************
 Gaussian 16:  ES64L-G16RevC.01  3-Jul-2019
                20-Jul-2025 
 ******************************************
 %chk=interval_nonoverlapping_Ap_A_link_sp_link.chk
 %nprocshared=64
 Will use up to   64 processors via shared memory.
 %mem=120GB
 -------------------------------------------------------------
 # uMN15 def2svp scrf=(smd,solvent=water) stable=opt guess=mix
 -------------------------------------------------------------
 1/38=1,172=1/1;
 2/12=2,17=6,18=5,40=1/2;
 3/5=43,7=101,11=2,25=1,30=1,70=32201,72=1,74=-73,116=2/1,2,3;
 4/13=-1/1;
 5/5=2,38=5,53=1/2;
 6/7=2,8=2,9=2,10=2,28=1/1;
 8/6=1,10=90,11=11/1;
 9/8=-3,42=1,46=1/14;
 5/5=2,8=3,17=40,38=5,53=1/8(-2);
 6/7=2,8=2,9=2,10=2,28=1/1;
 99/5=1,9=1/99;
 ----------------------------------
 Gaussian job with default settings
 ----------------------------------
 Symbolic Z-matrix:
 Charge =  0 Multiplicity = 1
 O                     2.33067  -0.01863  -11.49727 
 C                     2.5087    1.37371  -11.61752 
 C                     1.37671   2.113    -10.89165 
 O                     0.15484   2.03336  -11.62133 
 C                     1.0929    1.53333  -9.49859 
 O                     0.76142   2.61011  -8.62804 
 C                    -0.10186   0.62657  -9.73395 
 C                    -0.81654   1.29128  -10.90965 
 N                    -1.45472   0.35237  -11.80873 
 C                    -2.82427   0.47056  -12.06691 
 O                    -3.49331   1.26781  -11.39611 
 N                    -3.36692  -0.26736  -13.037 
 C                    -2.64437  -1.16864  -13.70884 
 N                    -3.22091  -1.84022  -14.69072 
 C                    -1.26607  -1.37506  -13.39594 
 C                    -0.71084  -0.57373  -12.46307 
 P                     0.66288   2.32653  -7.04919 
 O                    -0.11253   3.62453  -6.54767 
 C                    -1.35954   4.03914  -7.06989 
 C                    -2.49305   3.05606  -6.80891 
 O                    -2.43323   1.96927  -7.70653 
 C                    -2.51509   2.43409  -5.39361 
 O                    -3.40665   3.2078   -4.61068 
 C                    -2.9564    0.98784  -5.6377 
 C                    -3.27757   0.96598  -7.13967 
 N                    -3.04875  -0.27401  -7.80677 
 C                    -1.92094  -1.06548  -7.78768 
 N                    -1.91086  -1.97045  -8.71485 
 C                    -3.08204  -1.79321  -9.41314 
 C                    -3.59668  -2.41532  -10.58376 
 O                    -3.0605   -3.27918  -11.27836 
 N                    -4.84373  -1.91701  -10.93128 
 C                    -5.50172  -0.91521  -10.27603 
 N                    -6.67316  -0.51486  -10.77839 
 N                    -5.01274  -0.29959  -9.21901 
 C                    -3.80283  -0.73965  -8.84586 
 P                    -3.93089   2.64893  -3.1953 
 O                    -5.32191   1.94329  -3.50281 
 C                    -6.25545   2.63413  -4.32467 
 C                    -7.16358   1.61766  -5.00204 
 O                    -6.40696   0.72465  -5.79621 
 C                    -7.96758   0.74526  -4.00919 
 O                    -9.29387   1.25275  -3.98489 
 C                    -7.85084  -0.67084  -4.57562 
 C                    -7.19768  -0.43845  -5.9519 
 P                    -10.23746   0.82477  -2.75781 
 O                    -11.19297  -0.32129  -3.30098 
 C                    -11.93954  -0.08054  -4.48208 
 C                    -12.02498  -1.34812  -5.33657 
 C                    -12.58012  -2.54339  -4.53306 
 O                    -13.21297  -3.43188  -5.45204 
 P                    -14.53602  -4.18279  -4.81386 
 O                    -15.26519  -4.60053  -6.20974 
 C                    -14.57037  -5.16375  -7.29107 
 C                    -14.00208  -6.55384  -7.03097 
 C                    -14.91536  -7.48816  -6.20984 
 O                    -15.57622  -8.32587  -7.12726 
 C                    -13.95289  -8.20526  -5.25779 
 P                    -16.66397  -9.41646  -6.55427 
 O                    -15.75079  -10.78491  -6.45406 
 C                    -15.30325  -11.33314  -7.67786 
 C                    -13.80396  -11.63324  -7.59908 
 O                    -13.11169  -10.41391  -7.54653 
 C                    -13.55528  -12.58427  -6.4024 
 O                    -13.70735  -13.88416  -6.93608 
 P                    -13.68975  -15.16368  -5.90372 
 O                    -14.3266  -16.29477  -6.63062 
 O                    -12.07913  -15.45708  -5.79122 
 C                    -11.44616  -16.22497  -6.79054 
 C                    -10.62809  -17.34312  -6.12998 
 O                    -9.66317  -16.81758  -5.23643 
 C                    -11.50236  -18.29261  -5.30104 
 C                    -11.40945  -17.71507  -3.89378 
 C                    -10.0792  -16.95949  -3.88109 
 C                     2.70946  -14.85963  -2.39643 
 P                     0.65932  -14.15052  -6.31219 
 O                     1.36409  -12.87866  -6.12751 
 O                    -0.65285  -13.94352  -7.18095 
 C                    -1.48132  -15.0567  -7.50407 
 C                     2.18133  -15.00466  -3.8305 
 O                     2.85221  -16.0401  -4.53614 
 C                     0.69243  -15.35458  -3.88814 
 O                     0.02132  -14.82425  -5.02013 
 C                     0.71756  -16.88323  -3.94446 
 C                     2.03252  -17.18034  -4.67672 
 P                    -3.06626  -12.96949  -11.91849 
 O                    -3.29922  -11.52613  -11.72476 
 O                    -4.16488  -13.69339  -12.82083 
 C                    -5.48831  -13.19477  -12.83697 
 C                    -5.9692   -13.07943  -14.29632 
 O                    -5.5986   -14.20291  -15.08083 
 C                    -7.50118  -13.02947  -14.35175 
 O                    -7.97961  -12.35771  -15.5077 
 C                    -7.873    -14.50519  -14.47684 
 C                    -6.65555  -15.10964  -15.2015 
 P                    -7.78895  -10.76903  -15.63813 
 O                    -6.41113  -10.28072  -15.72952 
 O                    -8.49056  -10.14309  -14.3581 
 C                    -9.85176  -10.37005  -14.02584 
 C                    -10.6148  -9.03973  -14.02255 
 O                    -10.04073  -8.14665  -13.07958 
 C                    -10.59798  -8.32399  -15.38056 
 O                    -11.90047  -7.76356  -15.56753 
 C                    -9.49083  -7.28821  -15.22975 
 C                    -9.43844  -7.02773  -13.72011 
 P                    -12.28017  -6.92558  -16.85641 
 O                    -11.63931  -5.45681  -16.64557 
 C                    -12.22207  -4.69224  -15.608 
 C                    -11.2963  -3.53073  -15.28354 
 O                    -10.10615  -4.00688  -14.68916 
 C                    -10.8746  -2.72166  -16.53737 
 O                    -11.34997  -1.38294  -16.46607 
 C                    -9.3501   -2.73694  -16.48684 
 C                    -9.11197  -3.03123  -15.00313 
 N                    -7.81332  -3.49457  -14.62877 
 C                    -7.17385  -2.88049  -13.53067 
 O                    -7.76471  -1.97309  -12.93023 
 N                    -5.96159  -3.2895   -13.1806 
 C                    -5.32513  -4.2629   -13.84463 
 N                    -4.10791  -4.59129  -13.46776 
 C                    -5.96163  -4.91905  -14.94764 
 C                    -7.19753  -4.50729  -15.29081 
 P                    -12.91134  -1.14988  -16.6401 
 O                    -12.99802   0.41727  -16.86503 
 C                    -13.69324   1.24157  -15.93066 
 C                    -12.78099   2.31695  -15.35234 
 O                    -11.70964   1.75101  -14.61275 
 C                    -12.15183   3.22674  -16.42191 
 O                    -13.0512   4.25499  -16.72198 
 C                    -10.86381   3.68609  -15.72198 
 C                    -10.52686   2.51863  -14.78616 
 N                    -9.47685   1.67402  -15.30077 
 C                    -9.48636   0.90337  -16.43265 
 N                    -8.44284   0.14076  -16.54836 
 C                    -7.67892   0.39809  -15.43228 
 C                    -6.46266  -0.16806  -14.95587 
 O                    -5.85609  -1.14237  -15.41785 
 N                    -5.97142   0.50628  -13.85425 
 C                    -6.62817   1.51453  -13.2007 
 N                    -5.99576   2.13036  -12.2095 
 N                    -7.83201   1.94459  -13.54749 
 C                    -8.31398   1.36722  -14.65374 
 H                     0.33691  -0.60316  -12.20128 
 H                    -0.69383  -2.12359  -13.91089 
 H                    -4.19133  -1.65899  -14.94056 
 H                    -2.6912   -2.52314  -15.20415 
 H                    -1.61402   1.96615  -10.56544 
 H                    -0.73501   0.60148  -8.85633 
 H                     0.22374  -0.37942  -9.98987 
 H                     1.94757   0.9908   -9.09225 
 H                     1.63883   3.17389  -10.81642 
 H                     2.48403   1.68008  -12.67025 
 H                     3.45721   1.68565  -11.16724 
 H                     3.10321  -0.47125  -11.86607 
 H                    -1.12531  -0.90755  -7.08718 
 H                    -5.28559  -2.33855  -11.76809 
 H                    -7.12174  -1.05978  -11.51017 
 H                    -7.2521    0.06111  -10.19375 
 H                    -4.3306    1.22929  -7.32577 
 H                    -3.82922   0.74176  -5.04177 
 H                    -2.13768   0.30881  -5.41585 
 H                    -1.52577   2.46706  -4.93167 
 H                    -3.44705   3.58854  -6.95266 
 H                    -1.27682   4.18606  -8.14934 
 H                    -1.57538   4.98428  -6.56876 
 H                    -7.97334  -0.2777   -6.71514 
 H                    -8.82308  -1.14916  -4.67093 
 H                    -7.20771  -1.27167  -3.93749 
 H                    -7.56314   0.79943  -2.99594 
 H                    -7.89243   2.15175  -5.62948 
 H                    -5.71961   3.2134   -5.07866 
 H                    -6.85847   3.30178  -3.7074 
 H                    -13.36152  -2.1667   -3.85913 
 H                    -12.75492  -1.14956  -6.13537 
 H                    -11.45274   0.69994  -5.07075 
 H                    -12.94742   0.23306  -4.20496 
 H                    -14.13023  -9.27761  -5.28128 
 H                    -14.09341  -7.81669  -4.25034 
 H                    -15.66165  -6.92363  -5.6403 
 H                    -13.8475  -7.05273  -8.00411 
 H                    -13.74454  -4.50658  -7.57947 
 H                    -15.30569  -5.23495  -8.09708 
 H                    -14.33838  -12.41658  -5.64978 
 H                    -13.53201  -12.18374  -8.51456 
 H                    -15.51314  -10.62435  -8.48301 
 H                    -15.84471  -12.26811  -7.85568 
 H                    -9.28217  -17.54578  -3.39759 
 H                    -11.43079  -18.49893  -3.14224 
 H                    -12.25656  -17.05073  -3.73875 
 H                    -12.53382  -18.29085  -5.66955 
 H                    -10.08852  -17.88792  -6.91232 
 H                    -10.77645  -15.56762  -7.35384 
 H                    -12.20421  -16.64756  -7.4564 
 H                     2.20116  -15.52463  -1.69374 
 H                     3.78149  -15.06779  -2.3935 
 H                     1.87709  -17.37852  -5.74485 
 H                    -0.14172  -17.27893  -4.4778 
 H                     0.73574  -17.30043  -2.93916 
 H                     0.14586  -14.97656  -3.02168 
 H                     2.38591  -14.0637  -4.34901 
 H                    -6.8698   -15.27687  -16.26577 
 H                    -8.78686  -14.64274  -15.04743 
 H                    -7.99239  -14.955   -13.49272 
 H                    -7.91766  -12.5522  -13.46179 
 H                    -5.51485  -12.20615  -14.76956 
 H                    -9.99704  -6.12186  -13.44096 
 H                    -9.719    -6.37776  -15.77357 
 H                    -8.55113  -7.71486  -15.57757 
 H                    -10.40781  -9.00835  -16.20689 
 H                    -11.65108  -9.23043  -13.71956 
 H                    -9.87801  -10.7774  -13.01254 
 H                    -10.31694  -11.06371  -14.72655 
 H                    -7.75868  -4.95215  -16.09617 
 H                    -5.46806  -5.71686  -15.47216 
 H                    -3.67775  -4.12141  -12.66142 
 H                    -3.64689  -5.36644  -13.91595 
 H                    -9.30278  -2.12305  -14.40786 
 H                    -8.91992  -1.78058  -16.7869 
 H                    -8.96849  -3.54251  -17.109 
 H                    -11.26817  -3.18405  -17.44416 
 H                    -11.81275  -2.8504   -14.59203 
 H                    -12.36188  -5.31141  -14.71711 
 H                    -13.19626  -4.31077  -15.92274 
 H                    -10.2913   0.92262  -17.13735 
 H                    -5.0485    0.18698  -13.48063 
 H                    -5.10223   1.78404  -11.85351 
 H                    -6.51275   2.81783  -11.69052 
 H                    -10.1677   2.84683  -13.80276 
 H                    -11.0842   4.57871  -15.13751 
 H                    -10.04496   3.88534  -16.40797 
 H                    -11.92688   2.62449  -17.31146 
 H                    -12.7171   4.78144  -17.46383 
 H                    -13.39342   2.94221  -14.68467 
 H                    -14.09606   0.61483  -15.13222 
 H                    -14.50425   1.73654  -16.4698 
 O                     2.48819  -13.51153  -1.99567 
 O                    -11.07393  -19.63032  -5.40647 
 N                    -6.29244  -16.42109  -14.65525 
 C                    -6.99308  -17.50236  -15.12522 
 O                    -7.88333  -17.40128  -15.95656 
 N                    -6.62387  -18.70554  -14.59159 
 C                    -5.64793  -18.94168  -13.63063 
 O                    -5.44694  -20.08169  -13.23927 
 C                    -4.94587  -17.74905  -13.195 
 C                    -3.85928  -17.88469  -12.1784 
 C                    -5.29571  -16.56175  -13.7298 
 H                    -4.77952  -15.65024  -13.47327 
 H                    -7.13198  -19.51596  -14.93367 
 H                    -3.44348  -16.91137  -11.93936 
 H                    -4.25722  -18.35299  -11.28045 
 H                    -3.07912  -18.53841  -12.56216 
 P                     2.83462  -13.11117  -0.49175 
 O                     2.71459  -11.67396  -0.25125 
 O                     1.8616   -14.02823   0.40562 
 C                     0.74684  -13.39395   1.02109 
 C                    -0.04618  -14.48389   1.75871 
 H                     1.12447  -12.62248   1.68862 
 C                    -0.24646  -12.82219   0.00599 
 C                    -0.60592  -14.06355   3.13621 
 H                     0.57299  -15.37572   1.88596 
 O                    -1.08597  -14.8611   0.86967 
 C                    -1.43138  -13.79921   0.01821 
 H                    -0.55769  -11.82493   0.29928 
 H                     0.22246  -12.77527  -0.97308 
 H                    -1.66184  -14.35362   3.16294 
 H                    -0.07941  -14.584    3.93958 
 H                    -1.66909  -14.24271  -0.95488 
 O                    -0.53657  -12.66368   3.36384 
 O                    -13.7846  -1.66963  -15.57043 
 O                    -13.7298  -6.89351  -17.07317 
 O                    -17.06402  -9.07618  -5.16496 
 O                    -14.11164  -5.35688  -3.99228 
 O                    -9.50487   0.42205  -1.55583 
 O                     0.17211   1.00672  -6.64748 
 O                    -10.75184  -1.59023  -5.88868 
 H                    -10.82813  -2.25864  -6.57954 
 O                    -2.99934   1.77667  -2.48003 
 C                    -12.58617  -7.80459  -5.82365 
 H                    -12.34054  -8.48527  -6.65287 
 O                    -12.76958  -6.49615  -6.35378 
 C                     3.22797  -18.38325  -2.90012 
 C                     2.92948  -19.41458  -5.03147 
 C                     3.92548  -19.41575  -2.38746 
 H                     3.04164  -17.49359  -2.32095 
 C                     4.16858  -20.57286  -3.23013 
 N                     2.72431  -18.36233  -4.17238 
 O                     2.51087  -19.43232  -6.17733 
 O                     4.78494  -21.5794  -2.91127 
 C                     4.46542  -19.42842  -0.99519 
 H                     5.54453  -19.56615  -1.02231 
 H                     4.22507  -18.50707  -0.47705 
 H                     4.05235  -20.27557  -0.45058 
 N                     3.6342   -20.46342  -4.50455 
 O                    -13.16349  -1.76163  -18.07599 
 H                    -14.08017  -1.81377  -18.37627 
 O                    -11.36472  -7.50454  -17.98685 
 H                    -11.60165  -7.28329  -18.89859 
 O                    -8.73633  -10.45395  -16.84933 
 H                    -8.40732  -10.71436  -17.72012 
 O                    -1.70086  -13.38676  -12.57119 
 H                    -1.37721  -12.83852  -13.29814 
 O                     1.48674  -15.29278  -7.03271 
 H                     2.24627  -14.97674  -7.53418 
 O                     4.23641  -13.79732  -0.27144 
 H                     4.78309  -13.42967   0.43196 
 O                     2.09499   2.59257  -6.46313 
 H                     2.46865   3.47677  -6.57496 
 O                    -4.37231   3.98919  -2.49881 
 H                    -3.68101   4.48411  -2.04223 
 O                    -11.19896   2.06685  -2.64855 
 H                    -10.88267   2.79748  -2.10032 
 O                    -15.41827  -3.17363  -4.1706 
 O                    -17.66326  -9.59007  -7.6436 
 O                    -14.13821  -14.74887  -4.54665 
 O                    -4.24699  -11.08174   8.81814 
 C                    -3.08102  -11.81829   9.10438 
 H                    -3.41325  -12.76785   9.52986 
 H                    -2.46077  -11.29897   9.84075 
 C                    -2.22492  -12.13525   7.85831 
 H                    -1.23023  -12.4547   8.19754 
 O                    -2.78395  -13.22227   7.10595 
 C                    -2.9798   -12.8386   5.77113 
 H                    -2.41125  -13.49958   5.10637 
 C                    -2.1235   -11.00973   6.87636 
 H                    -1.75079  -10.04806   7.16813 
 C                    -2.54365  -11.40354   5.68781 
 H                    -2.61291  -10.85447   4.77103 
 H                     0.51611  -10.04842   4.97172 
 P                    -9.80993  -20.29586  -4.66116 
 O                    -9.70321  -20.04583  -3.21979 
 O                    -10.08994  -21.80024  -4.97959 
 O                    -8.56437  -20.00107  -5.60264 
 C                    -7.37326  -19.24213  -5.41484 
 C                    -6.66425  -19.42101  -4.07645 
 H                    -5.59679  -19.19372  -4.22975 
 O                    -7.19741  -18.49637  -3.15067 
 C                    -6.79658  -18.93526  -1.86975 
 H                    -5.75412  -18.63086  -1.68273 
 C                    -6.72616  -20.80919  -3.39808 
 H                    -7.58485  -21.37841  -3.77432 
 C                    -6.9304   -20.46705  -1.90433 
 H                    -7.93097  -20.75347  -1.58765 
 H                    -6.18135  -20.94464  -1.2783 
 O                    -5.52381  -21.4707  -3.67292 
 P                     0.51579  -12.14635   4.44375 
 O                     0.3865   -12.66872   5.8164 
 O                     0.27621  -10.61118   4.22807 
 O                     1.92704  -12.48013   3.79291 
 H                     2.62761  -12.67174   4.42558 
 H                    -7.59746  -18.17545  -5.51263 
 H                    -6.72889  -19.58403  -6.22701 
 H                    -10.13577  -22.05418  -5.91153 
 H                    -5.57255  -22.39119  -3.37721 
 H                    -4.02169  -10.14754   8.69898 
 N                    -6.37735  -1.52623  -6.42394 
 C                    -5.22715  -1.86622  -5.75478 
 C                    -6.75143  -2.18468  -7.57503 
 H                    -5.02202  -1.25982  -4.88532 
 C                    -4.40658  -2.8624   -6.14605 
 N                    -5.92692  -3.19776  -7.95807 
 O                    -7.76791  -1.90574  -8.19762 
 C                    -3.14936  -3.23133  -5.42915 
 C                    -4.75846  -3.60245  -7.34541 
 H                    -6.21209  -3.71649  -8.82487 
 H                    -3.05111  -2.65698  -4.51616 
 H                    -3.14785  -4.29658  -5.21599 
 H                    -2.30252  -3.03525  -6.08364 
 O                    -4.11762  -4.53392  -7.813 
 N                    -8.11031  -6.84129  -13.20141 
 C                    -6.9593   -7.54587  -13.46522 
 C                    -7.7905   -5.9903   -12.17722 
 H                    -6.90412  -8.3178   -14.20599 
 N                    -5.95879  -7.20467  -12.71459 
 C                    -6.44337  -6.2281   -11.88142 
 N                    -8.56922  -5.093    -11.55446 
 C                    -5.87757  -5.52142  -10.79634 
 C                    -7.92887  -4.45757  -10.59323 
 N                    -4.64796  -5.71894  -10.3529 
 N                    -6.68446  -4.63266  -10.17657 
 H                    -8.49903  -3.70423  -10.06176 
 H                    -4.30828  -5.22588  -9.52781 
 H                    -4.03986  -6.32273  -10.88059 
 N                    -10.08312  -15.69912  -3.16534 
 C                    -11.19004  -14.95039  -2.88465 
 C                    -8.84059  -15.25215  -2.67327 
 H                    -12.1034  -15.19435  -3.4051 
 C                    -11.17627  -13.92454  -2.00944 
 N                    -8.82537  -14.2826  -1.76447 
 O                    -7.79782  -15.76409  -3.07894 
 C                    -12.40392  -13.11725  -1.72621 
 C                    -9.92404  -13.63318  -1.32586 
 H                    -13.27677  -13.58101  -2.184 
 H                    -12.55278  -13.02572  -0.65196 
 H                    -12.30452  -12.11383  -2.14015 
 O                    -9.81006  -12.81334  -0.39876 
 N                    -2.6758   -13.15983   0.42772 
 C                    -2.93862  -12.26376   1.42833 
 C                    -3.87919  -13.46173  -0.11799 
 H                    -2.17388  -11.87437   2.07117 
 N                    -4.2      -11.96327   1.54182 
 C                    -4.83602  -12.70822   0.58601 
 N                    -4.13139  -14.2941  -1.14646 
 C                    -6.19412  -12.88     0.23069 
 C                    -5.38653  -14.40087  -1.43453 
 N                    -7.22083  -12.28424   0.79646 
 N                    -6.38342  -13.74131  -0.80011 
 H                    -5.70595  -15.05842  -2.23064 
 H                    -8.17537  -12.48006   0.4855 
 H                    -7.0653   -11.68704   1.5931 
 N                    -7.58293  -18.2534  -0.88627 
 C                    -8.94487  -18.2064  -0.77472 
 C                    -7.11023  -17.30417  -0.02419 
 H                    -9.58177  -18.84802  -1.34987 
 N                    -9.37452  -17.33632   0.08957 
 C                    -8.23786  -16.73998   0.5854 
 N                    -5.83908  -16.99883   0.26588 
 C                    -8.01473  -15.73729   1.55643 
 C                    -5.7478   -16.07045   1.19586 
 N                    -8.97307  -15.09935   2.21214 
 N                    -6.72688  -15.43733   1.82567 
 H                    -4.74685  -15.78906   1.49584 
 H                    -8.744    -14.44398   2.96849 
 H                    -9.9295   -15.31173   1.99303 
 N                    -4.38582  -13.00456   5.37993 
 C                    -5.3586   -12.47873   6.17805 
 C                    -4.69646  -13.74139   4.26433 
 H                    -5.00948  -11.96654   7.06419 
 C                    -6.67567  -12.59753   5.91149 
 N                    -6.02826  -13.83227   3.97886 
 O                    -3.8482   -14.26473   3.55515 
 C                    -7.73738  -12.02278   6.7908 
 C                    -7.06694  -13.32139   4.72241 
 H                    -6.28187  -14.404    3.14125 
 H                    -8.25601  -11.21816   6.27383 
 H                    -8.47876  -12.7866   7.0175 
 H                    -7.30549  -11.64716   7.71221 
 O                    -8.23127  -13.49031   4.35616 
 C                    -2.64663  -14.57724  -8.3749 
 H                    -3.18677  -15.45053  -8.75422 
 O                    -3.55005  -13.79556  -7.60109 
 C                    -3.5876   -12.46647  -8.09364 
 C                    -2.19848  -13.67564  -9.53925 
 H                    -1.19549  -13.91102  -9.89467 
 C                    -2.31952  -12.28825  -8.92583 
 H                    -1.46067  -12.12464  -8.27948 
 H                    -2.42016  -11.51327  -9.67664 
 O                    -3.12537  -13.8752  -10.61095 
 N                    -11.47675  -7.80856  -4.91899 
 C                    -11.42388  -6.9481   -3.86832 
 C                    -10.38364  -8.64853  -5.19745 
 H                    -12.32732  -6.38075  -3.70156 
 C                    -10.29808  -6.8294   -3.12978 
 N                    -9.24834  -8.46516  -4.53891 
 O                    -10.51495  -9.5382   -6.0555 
 H                    -10.26018  -6.15069  -2.29652 
 C                    -9.14861  -7.57432  -3.53803 
 N                    -7.98111  -7.42348  -2.94833 
 H                    -7.15959  -7.95972  -3.25678 
 H                    -7.91039  -6.7628   -2.19119 
 N                    -3.73301  -11.54436  -7.00214 
 C                    -2.82642  -11.05828  -6.09972 
 C                    -4.92418  -10.97847  -6.67564 
 H                    -1.79722  -11.35737  -6.08706 
 N                    -3.3487   -10.21774  -5.25017 
 C                    -4.68791  -10.15954  -5.56664 
 N                    -6.08783  -11.16762  -7.30818 
 C                    -5.80945  -9.54763  -4.94792 
 C                    -7.09708  -10.50657  -6.78883 
 O                    -5.84197  -8.94014  -3.86745 
 N                    -6.97768  -9.73321  -5.6654 
 N                    -8.28298  -10.54726  -7.4022 
 H                    -7.83573  -9.30222  -5.27406 
 H                    -9.11092  -10.19171  -6.93117 
 H                    -8.41719  -11.27893  -8.07965 
 H                    -7.3645   -13.93317  -1.12796 
 H                     3.78511  -21.25045  -5.12882 
 H                    -12.16286  -10.58083  -7.41295 
 O                    -1.14039  -7.27384  -4.25272 
 C                     0.49453  -8.15703  -5.63572 
 C                     0.09333  -9.61773  -7.17905 
 C                     0.08192  -7.13124  -4.67809 
 N                     1.68615  -8.67099  -6.00073 
 H                    -0.46076  -10.20646  -7.87788 
 C                     1.44375  -9.5881   -6.97476 
 C                     0.86404  -6.05782  -4.32781 
 C                     2.99783  -8.37347  -5.44708 
 H                     2.2164   -10.15929  -7.44113 
 H                     1.87457  -5.98475  -4.69028 
 C                     3.8072   -9.6556   -5.2611 
 H                     4.66228  -9.44812  -4.6253 
 H                     3.20923  -10.43268  -4.79546 
 H                     4.18062  -10.02615  -6.21114 
 N                    -0.487    -8.72831  -6.34192 
 C                     3.7307   -7.39301  -6.36309 
 H                     4.6852   -7.12317  -5.9219 
 H                     3.9183   -7.84908  -7.33172 
 H                     3.14995  -6.48846  -6.52133 
 C                    -11.53983  -3.28956  -3.69515 
 H                    -12.10559  -4.06152  -3.16465 
 H                    -11.08867  -2.60467  -2.97833 
 N                    -9.30726  -3.96809  -4.07231 
 O                    -8.32992  -4.66319  -4.77382 
 C                    -7.0891   -4.42111  -4.08226 
 C                    -6.02477  -5.42717  -4.39563 
 C                    -5.94827  -6.07762  -5.62018 
 C                    -5.01497  -5.64856  -3.45904 
 C                    -4.85517  -6.90198  -5.8823 
 H                    -6.71761  -5.91724  -6.35859 
 C                    -3.95862  -6.46941  -3.80231 
 C                    -4.66006  -7.62277  -7.14659 
 N                    -3.88337  -7.06042  -4.9823 
 H                    -3.12081  -6.65111  -3.14668 
 C                    -5.69286  -7.90923  -8.03468 
 N                    -3.40977  -8.03494  -7.37756 
 Cu                   -2.26761  -8.10529  -5.62903 
 C                    -5.42986  -8.65561  -9.17818 
 H                    -6.70255  -7.58786  -7.82699 
 C                    -3.13941  -8.68558  -8.49737 
 C                    -4.10849  -9.02515  -9.42248 
 C                    -6.51656  -9.10053  -10.09427 
 H                    -2.10267  -8.93688  -8.65326 
 H                    -3.86112  -9.5792   -10.31451 
 H                    -6.82092  -10.10758  -9.80986 
 H                    -7.39274  -8.45684  -10.02646 
 H                    -6.16878  -9.12374  -11.12413 
 C                    -10.48925  -3.96139  -4.50889 
 H                    -10.81695  -4.4759   -5.41639 
 C                     0.36328  -4.9515   -3.49069 
 H                    -0.69724  -5.06921  -3.29648 
 H                    -5.04478  -5.16378  -2.49844 
 H                    -6.71842  -3.433    -4.387 
 H                    -7.30665  -4.38566  -3.0123 
 H                     2.82972  -7.91543  -4.46903 
 H                     0.91282  -4.90724  -2.55022 
 H                     0.54386  -4.00204  -3.99404 
 H                    -5.51528  -12.20354  -12.37684 
 H                    -6.12103  -13.88368  -12.27099 
 H                    -0.89836  -15.81015  -8.03667 
 H                    -1.88685  -15.48425  -6.58647 
 H                    -4.49016  -12.33436  -8.71004 
 O                    -8.94941  -13.54075  -6.85054 
 C                    -7.87423  -14.18248  -6.15912 
 C                    -7.20071  -13.35477  -5.10079 
 C                    -5.82096  -13.42829  -4.92201 
 C                    -7.27506  -11.77656  -3.28912 
 C                    -5.24378  -12.66492  -3.92248 
 H                    -5.21773  -14.05435  -5.55914 
 C                    -7.96011  -10.87156  -2.35791 
 N                    -5.9487   -11.85862  -3.14569 
 H                    -4.1807   -12.67536  -3.72984 
 C                    -9.33355  -10.64411  -2.36562 
 N                    -7.17114  -10.27715  -1.45877 
 Cu                   -5.26847  -10.2816  -2.0629 
 C                    -9.90199  -9.81702  -1.4029 
 H                    -9.96665  -11.10726  -3.10859 
 C                    -9.05729  -9.25528  -0.44747 
 C                    -11.36714  -9.55041  -1.36016 
 H                    -9.46885  -8.63805   0.33312 
 H                    -11.84339  -9.73012  -2.32562 
 H                    -11.8293  -10.21816  -0.63263 
 H                    -11.57723  -8.52726  -1.0584 
 C                    -12.20907  -12.39744  -5.70199 
 H                    -12.2143  -13.0076  -4.79665 
 H                    -12.1253  -11.3436  -5.412 
 N                    -4.43717  -8.67026  -1.26947 
 O                    -3.35131  -10.90755  -2.099 
 C                    -3.11317  -8.83211  -1.11854 
 C                    -4.79344  -7.55248  -0.61882 
 C                    -2.56155  -9.96141  -1.86927 
 N                    -2.62428  -7.84071  -0.33112 
 H                    -5.7985   -7.18978  -0.61258 
 C                    -3.66981  -7.03211  -0.03004 
 C                    -1.23222  -9.92708  -2.41069 
 C                    -1.28424  -7.6831    0.26979 
 H                    -3.5792   -6.15469   0.57278 
 C                    -0.69322  -9.06561   0.55567 
 H                    -0.33049  -9.5507   -0.3413 
 H                     0.14389  -8.96815   1.24054 
 H                    -1.44382  -9.69323   1.0307 
 C                    -1.41742  -6.94596   1.60663 
 H                    -1.70919  -5.9085    1.47994 
 H                    -2.12839  -7.44548   2.25841 
 H                    -0.4495   -6.9451    2.09808 
 C                    -11.05016  -12.77801  -6.55032 
 N                    -10.02842  -13.28637  -6.0167 
 C                    -7.70219  -9.50503  -0.52356 
 H                    -7.00714  -9.08864   0.18885 
 C                    -7.93127  -12.5264  -4.25663 
 H                    -9.0017   -12.4704  -4.36605 
 H                    -0.72331  -8.97805  -2.40427 
 C                    -0.63797  -10.99949  -2.96696 
 C                    -0.41687  -6.85316  -0.67857 
 C                     0.73364  -10.96573  -3.4936 
 H                     1.39344  -11.52137  -2.82235 
 H                     1.09514  -9.94562  -3.56159 
 H                     0.62053  -6.92499  -0.36874 
 H                    -0.50441  -7.19023  -1.70524 
 H                    -0.7195   -5.8108   -0.63998 
 H                     0.79443  -11.46565  -4.45901 
 H                    -1.16506  -11.94387  -2.98074 
 H                    -11.12079  -12.5873  -7.62345 
 H                    -8.23399  -15.10892  -5.69003 
 H                    -7.1779   -14.4233  -6.96428 
 
 Stoichiometry    C191H241Cu2N59O96P14
 Framework group  C1[X(C191H241Cu2N59O96P14)]
 Deg. of freedom  1803
 Full point group                 C1      NOp   1
 Largest Abelian subgroup         C1      NOp   1
 Largest concise Abelian subgroup C1      NOp   1
                         Standard orientation:                         
 ---------------------------------------------------------------------
 Center     Atomic      Atomic             Coordinates (Angstroms)
 Number     Number       Type             X           Y           Z
 ---------------------------------------------------------------------
      1          8           0        7.690406   -7.647118   -7.079372
      2          6           0        8.789641   -8.514621   -6.924798
      3          6           0        9.184088   -8.604678   -5.444542
      4          8           0        9.841616   -7.416754   -5.010673
      5          6           0        7.971461   -8.795197   -4.522367
      6          8           0        8.353493   -9.661123   -3.458675
      7          6           0        7.692327   -7.390950   -4.017156
      8          6           0        9.070735   -6.731983   -4.042384
      9          7           0        9.035464   -5.321563   -4.368951
     10          6           0        9.596840   -4.396697   -3.482508
     11          8           0        9.961808   -4.784339   -2.364592
     12          7           0        9.736213   -3.128172   -3.871735
     13          6           0        9.279684   -2.712700   -5.056941
     14          7           0        9.484853   -1.455730   -5.411137
     15          6           0        8.615862   -3.619196   -5.938886
     16          6           0        8.544492   -4.913875   -5.565572
     17         15           0        7.214149  -10.236587   -2.482144
     18          8           0        8.089193  -10.764718   -1.260273
     19          6           0        9.007680   -9.956456   -0.551232
     20          6           0        8.358921   -8.798733    0.195899
     21          8           0        8.048131   -7.742028   -0.685684
     22          6           0        7.040090   -9.140673    0.926761
     23          8           0        7.371299   -9.431431    2.272971
     24          6           0        6.178236   -7.890208    0.727986
     25          6           0        7.134110   -6.910357    0.031055
     26          7           0        6.528847   -5.987634   -0.872920
     27          6           0        5.649686   -6.243624   -1.902623
     28          7           0        5.507575   -5.247175   -2.718467
     29          6           0        6.331734   -4.257818   -2.236155
     30          6           0        6.673468   -2.972758   -2.740211
     31          8           0        6.302306   -2.450246   -3.791599
     32          7           0        7.551683   -2.302512   -1.901339
     33          6           0        8.080368   -2.809159   -0.748211
     34          7           0        8.958580   -2.050244   -0.086609
     35          7           0        7.807532   -4.016405   -0.297099
     36          6           0        6.967257   -4.710481   -1.077470
     37         15           0        6.216794   -9.494051    3.392637
     38          8           0        6.180470   -8.047393    4.050876
     39          6           0        7.417792   -7.446039    4.413675
     40          6           0        7.252702   -5.932960    4.404365
     41          8           0        6.867831   -5.481510    3.120348
     42          6           0        6.174975   -5.420346    5.388742
     43          8           0        6.856109   -4.894867    6.518831
     44          6           0        5.400229   -4.374985    4.584499
     45          6           0        6.251045   -4.222004    3.308777
     46         15           0        6.011518   -4.674220    7.866881
     47          8           0        5.677648   -3.123630    7.942159
     48          6           0        6.741322   -2.193176    7.827310
     49          6           0        6.299547   -0.960894    7.033259
     50          6           0        5.029865   -0.319297    7.632216
     51          8           0        5.043960    1.068325    7.302460
     52         15           0        4.391481    2.017231    8.483745
     53          8           0        5.074323    3.432259    8.052362
     54          6           0        5.128572    3.875433    6.721982
     55          6           0        3.775082    4.200265    6.101109
     56          6           0        2.777794    4.905461    7.044194
     57          8           0        2.836383    6.280154    6.749344
     58          6           0        1.435763    4.234993    6.733710
     59         15           0        1.907917    7.313240    7.627740
     60          8           0        0.587037    7.489533    6.657792
     61          6           0        0.795114    8.152214    5.426502
     62          6           0        0.171508    7.343649    4.285684
     63          8           0        0.915889    6.165699    4.121008
     64          6           0       -1.331551    7.135472    4.595196
     65          8           0       -1.974650    8.265336    4.040689
     66         15           0       -3.578126    8.479037    4.334718
     67          8           0       -3.864170    9.913665    4.063888
     68          8           0       -4.242459    7.579231    3.133943
     69          6           0       -4.380045    8.139652    1.847103
     70          6           0       -5.822098    7.943760    1.359323
     71          8           0       -6.176169    6.572759    1.333000
     72          6           0       -6.844704    8.629303    2.274386
     73          6           0       -7.264828    7.515563    3.226048
     74          6           0       -6.999787    6.228006    2.443392
     75          6           0       -9.229529   -3.815483   -5.576588
     76         15           0       -5.869548   -0.946224   -6.295567
     77          8           0       -5.166804   -2.230124   -6.374129
     78          8           0       -4.888025    0.201285   -5.806483
     79          6           0       -5.357622    1.540535   -5.680718
     80          6           0       -8.360991   -2.667596   -6.109969
     81          8           0       -8.888317   -2.123679   -7.312564
     82          6           0       -8.251231   -1.495113   -5.132301
     83          8           0       -7.012148   -0.807038   -5.197636
     84          6           0       -9.396349   -0.585753   -5.582140
     85          6           0       -9.489914   -0.867033   -7.087373
     86         15           0       -0.749268    3.562418   -6.695923
     87          8           0        0.296184    2.764047   -6.029065
     88          8           0       -0.511286    5.138448   -6.627329
     89          6           0        0.186564    5.687918   -5.526667
     90          6           0        1.259113    6.666217   -6.043220
     91          8           0        0.780747    7.491081   -7.094777
     92          6           0        1.684351    7.630199   -4.928563
     93          8           0        3.001792    8.126156   -5.114923
     94          6           0        0.712641    8.793579   -5.112876
     95          6           0        0.401206    8.750119   -6.620787
     96         15           0        4.254867    7.140738   -4.925105
     97          8           0        4.366102    6.032939   -5.876738
     98          8           0        4.131453    6.563895   -3.450465
     99          6           0        4.072834    7.385298   -2.294346
    100          6           0        5.267874    7.084098   -1.381572
    101          8           0        5.256529    5.718598   -0.992197
    102          6           0        6.625595    7.345159   -2.048803
    103          8           0        7.468229    7.932167   -1.053364
    104          6           0        7.074532    5.963477   -2.507916
    105          6           0        6.359227    5.009097   -1.545056
    106         15           0        8.969954    8.336123   -1.352103
    107          8           0        9.822905    6.963674   -1.316029
    108          6           0        9.923471    6.354111   -0.043614
    109          6           0       10.406900    4.924544   -0.228167
    110          8           0        9.411148    4.151444   -0.866351
    111          6           0       11.680429    4.822775   -1.106965
    112          8           0       12.774798    4.300793   -0.363247
    113          6           0       11.286464    3.845662   -2.210117
    114          6           0       10.118080    3.112835   -1.544877
    115          7           0        9.238727    2.375896   -2.396336
    116          6           0        8.905383    1.053838   -2.031802
    117          8           0        9.378914    0.588172   -0.986846
    118          7           0        8.102202    0.351829   -2.820148
    119          6           0        7.605536    0.859858   -3.955391
    120          7           0        6.847038    0.093789   -4.709922
    121          6           0        7.908847    2.207216   -4.336076
    122          6           0        8.715469    2.918999   -3.525211
    123         15           0       13.418262    5.236285    0.747287
    124          8           0       14.775388    4.486323    1.078703
    125          6           0       15.009484    3.965105    2.386136
    126          6           0       15.278080    2.465316    2.346362
    127          8           0       14.153995    1.745784    1.862851
    128          6           0       16.470763    2.079979    1.453865
    129          8           0       17.646959    2.196261    2.201692
    130          6           0       16.107132    0.642844    1.050980
    131          6           0       14.573657    0.638807    1.077509
    132          7           0       13.990949    0.734716   -0.238530
    133          6           0       14.078890    1.768959   -1.131697
    134          7           0       13.321972    1.617773   -2.174820
    135          6           0       12.675390    0.417385   -1.983938
    136          6           0       11.675122   -0.259306   -2.737817
    137          8           0       11.063792    0.165216   -3.726092
    138          7           0       11.420143   -1.525126   -2.245556
    139          6           0       11.954505   -2.035476   -1.092731
    140          7           0       11.688088   -3.299682   -0.788650
    141          7           0       12.769932   -1.352781   -0.303132
    142          6           0       13.099948   -0.147316   -0.779991
    143          1           0        8.123381   -5.689916   -6.188144
    144          1           0        8.217398   -3.278495   -6.875946
    145          1           0        9.997444   -0.823511   -4.799157
    146          1           0        9.145643   -1.127495   -6.298700
    147          1           0        9.566821   -6.800661   -3.063053
    148          1           0        7.294267   -7.424224   -3.011093
    149          1           0        6.998299   -6.875773   -4.677796
    150          1           0        7.114725   -9.222293   -5.045345
    151          1           0        9.892638   -9.430283   -5.317298
    152          1           0        9.660190   -8.142767   -7.478499
    153          1           0        8.540636   -9.524320   -7.268627
    154          1           0        7.385334   -7.680556   -7.997804
    155          1           0        5.168104   -7.194097   -2.018184
    156          1           0        7.830836   -1.350887   -2.200798
    157          1           0        9.081778   -1.075508   -0.348094
    158          1           0        9.184487   -2.321007    0.853798
    159          1           0        7.690636   -6.306683    0.765021
    160          1           0        5.834442   -7.499485    1.680166
    161          1           0        5.335422   -8.120669    0.082108
    162          1           0        6.560619  -10.018412    0.487556
    163          1           0        9.073795   -8.436872    0.952425
    164          1           0        9.747059   -9.545136   -1.242446
    165          1           0        9.482984  -10.629933    0.163966
    166          1           0        7.010082   -3.439064    3.453336
    167          1           0        5.314693   -3.433486    5.122453
    168          1           0        4.408947   -4.752647    4.346701
    169          1           0        5.517021   -6.222780    5.729879
    170          1           0        8.206176   -5.467604    4.695051
    171          1           0        8.189612   -7.739418    3.699953
    172          1           0        7.700091   -7.772004    5.415901
    173          1           0        5.096196   -0.391113    8.726335
    174          1           0        7.098304   -0.210825    7.131715
    175          1           0        7.579967   -2.657847    7.304431
    176          1           0        7.048909   -1.883290    8.827479
    177          1           0        0.667900    4.987572    6.572631
    178          1           0        1.163700    3.582695    7.562061
    179          1           0        3.042600    4.754518    8.096392
    180          1           0        3.938709    4.890942    5.254956
    181          1           0        5.614692    3.116628    6.101535
    182          1           0        5.725897    4.790760    6.750018
    183          1           0       -1.472278    7.147241    5.685090
    184          1           0        0.233950    7.961294    3.374796
    185          1           0        1.869119    8.278683    5.267687
    186          1           0        0.309065    9.132173    5.475554
    187          1           0       -7.922949    5.823596    1.999550
    188          1           0       -8.310975    7.606086    3.503686
    189          1           0       -6.652189    7.580649    4.122385
    190          1           0       -6.384739    9.465645    2.811663
    191          1           0       -5.896734    8.321696    0.333856
    192          1           0       -3.693288    7.619056    1.172360
    193          1           0       -4.130955    9.204030    1.887612
    194          1           0      -10.042810   -3.463047   -4.937264
    195          1           0       -9.638542   -4.370213   -6.423684
    196          1           0       -8.967125   -0.109061   -7.684451
    197          1           0       -9.182522    0.459152   -5.377582
    198          1           0      -10.322067   -0.864376   -5.081707
    199          1           0       -8.353277   -1.813662   -4.092834
    200          1           0       -7.376005   -3.084324   -6.338553
    201          1           0        0.959015    9.525014   -7.163846
    202          1           0        1.159437    9.740438   -4.823970
    203          1           0       -0.193667    8.631535   -4.531998
    204          1           0        1.614356    7.159540   -3.945280
    205          1           0        2.107416    6.108801   -6.446555
    206          1           0        7.016335    4.687579   -0.723235
    207          1           0        8.151177    5.850143   -2.439178
    208          1           0        6.738244    5.798835   -3.530577
    209          1           0        6.550865    8.047444   -2.878596
    210          1           0        5.179561    7.694466   -0.475103
    211          1           0        3.160145    7.124829   -1.753462
    212          1           0        4.067143    8.441908   -2.562854
    213          1           0        8.985453    3.943424   -3.722805
    214          1           0        7.496462    2.631250   -5.233495
    215          1           0        6.625916   -0.863292   -4.408102
    216          1           0        6.413892    0.486185   -5.530099
    217          1           0       10.502931    2.397331   -0.799565
    218          1           0       12.100492    3.166568   -2.466825
    219          1           0       10.952377    4.394489   -3.086948
    220          1           0       11.958941    5.803555   -1.496132
    221          1           0       10.634527    4.498803    0.759094
    222          1           0        8.947687    6.351718    0.450807
    223          1           0       10.629418    6.904318    0.582918
    224          1           0       14.701087    2.623527   -0.965881
    225          1           0       10.738518   -2.109470   -2.781514
    226          1           0       11.003063   -3.840696   -1.320736
    227          1           0       12.024527   -3.641423    0.094104
    228          1           0       14.154288   -0.280607    1.504811
    229          1           0       16.493330   -0.039399    1.807505
    230          1           0       16.481321    0.359428    0.070953
    231          1           0       16.488826    2.744386    0.580452
    232          1           0       18.417576    2.054755    1.631383
    233          1           0       15.499867    2.144468    3.375769
    234          1           0       14.143929    4.179910    3.016419
    235          1           0       15.899086    4.460204    2.782237
    236          8           0       -8.383714   -4.670772   -4.814986
    237          8           0       -7.907050    9.197627    1.544620
    238          7           0       -1.015750    9.012390   -6.892053
    239          6           0       -1.402538   10.327166   -6.943671
    240          8           0       -0.622098   11.251957   -6.771757
    241          7           0       -2.730276   10.528529   -7.199199
    242          6           0       -3.711681    9.562973   -7.389474
    243          8           0       -4.866998    9.905690   -7.591914
    244          6           0       -3.219224    8.199470   -7.331281
    245          6           0       -4.182353    7.076941   -7.543105
    246          6           0       -1.907452    7.995819   -7.094951
    247          1           0       -1.480659    7.005463   -7.082646
    248          1           0       -3.030184   11.498063   -7.244229
    249          1           0       -3.674488    6.122482   -7.451156
    250          1           0       -4.986980    7.145082   -6.813797
    251          1           0       -4.634548    7.164264   -8.528586
    252         15           0       -9.056159   -5.889511   -4.037444
    253          8           0       -8.069479   -6.779233   -3.426978
    254          8           0      -10.072011   -5.195622   -2.998402
    255          6           0       -9.696079   -5.178742   -1.626475
    256          6           0      -10.790593   -4.415516   -0.864582
    257          1           0       -9.590613   -6.208942   -1.293406
    258          6           0       -8.420740   -4.371515   -1.369819
    259          6           0      -11.162847   -5.010780    0.511858
    260          1           0      -11.694027   -4.347306   -1.476205
    261          8           0      -10.308117   -3.086641   -0.741494
    262          6           0       -8.904169   -3.058317   -0.736922
    263          1           0       -7.759080   -4.909654   -0.698977
    264          1           0       -7.907314   -4.195939   -2.311216
    265          1           0      -11.157602   -4.189102    1.236187
    266          1           0      -12.164369   -5.446244    0.483620
    267          1           0       -8.607480   -2.153027   -1.277790
    268          8           0      -10.240839   -5.991345    0.964248
    269          8           0       12.581179    5.546592    1.921984
    270          8           0        9.458958    9.340851   -0.402972
    271          8           0        1.430298    6.658324    8.872320
    272          8           0        2.901065    2.020173    8.373037
    273          8           0        4.814286   -5.511505    7.963017
    274          8           0        6.074405   -9.357935   -2.211839
    275          8           0        6.150072   -1.339809    5.684773
    276          1           0        6.068067   -0.547993    5.140530
    277          8           0        4.904491   -9.933489    2.918320
    278          6           0        1.766145    3.427163    5.473977
    279          1           0        1.683158    4.093824    4.602230
    280          8           0        3.129652    3.045248    5.621184
    281          6           0      -11.751784   -1.819151   -7.186353
    282          6           0      -11.199243    0.058883   -8.551298
    283          6           0      -13.011803   -1.914025   -7.654043
    284          1           0      -11.372554   -2.518424   -6.459128
    285          6           0      -13.451753   -0.959511   -8.655770
    286          7           0      -10.858349   -0.866392   -7.594724
    287          8           0      -10.430734    0.916390   -8.954545
    288          8           0      -14.557183   -0.919813   -9.176477
    289          6           0      -13.979079   -2.955585   -7.196174
    290          1           0      -14.317710   -3.540779   -8.048855
    291          1           0      -13.526552   -3.608337   -6.458437
    292          1           0      -14.859558   -2.475829   -6.772516
    293          7           0      -12.482005   -0.038206   -9.019750
    294          8           0       13.866032    6.484972   -0.112879
    295          1           0       14.217319    7.245893    0.367530
    296          8           0        8.990557    8.674544   -2.880561
    297          1           0        9.760460    9.158240   -3.211686
    298          8           0        5.439955    8.169409   -4.890400
    299          1           0        5.685079    8.558236   -5.740736
    300          8           0       -0.994288    3.279334   -8.220483
    301          1           0       -0.213448    3.124051   -8.768170
    302          8           0       -6.506086   -0.430693   -7.651141
    303          1           0       -6.138962   -0.839187   -8.442727
    304          8           0      -10.038151   -6.482313   -5.118484
    305          1           0      -10.303040   -7.400429   -4.993272
    306          8           0        6.737031  -11.593151   -3.112461
    307          1           0        7.396141  -12.290155   -3.229487
    308          8           0        6.930512  -10.356624    4.498453
    309          1           0        6.877533  -11.314827    4.396683
    310          8           0        7.121280   -4.852613    8.969513
    311          1           0        7.280930   -5.759475    9.263654
    312          8           0        4.984764    1.653640    9.797664
    313          8           0        2.657089    8.599170    7.649649
    314          8           0       -3.968086    7.827318    5.614567
    315          8           0      -11.433042   -7.358788    7.500911
    316          6           0      -12.438681   -7.807045    6.622465
    317          1           0      -13.345150   -7.257496    6.885905
    318          1           0      -12.623911   -8.877255    6.752847
    319          6           0      -12.134162   -7.526018    5.134393
    320          1           0      -12.811904   -8.137980    4.523893
    321          8           0      -12.389131   -6.153304    4.801526
    322          6           0      -11.250996   -5.575329    4.220243
    323          1           0      -11.491802   -5.207374    3.215925
    324          6           0      -10.706496   -7.750049    4.743380
    325          1           0      -10.229164   -8.697376    4.896893
    326          6           0      -10.200663   -6.649283    4.217350
    327          1           0       -9.214912   -6.460893    3.843766
    328          1           0       -9.438941   -9.006892    1.856691
    329         15           0       -9.155472    8.412241    0.895967
    330          8           0       -9.850505    7.464511    1.773577
    331          8           0      -10.054702    9.633032    0.516504
    332          8           0       -8.653659    7.934072   -0.533801
    333          6           0       -8.458665    6.643028   -1.104059
    334          6           0       -9.560283    5.619876   -0.847988
    335          1           0       -9.540635    4.892193   -1.675470
    336          8           0       -9.281462    4.942103    0.359970
    337          6           0      -10.477064    4.294836    0.741584
    338          1           0      -10.596066    3.364410    0.163226
    339          6           0      -11.017017    6.127620   -0.742233
    340          1           0      -11.030459    7.193937   -0.485893
    341          6           0      -11.600897    5.295094    0.422255
    342          1           0      -11.779087    5.932136    1.285905
    343          1           0      -12.514828    4.784594    0.130379
    344          8           0      -11.637833    5.898111   -1.975390
    345         15           0      -10.732880   -7.507498    0.986278
    346          8           0      -11.925000   -7.818569    1.796110
    347          8           0       -9.370525   -8.147102    1.428505
    348          8           0      -10.925522   -7.869373   -0.549486
    349          1           0      -11.612789   -8.520437   -0.727162
    350          1           0       -7.529876    6.208479   -0.721755
    351          1           0       -8.383949    6.851139   -2.173091
    352          1           0       -9.681486   10.285321   -0.092036
    353          1           0      -12.509812    6.318088   -1.994923
    354          1           0      -10.696921   -7.987930    7.502328
    355          7           0        5.509309   -3.860477    2.126348
    356          6           0        4.582530   -4.726337    1.599365
    357          6           0        5.779024   -2.652598    1.520714
    358          1           0        4.480361   -5.653870    2.142509
    359          6           0        3.862705   -4.459799    0.490489
    360          7           0        5.040397   -2.382825    0.409634
    361          8           0        6.600219   -1.858884    1.961529
    362          6           0        2.860459   -5.400405   -0.093814
    363          6           0        4.093556   -3.193469   -0.182626
    364          1           0        5.226729   -1.457638   -0.049779
    365          1           0        2.732329   -6.263974    0.547210
    366          1           0        1.915170   -4.885141   -0.239228
    367          1           0        3.206907   -5.715629   -1.075931
    368          8           0        3.510541   -2.812802   -1.188682
    369          7           0        5.885331    3.799021   -2.160593
    370          6           0        5.236717    3.621488   -3.360023
    371          6           0        5.851807    2.577016   -1.543334
    372          1           0        5.074776    4.416602   -4.059474
    373          7           0        4.818483    2.408949   -3.548975
    374          6           0        5.181325    1.717263   -2.420873
    375          7           0        6.347616    2.224248   -0.347875
    376          6           0        4.943842    0.393933   -1.985760
    377          6           0        6.112329    0.958797   -0.063151
    378          7           0        4.243084   -0.490572   -2.674359
    379          7           0        5.441389    0.065445   -0.773480
    380          1           0        6.504121    0.605558    0.883837
    381          1           0        4.049422   -1.413808   -2.287840
    382          1           0        3.955024   -0.250860   -3.608369
    383          7           0       -6.459912    5.126880    3.215988
    384          6           0       -5.797691    5.242150    4.404621
    385          6           0       -6.698193    3.831495    2.714999
    386          1           0       -5.462662    6.225565    4.696595
    387          6           0       -5.537259    4.186232    5.201964
    388          7           0       -6.501388    2.790579    3.517463
    389          8           0       -7.089126    3.681392    1.557993
    390          6           0       -4.803751    4.341919    6.496871
    391          6           0       -6.011744    2.878491    4.771946
    392          1           0       -4.684211    5.396825    6.740594
    393          1           0       -5.341773    3.835068    7.295739
    394          1           0       -3.809106    3.901572    6.427186
    395          8           0       -5.963574    1.853846    5.473683
    396          7           0       -8.371175   -2.857884    0.605031
    397          6           0       -8.221471   -3.727306    1.651428
    398          6           0       -7.998518   -1.644922    1.081414
    399          1           0       -8.483808   -4.764704    1.583098
    400          7           0       -7.767527   -3.166716    2.734906
    401          6           0       -7.620526   -1.842524    2.421928
    402          7           0       -7.963757   -0.474256    0.416193
    403          6           0       -7.226193   -0.705350    3.164589
    404          6           0       -7.583549    0.525694    1.140972
    405          7           0       -6.870420   -0.696047    4.430487
    406          7           0       -7.226767    0.443854    2.443782
    407          1           0       -7.538115    1.517881    0.714708
    408          1           0       -6.614258    0.178421    4.895118
    409          1           0       -6.924636   -1.549865    4.962963
    410          7           0      -10.360607    3.889562    2.110057
    411          6           0      -10.076795    4.663147    3.201181
    412          6           0      -10.257071    2.596174    2.539103
    413          1           0      -10.078011    5.733478    3.151200
    414          7           0       -9.826964    3.983474    4.280191
    415          6           0       -9.928433    2.665254    3.898770
    416          7           0      -10.489805    1.468664    1.855179
    417          6           0       -9.791428    1.442258    4.594155
    418          6           0      -10.354813    0.393201    2.603668
    419          7           0       -9.472875    1.337966    5.875952
    420          7           0      -10.019687    0.317989    3.883566
    421          1           0      -10.549464   -0.555103    2.120020
    422          1           0       -9.475331    0.424220    6.344043
    423          1           0       -9.283931    2.176575    6.394516
    424          7           0      -10.819666   -4.393112    4.977742
    425          6           0      -10.669008   -4.495064    6.329297
    426          6           0      -10.645976   -3.197302    4.326717
    427          1           0      -10.886687   -5.466548    6.751554
    428          6           0      -10.296594   -3.460004    7.110188
    429          7           0      -10.237425   -2.159698    5.114066
    430          8           0      -10.819184   -3.063654    3.123176
    431          6           0      -10.136422   -3.575957    8.590607
    432          6           0      -10.050373   -2.183592    6.476843
    433          1           0      -10.116511   -1.238177    4.635570
    434          1           0       -9.089990   -3.457928    8.863910
    435          1           0      -10.686972   -2.776397    9.082610
    436          1           0      -10.499117   -4.537442    8.937909
    437          8           0       -9.692056   -1.164595    7.069791
    438          6           0       -4.199702    2.436791   -5.231165
    439          1           0       -4.518181    3.482335   -5.291787
    440          8           0       -3.854179    2.153483   -3.879748
    441          6           0       -2.530986    1.648436   -3.812098
    442          6           0       -2.914807    2.218546   -6.050214
    443          1           0       -3.114399    1.905724   -7.074918
    444          6           0       -2.189207    1.168806   -5.221155
    445          1           0       -2.648627    0.202743   -5.415639
    446          1           0       -1.122143    1.159961   -5.410199
    447          8           0       -2.212807    3.465111   -6.077810
    448          7           0        0.965749    2.270023    5.210086
    449          6           0        0.985290    1.197145    6.044137
    450          6           0        0.235380    2.215826    4.009418
    451          1           0        1.529488    1.348616    6.964349
    452          6           0        0.374623    0.042322    5.697107
    453          7           0       -0.280007    1.057827    3.622615
    454          8           0        0.096310    3.257183    3.345155
    455          1           0        0.388205   -0.803845    6.360601
    456          6           0       -0.218190   -0.037034    4.398975
    457          7           0       -0.724788   -1.161196    3.937265
    458          1           0       -1.141445   -1.207168    2.998180
    459          1           0       -0.687077   -1.978713    4.524640
    460          7           0       -2.442781    0.643513   -2.789765
    461          6           0       -2.818961   -0.672120   -2.777578
    462          6           0       -1.928820    0.895767   -1.557721
    463          1           0       -3.293691   -1.151487   -3.610469
    464          7           0       -2.561600   -1.268606   -1.646658
    465          6           0       -2.018390   -0.297989   -0.834344
    466          7           0       -1.426883    2.061779   -1.135304
    467          6           0       -1.660012   -0.265380    0.538826
    468          6           0       -0.997271    2.045432    0.105850
    469          8           0       -1.832697   -1.151282    1.389049
    470          7           0       -1.103455    0.944672    0.913006
    471          7           0       -0.387738    3.128626    0.595123
    472          1           0       -0.808715    1.033179    1.903177
    473          1           0       -0.205512    3.201833    1.592722
    474          1           0       -0.512937    3.987195    0.085736
    475          1           0       -6.951339    1.341311    2.918662
    476          1           0      -12.747334    0.646142   -9.722009
    477          1           0        0.488796    5.597881    3.456808
    478          8           0       -1.409190   -4.894078   -1.903673
    479          6           0       -1.637075   -4.701860   -4.200800
    480          6           0       -1.742067   -2.806696   -5.237038
    481          6           0       -1.327532   -5.531113   -3.036293
    482          7           0       -2.088258   -4.965244   -5.443543
    483          1           0       -1.647833   -1.756577   -5.411248
    484          6           0       -2.153352   -3.778762   -6.104314
    485          6           0       -0.893981   -6.831677   -3.121190
    486          6           0       -2.494029   -6.247902   -5.996450
    487          1           0       -2.491065   -3.693052   -7.113939
    488          1           0       -0.854406   -7.326550   -4.075873
    489          6           0       -3.776009   -6.100503   -6.813966
    490          1           0       -4.194588   -7.084547   -7.000796
    491          1           0       -4.512780   -5.505155   -6.283897
    492          1           0       -3.578249   -5.634711   -7.774823
    493          7           0       -1.426353   -3.388956   -4.058086
    494          6           0       -1.362923   -6.818197   -6.852509
    495          1           0       -1.640184   -7.802354   -7.217324
    496          1           0       -1.176759   -6.175729   -7.709254
    497          1           0       -0.440058   -6.902285   -6.285258
    498          6           0        3.715844   -0.963626    7.185847
    499          1           0        2.936760   -0.424591    7.733488
    500          1           0        3.708401   -2.014456    7.472447
    501          7           0        2.905292   -1.780038    5.121021
    502          8           0        2.565896   -1.630875    3.781981
    503          6           0        2.051441   -2.906587    3.352584
    504          6           0        1.221151   -2.827474    2.108594
    505          6           0        1.436912   -1.870731    1.125464
    506          6           0        0.257825   -3.810609    1.881958
    507          6           0        0.708744   -1.942394   -0.061036
    508          1           0        2.179347   -1.104188    1.280606
    509          6           0       -0.410619   -3.819860    0.673410
    510          6           0        0.866914   -0.998869   -1.174935
    511          7           0       -0.175616   -2.919872   -0.265805
    512          1           0       -1.135704   -4.574881    0.410737
    513          6           0        1.416842    0.271898   -1.032917
    514          7           0        0.400108   -1.427150   -2.351858
    515         29           0       -0.963598   -2.995633   -2.135043
    516          6           0        1.467437    1.126157   -2.129051
    517          1           0        1.772338    0.613719   -0.072357
    518          6           0        0.508301   -0.645735   -3.413967
    519          6           0        1.024910    0.634879   -3.355872
    520          6           0        1.924970    2.538061   -2.005470
    521          1           0        0.169345   -1.072069   -4.344357
    522          1           0        1.076272    1.258159   -4.234939
    523          1           0        1.052356    3.175597   -1.864888
    524          1           0        2.580650    2.677975   -1.146902
    525          1           0        2.442940    2.856944   -2.906654
    526          6           0        3.444522   -0.817100    5.729082
    527          1           0        3.668262    0.153121    5.277111
    528          6           0       -0.430206   -7.591265   -1.945015
    529          1           0       -0.391830   -6.953050   -1.068942
    530          1           0        0.062051   -4.565216    2.624174
    531          1           0        2.906373   -3.564442    3.145331
    532          1           0        1.488806   -3.335101    4.185182
    533          1           0       -2.688824   -6.908590   -5.147811
    534          1           0       -1.085735   -8.442231   -1.759070
    535          1           0        0.557774   -8.005581   -2.144210
    536          1           0        0.678153    4.889303   -4.964944
    537          1           0       -0.534555    6.202356   -4.885885
    538          1           0       -5.751780    1.886351   -6.637923
    539          1           0       -6.140990    1.579551   -4.923052
    540          1           0       -1.852472    2.453345   -3.489996
    541          8           0       -2.860922    5.023172    0.654522
    542          6           0       -4.015234    4.370201    0.118712
    543          6           0       -4.168713    2.921651    0.488781
    544          6           0       -4.650662    2.004586   -0.442774
    545          6           0       -4.024277    1.120515    2.074175
    546          6           0       -4.796103    0.684399   -0.054331
    547          1           0       -4.889218    2.316148   -1.446658
    548          6           0       -3.728713    0.547178    3.393028
    549          7           0       -4.479305    0.260093    1.158121
    550          1           0       -5.164822   -0.077236   -0.726132
    551          6           0       -3.232438    1.282891    4.465678
    552          7           0       -3.992644   -0.756226    3.518496
    553         29           0       -4.073994   -1.644590    1.732631
    554          6           0       -3.042430    0.665748    5.697369
    555          1           0       -2.997196    2.331608    4.355302
    556          6           0       -3.377981   -0.682257    5.807870
    557          6           0       -2.525113    1.410585    6.879392
    558          1           0       -3.276274   -1.182419    6.756113
    559          1           0       -1.975495    2.307536    6.588517
    560          1           0       -3.366018    1.722917    7.499159
    561          1           0       -1.872012    0.789234    7.487183
    562          6           0       -1.918024    5.821254    4.078806
    563          1           0       -2.926609    5.721448    4.484708
    564          1           0       -1.302181    5.002789    4.469373
    565          7           0       -3.504121   -3.517232    2.024956
    566          8           0       -4.975393   -2.466800    0.126363
    567          6           0       -4.024322   -4.333202    1.094603
    568          6           0       -2.953360   -4.279626    2.981578
    569          6           0       -4.569164   -3.636150   -0.071784
    570          7           0       -3.847500   -5.623505    1.476384
    571          1           0       -2.446713   -3.862395    3.824753
    572          6           0       -3.165722   -5.592408    2.647632
    573          6           0       -4.525875   -4.218029   -1.383651
    574          6           0       -4.395451   -6.866038    0.895414
    575          1           0       -2.873969   -6.470989    3.180963
    576          6           0       -5.763807   -6.573083    0.275606
    577          1           0       -5.683215   -6.060408   -0.674183
    578          1           0       -6.292012   -7.506270    0.103932
    579          1           0       -6.356265   -5.974031    0.963415
    580          6           0       -4.598774   -7.895092    2.012533
    581          1           0       -3.659524   -8.255238    2.419484
    582          1           0       -5.207821   -7.486122    2.813542
    583          1           0       -5.115602   -8.755542    1.599124
    584          6           0       -1.970171    5.746333    2.595825
    585          7           0       -2.915394    5.129149    2.036578
    586          6           0       -3.837001   -1.350678    4.691189
    587          1           0       -4.104143   -2.395433    4.724591
    588          6           0       -3.869369    2.466245    1.767658
    589          1           0       -3.513777    3.163422    2.508224
    590          1           0       -3.918983   -5.098452   -1.510989
    591          6           0       -5.153228   -3.680202   -2.446575
    592          6           0       -3.391558   -7.416313   -0.119423
    593          6           0       -5.128986   -4.295898   -3.780789
    594          1           0       -6.109264   -4.727425   -3.998747
    595          1           0       -4.389010   -5.087275   -3.826440
    596          1           0       -3.871552   -8.185432   -0.715587
    597          1           0       -3.015822   -6.640762   -0.777212
    598          1           0       -2.544905   -7.856639    0.399127
    599          1           0       -4.949116   -3.549469   -4.552886
    600          1           0       -5.747955   -2.787301   -2.309110
    601          1           0       -1.165553    6.225354    2.033592
    602          1           0       -4.923686    4.901327    0.435556
    603          1           0       -3.879151    4.482730   -0.958308
 ---------------------------------------------------------------------
[...]
 2.385907928,-14.0637002892,-4.3490074587\H,0,-6.8697971648,-15.2768686
 526,-16.2657696971\H,0,-8.7868582784,-14.6427390417,-15.0474304198\H,0
 ,-7.9923888596,-14.9549967709,-13.4927219005\H,0,-7.9176642061,-12.552
 2033906,-13.4617938879\H,0,-5.5148502286,-12.2061474713,-14.7695639832
 \H,0,-9.9970379125,-6.1218602528,-13.4409578424\H,0,-9.7190019712,-6.3
 777602005,-15.7735726345\H,0,-8.5511311186,-7.7148558953,-15.577570084
 7\H,0,-10.4078119928,-9.0083480142,-16.2068907549\H,0,-11.6510750575,-
 9.2304323803,-13.7195591082\H,0,-9.8780143252,-10.7773995635,-13.01253
 67622\H,0,-10.3169361106,-11.0637060953,-14.7265481628\H,0,-7.75867758
 86,-4.952153851,-16.0961684411\H,0,-5.4680613808,-5.7168594571,-15.472
 1649473\H,0,-3.6777540543,-4.1214069129,-12.6614209717\H,0,-3.64689450
 84,-5.3664446198,-13.9159527587\H,0,-9.3027819086,-2.1230465095,-14.40
 78636553\H,0,-8.919915795,-1.7805810453,-16.7869003891\H,0,-8.96849178
 71,-3.5425121874,-17.1089984967\H,0,-11.2681669938,-3.1840458854,-17.4
 441566634\H,0,-11.812752747,-2.8504009463,-14.5920344965\H,0,-12.36187
 95726,-5.3114129324,-14.717106012\H,0,-13.1962612419,-4.3107720947,-15
 .9227437163\H,0,-10.2913044922,0.922621565,-17.1373459943\H,0,-5.04850
 32134,0.1869797178,-13.4806269706\H,0,-5.1022252939,1.784043402,-11.85
 35126359\H,0,-6.5127547954,2.8178288626,-11.690522482\H,0,-10.16770489
 46,2.8468299974,-13.802762183\H,0,-11.0841955977,4.5787093131,-15.1375
 135617\H,0,-10.0449592468,3.885344012,-16.4079684159\H,0,-11.926877288
 3,2.6244878364,-17.3114610287\H,0,-12.7170970032,4.7814437093,-17.4638
 312655\H,0,-13.3934154053,2.9422103755,-14.6846651801\H,0,-14.09606259
 94,0.6148278265,-15.1322161207\H,0,-14.5042477627,1.736541719,-16.4697
 989902\O,0,2.4881893556,-13.5115273548,-1.9956702444\O,0,-11.073932168
 6,-19.6303174878,-5.4064686984\N,0,-6.2924403914,-16.421090335,-14.655
 2513453\C,0,-6.9930829222,-17.5023576757,-15.1252171977\O,0,-7.8833282
 81,-17.4012811092,-15.9565573216\N,0,-6.6238715677,-18.7055420676,-14.
 5915878626\C,0,-5.6479278149,-18.9416814307,-13.630634293\O,0,-5.44693
 93901,-20.0816945166,-13.2392679074\C,0,-4.9458655426,-17.7490473576,-
 13.1950042258\C,0,-3.8592800057,-17.8846901551,-12.1783962725\C,0,-5.2
 957127161,-16.5617503786,-13.7297970649\H,0,-4.779521188,-15.650243275
 5,-13.4732660121\H,0,-7.1319786402,-19.5159573837,-14.9336734912\H,0,-
 3.4434786546,-16.9113745863,-11.9393558294\H,0,-4.2572154658,-18.35298
 8316,-11.2804539337\H,0,-3.0791150748,-18.5384059344,-12.5621625677\P,
 0,2.83462109,-13.1111685625,-0.4917498875\O,0,2.7145890264,-11.6739620
 997,-0.2512455767\O,0,1.8615990524,-14.0282288609,0.4056199932\C,0,0.7
 468414878,-13.3939483785,1.0210859573\C,0,-0.0461826874,-14.4838924697
 ,1.7587107142\H,0,1.1244725083,-12.6224763044,1.6886155338\C,0,-0.2464
 56783,-12.8221920258,0.0059859655\C,0,-0.6059155563,-14.0635542257,3.1
 362138013\H,0,0.5729887702,-15.3757241157,1.8859569904\O,0,-1.08597018
 05,-14.861102196,0.869667756\C,0,-1.4313769596,-13.7992112807,0.018213
 1071\H,0,-0.557687942,-11.8249293119,0.2992768394\H,0,0.2224604818,-12
 .7752687331,-0.9730838488\H,0,-1.6618424916,-14.3536206864,3.162940663
 4\H,0,-0.0794081643,-14.5840038283,3.9395779118\H,0,-1.6690923312,-14.
 2427118324,-0.9548802251\O,0,-0.5365725698,-12.6636827394,3.3638397913
 \O,0,-13.7845951038,-1.6696315591,-15.5704268459\O,0,-13.7298034278,-6
 .8935053338,-17.0731664042\O,0,-17.0640196708,-9.0761791677,-5.1649621
 138\O,0,-14.1116386431,-5.3568843375,-3.9922786404\O,0,-9.5048676266,0
 .4220478713,-1.5558265347\O,0,0.1721094727,1.0067227313,-6.6474755753\
 O,0,-10.7518382701,-1.5902279909,-5.8886756637\H,0,-10.8281275192,-2.2
 586432821,-6.5795431237\O,0,-2.9993407763,1.7766718942,-2.4800329354\C
 ,0,-12.5861721642,-7.8045875544,-5.8236486165\H,0,-12.3405426442,-8.48
 52705498,-6.6528666098\O,0,-12.7695823353,-6.4961514812,-6.3537784442\
 C,0,3.2279675214,-18.383252758,-2.9001219864\C,0,2.9294812812,-19.4145
 789993,-5.031473935\C,0,3.9254768501,-19.4157463789,-2.3874623976\H,0,
 3.0416443351,-17.4935930839,-2.3209469151\C,0,4.1685838215,-20.5728646
 316,-3.2301292735\N,0,2.7243101237,-18.3623270716,-4.1723771075\O,0,2.
 5108723206,-19.4323236026,-6.1773288807\O,0,4.784939867,-21.5794029432
 ,-2.9112701434\C,0,4.4654197105,-19.4284211208,-0.9951920762\H,0,5.544
 531723,-19.5661485951,-1.0223108483\H,0,4.2250724482,-18.5070749738,-0
 .4770452549\H,0,4.0523532627,-20.275574843,-0.4505810931\N,0,3.6342025
 228,-20.4634231479,-4.5045525414\O,0,-13.1634867178,-1.7616311807,-18.
 0759876992\H,0,-14.0801693102,-1.8137732168,-18.3762720179\O,0,-11.364
 7181293,-7.5045419522,-17.986849825\H,0,-11.6016513326,-7.2832873051,-
 18.8985873546\O,0,-8.7363257874,-10.4539472152,-16.8493310041\H,0,-8.4
 073159221,-10.714361357,-17.7201233308\O,0,-1.700855336,-13.3867641408
 ,-12.5711872763\H,0,-1.3772095101,-12.8385203153,-13.2981443519\O,0,1.
 4867361278,-15.2927791861,-7.0327092219\H,0,2.2462742783,-14.976736221
 9,-7.5341806212\O,0,4.2364137711,-13.7973240402,-0.2714351978\H,0,4.78
 3085472,-13.4296702623,0.4319570575\O,0,2.0949921527,2.5925727855,-6.4
 631321482\H,0,2.4686500478,3.4767727254,-6.5749643594\O,0,-4.372313012
 ,3.9891858712,-2.4988068573\H,0,-3.6810062202,4.4841076144,-2.04222808
 55\O,0,-11.1989614612,2.0668545682,-2.6485543368\H,0,-10.8826708848,2.
 7974767944,-2.1003235854\O,0,-15.4182732684,-3.1736262336,-4.170601687
 8\O,0,-17.6632589123,-9.5900692332,-7.643601305\O,0,-14.1382079318,-14
 .7488654189,-4.5466504105\O,0,-4.2469938697,-11.081740186,8.818144947\
 C,0,-3.0810243815,-11.8182852007,9.1043768722\H,0,-3.4132496524,-12.76
 78548252,9.5298581169\H,0,-2.4607695979,-11.298965577,9.8407530319\C,0
 ,-2.2249232385,-12.1352513222,7.8583064164\H,0,-1.2302315079,-12.45470
 40283,8.1975398903\O,0,-2.7839465479,-13.2222670196,7.1059493859\C,0,-
 2.9797958596,-12.838602874,5.7711305233\H,0,-2.4112540589,-13.49957761
 25,5.1063707895\C,0,-2.1235015263,-11.0097258714,6.8763603613\H,0,-1.7
 507940488,-10.0480614477,7.1681303394\C,0,-2.5436486555,-11.4035353529
 ,5.6878102666\H,0,-2.612912274,-10.8544678317,4.7710280378\H,0,0.51610
 83887,-10.0484170741,4.9717173489\P,0,-9.8099308313,-20.2958642296,-4.
 6611588712\O,0,-9.7032051957,-20.0458327304,-3.219785271\O,0,-10.08993
 89123,-21.8002350625,-4.9795933312\O,0,-8.56437178,-20.0010717047,-5.6
 02635744\C,0,-7.3732562509,-19.2421343473,-5.4148359293\C,0,-6.6642514
 009,-19.421012702,-4.0764455619\H,0,-5.5967923683,-19.1937156044,-4.22
 97521063\O,0,-7.1974084275,-18.4963672939,-3.1506732561\C,0,-6.7965806
 472,-18.9352614343,-1.8697531345\H,0,-5.7541230553,-18.6308616646,-1.6
 827334987\C,0,-6.7261572597,-20.8091937521,-3.3980780433\H,0,-7.584850
 4076,-21.3784126162,-3.7743193275\C,0,-6.9303962993,-20.4670527246,-1.
 9043327317\H,0,-7.9309683104,-20.7534705527,-1.5876549744\H,0,-6.18135
 06212,-20.9446382829,-1.2783020258\O,0,-5.5238145244,-21.4707041582,-3
 .672921781\P,0,0.5157890134,-12.1463533264,4.4437549485\O,0,0.38649544
 13,-12.6687182478,5.8164020821\O,0,0.2762068832,-10.6111821421,4.22807
 29948\O,0,1.9270385657,-12.4801349645,3.7929106111\H,0,2.6276116887,-1
 2.6717425229,4.4255814107\H,0,-7.5974645411,-18.1754545049,-5.51263388
 38\H,0,-6.7288901574,-19.5840279789,-6.2270076583\H,0,-10.1357687812,-
 22.0541795179,-5.9115279462\H,0,-5.5725488362,-22.3911863571,-3.377205
 5043\H,0,-4.0216944577,-10.1475355805,8.698984959\N,0,-6.377352042,-1.
 5262275601,-6.4239390515\C,0,-5.2271467933,-1.8662203901,-5.7547777517
 \C,0,-6.7514257141,-2.1846792228,-7.575033971\H,0,-5.0220221628,-1.259
 8199075,-4.8853154914\C,0,-4.4065794879,-2.862400736,-6.1460463116\N,0
 ,-5.9269210267,-3.1977561375,-7.9580666174\O,0,-7.7679082649,-1.905736
 6095,-8.1976218566\C,0,-3.1493585982,-3.2313272959,-5.4291526874\C,0,-
 4.7584612509,-3.6024504255,-7.3454095429\H,0,-6.2120889442,-3.71648805
 21,-8.8248684797\H,0,-3.0511137726,-2.6569842836,-4.5161594007\H,0,-3.
 1478457287,-4.2965844252,-5.2159919784\H,0,-2.3025169672,-3.0352508874
 ,-6.0836443249\O,0,-4.1176213261,-4.5339243664,-7.8130029407\N,0,-8.11
 03105936,-6.8412918181,-13.2014098024\C,0,-6.9593005359,-7.5458711495,
 -13.4652170678\C,0,-7.7904959838,-5.9903010435,-12.1772221796\H,0,-6.9
 041203092,-8.3178019609,-14.2059875823\N,0,-5.9587915784,-7.2046706653
 ,-12.7145931398\C,0,-6.4433699027,-6.2280966393,-11.8814152492\N,0,-8.
 5692211024,-5.0929981073,-11.5544623766\C,0,-5.877565677,-5.5214154314
 ,-10.7963380636\C,0,-7.9288665762,-4.4575690304,-10.5932298846\N,0,-4.
 6479609365,-5.7189400519,-10.3529022714\N,0,-6.6844603312,-4.632657474
 6,-10.1765733046\H,0,-8.4990293122,-3.7042296923,-10.0617608345\H,0,-4
 .3082757565,-5.2258755027,-9.5278149259\H,0,-4.0398583385,-6.322734132
 7,-10.8805935081\N,0,-10.0831206635,-15.6991230636,-3.1653398818\C,0,-
 11.1900443699,-14.9503867079,-2.8846523536\C,0,-8.8405912603,-15.25215
 20834,-2.6732738967\H,0,-12.1034011145,-15.1943469886,-3.4050950168\C,
 0,-11.1762654825,-13.9245429839,-2.0094383933\N,0,-8.8253685759,-14.28
 2603588,-1.7644665997\O,0,-7.7978176461,-15.7640881969,-3.0789443995\C
 ,0,-12.4039152182,-13.1172531819,-1.7262126011\C,0,-9.924039517,-13.63
 31755314,-1.3258644412\H,0,-13.2767702773,-13.581007792,-2.1840024887\
 H,0,-12.5527819813,-13.0257196669,-0.6519604692\H,0,-12.3045152731,-12
 .1138298219,-2.1401450984\O,0,-9.8100557561,-12.8133397926,-0.39875605
 29\N,0,-2.6758006265,-13.1598302904,0.4277200321\C,0,-2.9386153925,-12
 .2637553425,1.4283346676\C,0,-3.8791896317,-13.4617287319,-0.1179917\H
 ,0,-2.1738759296,-11.8743679841,2.0711681533\N,0,-4.1999970388,-11.963
 2720588,1.5418160059\C,0,-4.8360177652,-12.7082238266,0.5860058586\N,0
 ,-4.1313854388,-14.2940966942,-1.146460067\C,0,-6.1941229002,-12.88000
 06902,0.230685972\C,0,-5.3865254975,-14.4008707112,-1.4345290485\N,0,-
 7.2208289709,-12.284236896,0.796458756\N,0,-6.3834209614,-13.741308401
 9,-0.800113963\H,0,-5.7059477608,-15.0584200952,-2.2306443266\H,0,-8.1
 753743202,-12.480055742,0.4855045311\H,0,-7.0653024171,-11.6870378564,
 1.5931024744\N,0,-7.582932311,-18.2534018838,-0.8862656578\C,0,-8.9448
 733744,-18.2064035008,-0.7747229813\C,0,-7.1102322484,-17.3041728653,-
 0.024191708\H,0,-9.5817729517,-18.8480166536,-1.3498733039\N,0,-9.3745
 219818,-17.336322334,0.0895656571\C,0,-8.2378602769,-16.7399760711,0.5
 854030692\N,0,-5.8390839556,-16.9988315751,0.2658832466\C,0,-8.0147293
 706,-15.7372927326,1.556427551\C,0,-5.7478012882,-16.0704482205,1.1958
 575727\N,0,-8.9730720841,-15.0993465771,2.2121400715\N,0,-6.7268821345
 ,-15.4373317943,1.8256744761\H,0,-4.7468454049,-15.7890566006,1.495839
 5723\H,0,-8.744002429,-14.4439771385,2.9684901856\H,0,-9.9295007649,-1
 5.31173145,1.9930274381\N,0,-4.3858209968,-13.0045600406,5.3799272693\
 C,0,-5.358598943,-12.4787328058,6.1780522482\C,0,-4.696460897,-13.7413
 869222,4.2643325858\H,0,-5.0094752604,-11.9665371922,7.0641868303\C,0,
 -6.6756655906,-12.597530184,5.911492155\N,0,-6.0282633629,-13.83227197
 49,3.9788559146\O,0,-3.8481992507,-14.2647294677,3.5551506488\C,0,-7.7
 373756351,-12.0227803907,6.7907957458\C,0,-7.0669371224,-13.3213881027
 ,4.7224106142\H,0,-6.2818670805,-14.4040003819,3.1412450612\H,0,-8.256
 0107602,-11.2181622185,6.2738307033\H,0,-8.4787605206,-12.7866003357,7
 .0175049037\H,0,-7.3054855316,-11.6471604321,7.7122076964\O,0,-8.23126
 56555,-13.4903115106,4.3561636029\C,0,-2.6466280797,-14.5772406873,-8.
 3748953162\H,0,-3.186766671,-15.4505280669,-8.7542193171\O,0,-3.550054
 2467,-13.7955604584,-7.6010918516\C,0,-3.5875974227,-12.4664731379,-8.
 0936435305\C,0,-2.1984847785,-13.6756446604,-9.5392488998\H,0,-1.19549
 44133,-13.9110213756,-9.8946672854\C,0,-2.3195242249,-12.2882546874,-8
 .9258261877\H,0,-1.4606672615,-12.124644577,-8.2794780139\H,0,-2.42015
 82369,-11.5132723801,-9.676636657\O,0,-3.1253749569,-13.8751991996,-10
 .6109507436\N,0,-11.4767491492,-7.8085575423,-4.9189878614\C,0,-11.423
 8846302,-6.9480977362,-3.868319711\C,0,-10.3836375848,-8.6485260473,-5
 .1974495202\H,0,-12.3273201436,-6.3807516618,-3.7015596103\C,0,-10.298
 0812929,-6.8293950572,-3.1297833421\N,0,-9.2483413088,-8.4651599754,-4
 .5389060923\O,0,-10.5149493928,-9.5381980392,-6.0555003626\H,0,-10.260
 1823649,-6.1506888531,-2.2965194451\C,0,-9.1486108246,-7.5743243853,-3
 .5380342948\N,0,-7.981113537,-7.4234808574,-2.9483290551\H,0,-7.159590
 6053,-7.9597234553,-3.2567786092\H,0,-7.9103886992,-6.7627970534,-2.19
 11887071\N,0,-3.7330115809,-11.5443596149,-7.0021406275\C,0,-2.8264190
 973,-11.0582758718,-6.0997198686\C,0,-4.9241838225,-10.9784725988,-6.6
 756436598\H,0,-1.7972208883,-11.3573723677,-6.087056251\N,0,-3.3487020
 218,-10.2177448371,-5.2501673128\C,0,-4.6879115758,-10.1595415583,-5.5
 666444988\N,0,-6.0878309512,-11.1676249334,-7.3081832999\C,0,-5.809445
 6154,-9.5476335082,-4.9479162432\C,0,-7.0970798718,-10.5065724956,-6.7
 88834016\O,0,-5.8419700382,-8.9401411121,-3.8674457886\N,0,-6.97767818
 1,-9.7332084384,-5.6654020853\N,0,-8.2829772814,-10.5472564695,-7.4022
 021207\H,0,-7.8357265535,-9.3022182351,-5.2740643181\H,0,-9.1109157639
 ,-10.1917054512,-6.9311704966\H,0,-8.4171904975,-11.2789286559,-8.0796
 486408\H,0,-7.3644970409,-13.9331699651,-1.1279554815\H,0,3.7851139075
 ,-21.250454599,-5.1288167421\H,0,-12.1628649014,-10.580834693,-7.41294
 67693\O,0,-1.14038618,-7.2738381224,-4.2527189638\C,0,0.4945274151,-8.
 1570283788,-5.6357242221\C,0,0.0933308934,-9.6177317334,-7.1790468366\
 C,0,0.08192034,-7.1312356368,-4.6780925174\N,0,1.686149631,-8.67098994
 89,-6.000728975\H,0,-0.4607577604,-10.2064576286,-7.8778799201\C,0,1.4
 437477524,-9.5881039788,-6.9747616082\C,0,0.8640407376,-6.0578158018,-
 4.3278127123\C,0,2.9978340195,-8.3734673552,-5.4470759072\H,0,2.216397
 6228,-10.1592863955,-7.4411311218\H,0,1.8745655326,-5.9847452139,-4.69
 02846386\C,0,3.8072024661,-9.655601747,-5.2611023454\H,0,4.6622799243,
 -9.4481221367,-4.6252954632\H,0,3.2092307793,-10.4326831814,-4.7954647
 048\H,0,4.1806196205,-10.0261547781,-6.2111380771\N,0,-0.4870036013,-8
 .7283134022,-6.341923471\C,0,3.7307012484,-7.3930090806,-6.3630890345\
 H,0,4.6851995837,-7.1231700991,-5.9218994751\H,0,3.9182987141,-7.84908
 15288,-7.331716493\H,0,3.1499489173,-6.4884592896,-6.5213330038\C,0,-1
 1.5398288336,-3.2895558665,-3.6951488867\H,0,-12.1055863645,-4.0615234
 774,-3.1646545652\H,0,-11.0886736046,-2.6046735684,-2.9783272947\N,0,-
 9.3072579474,-3.9680892037,-4.0723103378\O,0,-8.3299216384,-4.66318663
 46,-4.7738219079\C,0,-7.0891027483,-4.4211130224,-4.0822607566\C,0,-6.
 0247724746,-5.4271709645,-4.3956303931\C,0,-5.9482652175,-6.0776154524
 ,-5.6201801234\C,0,-5.0149674468,-5.6485556807,-3.4590421298\C,0,-4.85
 51652418,-6.9019780759,-5.8822994313\H,0,-6.7176112282,-5.9172423206,-
 6.3585921934\C,0,-3.9586248648,-6.4694087148,-3.8023087609\C,0,-4.6600
 640786,-7.6227674082,-7.1465876942\N,0,-3.8833719365,-7.0604160184,-4.
 9822979169\H,0,-3.1208052557,-6.6511055825,-3.146681071\C,0,-5.6928597
 159,-7.9092317469,-8.0346822805\N,0,-3.4097670129,-8.0349442989,-7.377
 5619978\Cu,0,-2.2676117316,-8.1052915984,-5.6290277796\C,0,-5.42985996
 59,-8.6556110597,-9.1781756705\H,0,-6.7025508506,-7.5878603179,-7.8269
 854576\C,0,-3.1394111936,-8.6855831141,-8.49736891\C,0,-4.1084850871,-
 9.02514816,-9.4224767811\C,0,-6.5165568391,-9.100527817,-10.0942657198
 \H,0,-2.1026724938,-8.9368750036,-8.6532616323\H,0,-3.8611208507,-9.57
 91957009,-10.314506434\H,0,-6.8209228327,-10.1075753646,-9.8098591715\
 H,0,-7.3927426306,-8.4568420027,-10.0264573091\H,0,-6.168782471,-9.123
 7378762,-11.1241323865\C,0,-10.4892526428,-3.9613936844,-4.5088893567\
 H,0,-10.8169466976,-4.4759029456,-5.416393089\C,0,0.3632837317,-4.9515
 045649,-3.4906936804\H,0,-0.6972449308,-5.0692071292,-3.2964790976\H,0
 ,-5.0447791883,-5.1637849762,-2.4984413519\H,0,-6.7184163342,-3.433004
 1082,-4.3870005267\H,0,-7.3066457009,-4.3856643213,-3.0122978461\H,0,2
 .8297171207,-7.915434994,-4.469025006\H,0,0.9128197773,-4.9072427039,-
 2.5502225073\H,0,0.5438593805,-4.0020411216,-3.9940355718\H,0,-5.51527
 54088,-12.2035380087,-12.3768393507\H,0,-6.1210260054,-13.8836804009,-
 12.2709873459\H,0,-0.8983588437,-15.8101465301,-8.0366699155\H,0,-1.88
 68462233,-15.4842482504,-6.5864714364\H,0,-4.4901578061,-12.3343613054
 ,-8.7100360978\O,0,-8.9494090543,-13.5407521086,-6.8505429108\C,0,-7.8
 74226861,-14.1824836436,-6.1591208994\C,0,-7.2007071032,-13.3547682961
 ,-5.1007917608\C,0,-5.820956161,-13.4282868855,-4.9220133147\C,0,-7.27
 50638215,-11.7765590944,-3.2891199069\C,0,-5.2437780673,-12.6649203224
 ,-3.9224776511\H,0,-5.2177320901,-14.0543490362,-5.5591387315\C,0,-7.9
 601064218,-10.8715619041,-2.3579147395\N,0,-5.94870498,-11.8586202501,
 -3.1456937472\H,0,-4.1806978784,-12.6753592888,-3.7298355411\C,0,-9.33
 35505041,-10.6441097965,-2.3656195588\N,0,-7.1711376217,-10.2771453565
 ,-1.4587702388\Cu,0,-5.2684725758,-10.2816010073,-2.0628965611\C,0,-9.
 9019926387,-9.8170195187,-1.4029016002\H,0,-9.9666486375,-11.107260870
 8,-3.1085905011\C,0,-9.0572915833,-9.2552836458,-0.447466092\C,0,-11.3
 67144284,-9.55041377,-1.3601591474\H,0,-9.4688524235,-8.6380485722,0.3
 331174017\H,0,-11.8433854708,-9.7301210506,-2.3256177326\H,0,-11.82930
 19979,-10.2181639453,-0.6326264964\H,0,-11.5772265967,-8.5272649899,-1
 .0583974119\C,0,-12.2090655763,-12.3974363298,-5.7019867495\H,0,-12.21
 42972298,-13.0075973158,-4.7966489725\H,0,-12.1252977283,-11.343596812
 7,-5.4119962463\N,0,-4.4371746017,-8.6702603477,-1.2694723603\O,0,-3.3
 513058686,-10.9075513084,-2.099003595\C,0,-3.1131664817,-8.8321095332,
 -1.118539484\C,0,-4.7934449199,-7.5524802998,-0.6188220954\C,0,-2.5615
 542498,-9.9614137672,-1.8692650165\N,0,-2.6242837954,-7.8407087061,-0.
 3311234675\H,0,-5.798497602,-7.1897843965,-0.6125781684\C,0,-3.6698074
 116,-7.0321077694,-0.0300373398\C,0,-1.2322180809,-9.9270761586,-2.410
 6860516\C,0,-1.2842361578,-7.6830964961,0.2697891803\H,0,-3.5792008994
 ,-6.1546859694,0.5727785294\C,0,-0.693220233,-9.0656147115,0.555667316
 3\H,0,-0.3304896434,-9.5507027358,-0.3412976066\H,0,0.1438946938,-8.96
 81532566,1.2405400835\H,0,-1.4438159726,-9.6932315614,1.0306988785\C,0
 ,-1.4174208548,-6.9459587237,1.6066278849\H,0,-1.7091898663,-5.9084981
 929,1.4799415374\H,0,-2.1283868632,-7.4454778114,2.2584100678\H,0,-0.4
 495000205,-6.9451017728,2.0980750746\C,0,-11.0501593507,-12.7780149527
 ,-6.5503157847\N,0,-10.028421305,-13.2863681403,-6.0166971329\C,0,-7.7
 021907171,-9.5050295769,-0.5235551664\H,0,-7.0071435162,-9.0886387694,
 0.1888506483\C,0,-7.9312684445,-12.5263993749,-4.2566280787\H,0,-9.001
 7035566,-12.4704006058,-4.366047945\H,0,-0.7233128563,-8.9780490567,-2
 .4042745689\C,0,-0.6379732369,-10.9994879521,-2.9669622388\C,0,-0.4168
 693343,-6.8531634369,-0.6785677222\C,0,0.7336358,-10.9657271255,-3.493
 5995886\H,0,1.3934405547,-11.5213740701,-2.8223471656\H,0,1.0951439081
 ,-9.945621743,-3.5615902164\H,0,0.620531734,-6.9249889583,-0.368744771
 7\H,0,-0.5044084357,-7.1902337406,-1.705244049\H,0,-0.7195031738,-5.81
 07978225,-0.6399809231\H,0,0.7944282883,-11.4656527241,-4.4590125123\H
 ,0,-1.1650566504,-11.9438721095,-2.9807370227\H,0,-11.1207903287,-12.5
 873005422,-7.6234501644\H,0,-8.2339895413,-15.1089240632,-5.6900261558
 \H,0,-7.1778968958,-14.4233031647,-6.964281063\\Version=ES64L-G16RevC.
 01\State=1-A\HF=-25900.2146291\S2=1.005717\S2-1=0.\S2A=0.045922\RMSD=2
 .389e-10\Dipole=63.9361623,9.0806741,5.3127548\Quadrupole=-533.2022912
 ,64.4862644,468.7160268,-91.3111273,248.8667295,26.4046483\PG=C01 [X(C
 191H241Cu2N59O96P14)]\\@
 The archive entry for this job was punched.


 KNOWLEDGE IS CHIMERA - FOR BEYOND IT LIES OTHER KNOWLEDGE,
 AND THE INCOMPLETENESS OF WHAT IS KNOWN RENDERS THE KNOWING FALSE.
     -- THE THOMAS COVENANT CHRONICLES
 Job cpu time:       6 days 16 hours 25 minutes 40.1 seconds.
 Elapsed time:       0 days  2 hours 40 minutes 33.7 seconds.
 File lengths (MBytes):  RWF=  61462 Int=      0 D2E=      0 Chk=   6910 Scr=      1
 Normal termination of Gaussian 16 at Mon Jul 21 19:13:44 2025.
