 Entering Gaussian System, Link 0=/home/users/astar/bmsi/zhangx5/programs/g16/g16
 Input=/home/users/astar/bmsi/zhangx5/scratch/dppeFeCl2_phenyldioxazolone_opt_triplet_opt_link/dppeFeCl2_phenyldioxazolone_opt_triplet_opt_link.com
 Output=/home/users/astar/bmsi/zhangx5/scratch/dppeFeCl2_phenyldioxazolone_opt_triplet_opt_link/dppeFeCl2_phenyldioxazolone_opt_triplet_opt_link.log
 Initial command:
 /home/users/astar/bmsi/zhangx5/programs/g16/l1.exe "/scratch/users/astar/bmsi/zhangx5/dppeFeCl2_phenyldioxazolone_opt_triplet_opt_link/Gau-359452.inp" -scrdir="/scratch/users/astar/bmsi/zhangx5/dppeFeCl2_phenyldioxazolone_opt_triplet_opt_link/"
 Entering Link 1 = /home/users/astar/bmsi/zhangx5/programs/g16/l1.exe PID=    359453.
  
 Copyright (c) 1988-2017, Gaussian, Inc.  All Rights Reserved.
  
 This is part of the Gaussian(R) 16 program.  It is based on
 the Gaussian(R) 09 system (copyright 2009, Gaussian, Inc.),
 the Gaussian(R) 03 system (copyright 2003, Gaussian, Inc.),
 the Gaussian(R) 98 system (copyright 1998, Gaussian, Inc.),
 the Gaussian(R) 94 system (copyright 1995, Gaussian, Inc.),
 the Gaussian 92(TM) system (copyright 1992, Gaussian, Inc.),
 the Gaussian 90(TM) system (copyright 1990, Gaussian, Inc.),
 the Gaussian 88(TM) system (copyright 1988, Gaussian, Inc.),
 the Gaussian 86(TM) system (copyright 1986, Carnegie Mellon
 University), and the Gaussian 82(TM) system (copyright 1983,
 Carnegie Mellon University). Gaussian is a federally registered
 trademark of Gaussian, Inc.
  
 This software contains proprietary and confidential information,
 including trade secrets, belonging to Gaussian, Inc.
  
 This software is provided under written license and may be
 used, copied, transmitted, or stored only in accord with that
 written license.
  
 The following legend is applicable only to US Government
 contracts under FAR:
  
                    RESTRICTED RIGHTS LEGEND
  
 Use, reproduction and disclosure by the US Government is
 subject to restrictions as set forth in subparagraphs (a)
 and (c) of the Commercial Computer Software - Restricted
 Rights clause in FAR 52.227-19.
  
 Gaussian, Inc.
 340 Quinnipiac St., Bldg. 40, Wallingford CT 06492
  
  
 ---------------------------------------------------------------
 Warning -- This program may not be used in any manner that
 competes with the business of Gaussian, Inc. or will provide
 assistance to any competitor of Gaussian, Inc.  The licensee
 of this program is prohibited from giving any competitor of
 Gaussian, Inc. access to this program.  By using this program,
 the user acknowledges that Gaussian, Inc. is engaged in the
 business of creating and licensing software in the field of
 computational chemistry and represents and warrants to the
 licensee that it is not a competitor of Gaussian, Inc. and that
 it will not use this program in any manner prohibited above.
 ---------------------------------------------------------------
  

 Cite this work as:
 Gaussian 16, Revision B.01,
 M. J. Frisch, G. W. Trucks, H. B. Schlegel, G. E. Scuseria, 
 M. A. Robb, J. R. Cheeseman, G. Scalmani, V. Barone, 
 G. A. Petersson, H. Nakatsuji, X. Li, M. Caricato, A. V. Marenich, 
 J. Bloino, B. G. Janesko, R. Gomperts, B. Mennucci, H. P. Hratchian, 
 J. V. Ortiz, A. F. Izmaylov, J. L. Sonnenberg, D. Williams-Young, 
 F. Ding, F. Lipparini, F. Egidi, J. Goings, B. Peng, A. Petrone, 
 T. Henderson, D. Ranasinghe, V. G. Zakrzewski, J. Gao, N. Rega, 
 G. Zheng, W. Liang, M. Hada, M. Ehara, K. Toyota, R. Fukuda, 
 J. Hasegawa, M. Ishida, T. Nakajima, Y. Honda, O. Kitao, H. Nakai, 
 T. Vreven, K. Throssell, J. A. Montgomery, Jr., J. E. Peralta, 
 F. Ogliaro, M. J. Bearpark, J. J. Heyd, E. N. Brothers, K. N. Kudin, 
 V. N. Staroverov, T. A. Keith, R. Kobayashi, J. Normand, 
 K. Raghavachari, A. P. Rendell, J. C. Burant, S. S. Iyengar, 
 J. Tomasi, M. Cossi, J. M. Millam, M. Klene, C. Adamo, R. Cammi, 
 J. W. Ochterski, R. L. Martin, K. Morokuma, O. Farkas, 
 J. B. Foresman, and D. J. Fox, Gaussian, Inc., Wallingford CT, 2016.
 
 ******************************************
 Gaussian 16:  ES64L-G16RevB.01 20-Dec-2017
                14-Mar-2025 
 ******************************************
 %chk=dppeFeCl2_phenyldioxazolone_opt_triplet_opt_link.chk
 %nprocshared=64
 Will use up to   64 processors via shared memory.
 %mem=400GB
 -------------------------------------------
 # umn15 def2svp scf=qc stable=opt guess=mix
 -------------------------------------------
 1/38=1,172=1/1;
 2/12=2,17=6,18=5,40=1/2;
 3/5=43,7=101,11=2,25=1,30=1,74=-73,116=2/1,2,3;
 4/13=-1/1;
 5/5=2,8=3,38=5/8;
 6/7=2,8=2,9=2,10=2,28=1/1;
 8/6=1,10=90,11=11/1;
 9/8=-3,42=1,46=1/14;
 5/5=2,8=3,17=40,38=5/8(-2);
 6/7=2,8=2,9=2,10=2,28=1/1;
 99/5=1,9=1/99;
 ----------------------------------
 Gaussian job with default settings
 ----------------------------------
 Symbolic Z-matrix:
 Charge =  0 Multiplicity = 3
 P                    -0.58307   0.76091   0.92181 
 P                     2.3301    0.18229   0.44447 
 C                     0.6732    1.46698   2.11211 
 C                     1.9469    0.62345   2.18539 
 C                    -1.32689   2.32065   0.31033 
 C                    -1.89369   0.09082   2.00448 
 C                     3.6185   -1.08462   0.40072 
 C                     3.20637   1.66662  -0.14528 
 C                    -2.07506   3.13623   1.17554 
 C                    -3.24848   0.198     1.65974 
 C                     4.10111  -1.74975   1.53228 
 C                     4.56642   1.86169   0.14419 
 C                    -1.07548   2.76441  -0.99481 
 C                    -1.54868  -0.57869   3.18893 
 C                     4.10011  -1.42743  -0.87234 
 C                     2.49811   2.66848  -0.81777 
 C                    -2.57498   4.36214   0.73663 
 C                    -4.23615  -0.35729   2.47617 
 C                     5.07726  -2.7383    1.3927 
 C                     5.20154   3.04456  -0.23253 
 C                    -1.56598   3.99941  -1.42902 
 C                    -2.53628  -1.12431   4.00808 
 C                     5.07193  -2.4179   -1.00627 
 C                     3.13369   3.8553   -1.18848 
 C                    -2.3212    4.7965   -0.56777 
 C                    -3.883    -1.01996   3.6519 
 C                     5.56336  -3.07153   0.12696 
 C                     4.48522   4.04365  -0.89825 
 H                     0.20771   1.63115   3.09682 
 H                     0.91383   2.45987   1.69515 
 H                     1.77236  -0.32062   2.72047 
 H                     2.77796   1.17573   2.65093 
 H                    -2.2759    2.80405   2.19828 
 H                    -3.5432    0.73331   0.75425 
 H                     3.71233  -1.50552   2.52347 
 H                     5.13024   1.0798    0.66127 
 H                    -0.50104   2.12975  -1.67734 
 H                    -0.49763  -0.69264   3.46111 
 H                     3.69581  -0.91766  -1.75401 
 H                     1.45039   2.49956  -1.06342 
 H                    -3.16098   4.98369   1.41731 
 H                    -5.28568  -0.26432   2.18595 
 H                     5.45445  -3.25578   2.27744 
 H                     6.26086   3.18723  -0.00765 
 H                    -1.36031   4.3326   -2.44899 
 H                    -2.25002  -1.64143   4.92631 
 H                     5.44216  -2.68502  -1.99831 
 H                     2.5698    4.62915  -1.71397 
 H                    -2.71009   5.75872  -0.90882 
 H                    -4.65489  -1.45229   4.29256 
 H                     6.32312  -3.84926   0.02213 
 H                     4.98549   4.9684   -1.19483 
 Fe                    0.46334  -0.6132   -0.41565 
 Cl                    0.57756  -2.10254   1.30558 
 Cl                    0.83137   0.18864  -2.47678 
 O                    -2.49076  -3.32684  -1.64252 
 O                    -0.3526   -3.08398  -1.3648 
 O                    -1.14747  -5.16421  -1.8267 
 N                    -0.95466  -1.84851  -1.15611 
 C                    -3.26999  -1.03959  -1.42685 
 C                    -2.21042  -2.03709  -1.38059 
 C                    -4.58072  -1.38875  -1.07172 
 C                    -2.95537   0.2551   -1.85678 
 C                    -5.57635  -0.41645  -1.11338 
 C                    -3.9613    1.2211   -1.89445 
 C                    -5.26468   0.88705  -1.51771 
 C                    -1.29739  -4.00903  -1.62885 
 H                    -4.80304  -2.40923  -0.75369 
 H                    -1.92745   0.47116  -2.16322 
 H                    -6.59922  -0.67239  -0.82997 
 H                    -3.72294   2.238    -2.21274 
 H                    -6.04878   1.6467   -1.54808 
 
 Stoichiometry    C34H29Cl2FeNO3P2(3)
 Framework group  C1[X(C34H29Cl2FeNO3P2)]
 Deg. of freedom   210
 Full point group                 C1      NOp   1
 Largest Abelian subgroup         C1      NOp   1
 Largest concise Abelian subgroup C1      NOp   1
                         Standard orientation:                         
 ---------------------------------------------------------------------
 Center     Atomic      Atomic             Coordinates (Angstroms)
 Number     Number       Type             X           Y           Z
 ---------------------------------------------------------------------
      1         15           0       -0.583069    0.760907    0.921805
      2         15           0        2.330096    0.182286    0.444472
      3          6           0        0.673203    1.466983    2.112108
      4          6           0        1.946895    0.623446    2.185389
      5          6           0       -1.326886    2.320652    0.310334
      6          6           0       -1.893690    0.090824    2.004485
      7          6           0        3.618504   -1.084621    0.400715
      8          6           0        3.206374    1.666620   -0.145281
      9          6           0       -2.075058    3.136232    1.175536
     10          6           0       -3.248482    0.198002    1.659740
     11          6           0        4.101110   -1.749745    1.532279
     12          6           0        4.566415    1.861685    0.144186
     13          6           0       -1.075481    2.764414   -0.994809
     14          6           0       -1.548683   -0.578694    3.188931
     15          6           0        4.100113   -1.427426   -0.872336
     16          6           0        2.498111    2.668484   -0.817767
     17          6           0       -2.574976    4.362136    0.736628
     18          6           0       -4.236145   -0.357293    2.476171
     19          6           0        5.077262   -2.738302    1.392695
     20          6           0        5.201539    3.044558   -0.232525
     21          6           0       -1.565983    3.999411   -1.429018
     22          6           0       -2.536278   -1.124308    4.008078
     23          6           0        5.071926   -2.417898   -1.006274
     24          6           0        3.133694    3.855299   -1.188478
     25          6           0       -2.321205    4.796497   -0.567766
     26          6           0       -3.882999   -1.019962    3.651901
     27          6           0        5.563357   -3.071532    0.126963
     28          6           0        4.485221    4.043647   -0.898251
     29          1           0        0.207708    1.631150    3.096819
     30          1           0        0.913826    2.459871    1.695153
     31          1           0        1.772357   -0.320620    2.720467
     32          1           0        2.777960    1.175729    2.650934
     33          1           0       -2.275902    2.804047    2.198281
     34          1           0       -3.543203    0.733305    0.754250
     35          1           0        3.712334   -1.505519    2.523469
     36          1           0        5.130243    1.079802    0.661268
     37          1           0       -0.501035    2.129751   -1.677338
     38          1           0       -0.497634   -0.692642    3.461114
     39          1           0        3.695813   -0.917659   -1.754014
     40          1           0        1.450390    2.499560   -1.063416
     41          1           0       -3.160983    4.983687    1.417305
     42          1           0       -5.285675   -0.264320    2.185953
     43          1           0        5.454447   -3.255783    2.277435
     44          1           0        6.260862    3.187230   -0.007649
     45          1           0       -1.360305    4.332598   -2.448988
     46          1           0       -2.250020   -1.641426    4.926313
     47          1           0        5.442160   -2.685020   -1.998314
     48          1           0        2.569797    4.629152   -1.713968
     49          1           0       -2.710087    5.758721   -0.908818
     50          1           0       -4.654887   -1.452292    4.292555
     51          1           0        6.323116   -3.849256    0.022127
     52          1           0        4.985485    4.968397   -1.194828
     53         26           0        0.463337   -0.613199   -0.415650
     54         17           0        0.577564   -2.102536    1.305577
     55         17           0        0.831371    0.188637   -2.476781
     56          8           0       -2.490757   -3.326842   -1.642522
     57          8           0       -0.352598   -3.083978   -1.364798
     58          8           0       -1.147472   -5.164206   -1.826703
     59          7           0       -0.954657   -1.848507   -1.156108
     60          6           0       -3.269986   -1.039589   -1.426850
     61          6           0       -2.210419   -2.037095   -1.380593
     62          6           0       -4.580719   -1.388754   -1.071724
     63          6           0       -2.955367    0.255102   -1.856784
     64          6           0       -5.576353   -0.416448   -1.113384
     65          6           0       -3.961303    1.221098   -1.894450
     66          6           0       -5.264683    0.887046   -1.517707
     67          6           0       -1.297389   -4.009035   -1.628850
     68          1           0       -4.803043   -2.409227   -0.753686
     69          1           0       -1.927453    0.471160   -2.163223
     70          1           0       -6.599221   -0.672391   -0.829969
     71          1           0       -3.722938    2.237998   -2.212738
     72          1           0       -6.048784    1.646703   -1.548082
 ---------------------------------------------------------------------
 Rotational constants (GHZ):           0.0954303           0.0658258           0.0532134
 Standard basis: def2SVP (5D, 7F)
 There are   827 symmetry adapted cartesian basis functions of A   symmetry.
 There are   780 symmetry adapted basis functions of A   symmetry.
   780 basis functions,  1382 primitive gaussians,   827 cartesian basis functions
   178 alpha electrons      176 beta electrons
       nuclear repulsion energy      7295.5434498837 Hartrees.
 NAtoms=   72 NActive=   72 NUniq=   72 SFac= 1.00D+00 NAtFMM=   60 NAOKFM=T Big=T
 Integral buffers will be    131072 words long.
 Raffenetti 2 integral format.
 Two-electron integral symmetry is turned on.
 One-electron integrals computed using PRISM.
   1 Symmetry operations used in ECPInt.
 ECPInt:  NShTT=   64261 NPrTT=  247466 LenC2=   53344 LenP2D=  128667.
 LDataN:  DoStor=T MaxTD1= 6 Len=  172
 NBasis=   780 RedAO= T EigKep=  2.56D-04  NBF=   780
 NBsUse=   780 1.00D-06 EigRej= -1.00D+00 NBFU=   780
 ExpMin= 3.37D-02 ExpMax= 6.09D+04 ExpMxC= 9.15D+03 IAcc=3 IRadAn=         5 AccDes= 0.00D+00
 Harris functional with IExCor= 1009 and IRadAn=       5 diagonalized for initial guess.
 HarFok:  IExCor= 1009 AccDes= 0.00D+00 IRadAn=         5 IDoV= 1 UseB2=F ITyADJ=14
 ICtDFT=  3500011 ScaDFX=  1.000000  1.000000  1.000000  1.000000
 FoFCou: FMM=F IPFlag=           0 FMFlag=      100000 FMFlg1=        2001
         NFxFlg=           0 DoJE=T BraDBF=F KetDBF=T FulRan=T
         wScrn=  0.000000 ICntrl=       500 IOpCl=  0 I1Cent=   200000004 NGrid=           0
         NMat0=    1 NMatS0=      1 NMatT0=    0 NMatD0=    1 NMtDS0=    0 NMtDT0=    0
 Petite list used in FoFCou.
 Mixing orbitals, IMix= 1 IMixAn=  0 NRI=1 NE=  178 Coef=  7.07106781D-01  7.07106781D-01
 Mixing orbitals, IMix= 1 IMixAn=  0 NRI=1 NE=  176 Coef= -7.07106781D-01  7.07106781D-01
 Initial guess <Sx>= 0.0000 <Sy>= 0.0000 <Sz>= 1.0000 <S**2>= 2.0000 S= 1.0000
 Gradient too large for Newton-Raphson -- use scaled steepest descent instead.
     Minimum is close to point  3 DX=  4.17D-02 DF= -7.99D-03 DXR=  9.45D-02 DFR=  8.87D-03 which will be used.
 Gradient too large for Newton-Raphson -- use scaled steepest descent instead.
     Accept linear search using points  1 and  2.
 Gradient too large for Newton-Raphson -- use scaled steepest descent instead.
     Accept linear search using points  2 and  3.
 Gradient too large for Newton-Raphson -- use scaled steepest descent instead.
     Accept linear search using points  1 and  2.
 Gradient too large for Newton-Raphson -- use scaled steepest descent instead.
     Accept linear search using points  3 and  4.
 Gradient too large for Newton-Raphson -- use scaled steepest descent instead.
     Accept linear search using points  1 and  2.
 Gradient too large for Newton-Raphson -- use scaled steepest descent instead.
     Minimum is close to point  3 DX=  5.16D-02 DF= -5.44D-06 DXR=  2.95D-02 DFR=  9.07D-04 which will be used.
 Gradient too large for Newton-Raphson -- use scaled steepest descent instead.
 Restarting incremental Fock formation.
     Accept linear search using points  1 and  2.
 Gradient too large for Newton-Raphson -- use scaled steepest descent instead.
     Accept linear search using points  2 and  3.
 Gradient too large for Newton-Raphson -- use scaled steepest descent instead.
 Gradient too large for Newton-Raphson -- use scaled steepest descent instead.
     Accept linear search using points  1 and  2.
 Gradient too large for Newton-Raphson -- use scaled steepest descent instead.
     Accept linear search using points  1 and  2.
 Gradient too large for Newton-Raphson -- use scaled steepest descent instead.
     Accept linear search using points  2 and  3.
 Gradient too large for Newton-Raphson -- use scaled steepest descent instead.
 LinEq1:  Iter=  0 NonCon=     1 RMS=8.32D-05 Max=2.31D-02 NDo=     1
 AX will form     1 AO Fock derivatives at one time.
 LinEq1:  Iter=  1 NonCon=     1 RMS=9.10D-05 Max=8.20D-03 NDo=     1
 LinEq1:  Iter=  2 NonCon=     1 RMS=5.44D-05 Max=1.08D-02 NDo=     1
 LinEq1:  Iter=  3 NonCon=     1 RMS=4.27D-05 Max=5.12D-03 NDo=     1
 LinEq1:  Iter=  4 NonCon=     1 RMS=2.99D-05 Max=4.30D-03 NDo=     1
 LinEq1:  Iter=  5 NonCon=     1 RMS=2.56D-05 Max=2.61D-03 NDo=     1
 LinEq1:  Iter=  6 NonCon=     1 RMS=1.05D-05 Max=8.04D-04 NDo=     1
 LinEq1:  Iter=  7 NonCon=     1 RMS=9.47D-06 Max=8.67D-04 NDo=     1
 LinEq1:  Iter=  8 NonCon=     1 RMS=6.51D-06 Max=6.79D-04 NDo=     1
 LinEq1:  Iter=  9 NonCon=     1 RMS=4.86D-06 Max=4.57D-04 NDo=     1
 LinEq1:  Iter= 10 NonCon=     1 RMS=3.71D-06 Max=2.62D-04 NDo=     1
 LinEq1:  Iter= 11 NonCon=     1 RMS=2.23D-06 Max=2.00D-04 NDo=     1
 LinEq1:  Iter= 12 NonCon=     1 RMS=1.98D-06 Max=1.69D-04 NDo=     1
 LinEq1:  Iter= 13 NonCon=     1 RMS=1.21D-06 Max=1.04D-04 NDo=     1
 LinEq1:  Iter= 14 NonCon=     1 RMS=9.79D-07 Max=1.17D-04 NDo=     1
 LinEq1:  Iter= 15 NonCon=     1 RMS=7.40D-07 Max=7.46D-05 NDo=     1
 LinEq1:  Iter= 16 NonCon=     1 RMS=5.32D-07 Max=5.66D-05 NDo=     1
 LinEq1:  Iter= 17 NonCon=     1 RMS=3.44D-07 Max=2.91D-05 NDo=     1
 LinEq1:  Iter= 18 NonCon=     1 RMS=2.20D-07 Max=2.03D-05 NDo=     1
 LinEq1:  Iter= 19 NonCon=     1 RMS=1.64D-07 Max=1.23D-05 NDo=     1
 LinEq1:  Iter= 20 NonCon=     1 RMS=1.23D-07 Max=1.19D-05 NDo=     1
 LinEq1:  Iter= 21 NonCon=     1 RMS=7.87D-08 Max=6.12D-06 NDo=     1
 LinEq1:  Iter= 22 NonCon=     1 RMS=5.46D-08 Max=4.71D-06 NDo=     1
 LinEq1:  Iter= 23 NonCon=     1 RMS=3.66D-08 Max=3.59D-06 NDo=     1
 LinEq1:  Iter= 24 NonCon=     1 RMS=2.58D-08 Max=3.35D-06 NDo=     1
 LinEq1:  Iter= 25 NonCon=     1 RMS=1.72D-08 Max=1.96D-06 NDo=     1
 LinEq1:  Iter= 26 NonCon=     1 RMS=1.12D-08 Max=7.80D-07 NDo=     1
 LinEq1:  Iter= 27 NonCon=     0 RMS=7.59D-09 Max=4.03D-07 NDo=     1
 Linear equations converged to 4.620D-08 4.620D-07 after    27 iterations.
 Restarting incremental Fock formation.
 LinEq1:  Iter=  0 NonCon=     1 RMS=5.48D-05 Max=1.46D-02 NDo=     1
 LinEq1:  Iter=  1 NonCon=     1 RMS=6.13D-05 Max=5.37D-03 NDo=     1
 LinEq1:  Iter=  2 NonCon=     1 RMS=3.94D-05 Max=7.21D-03 NDo=     1
 LinEq1:  Iter=  3 NonCon=     1 RMS=3.72D-05 Max=5.56D-03 NDo=     1
 LinEq1:  Iter=  4 NonCon=     1 RMS=2.60D-05 Max=2.83D-03 NDo=     1
 LinEq1:  Iter=  5 NonCon=     1 RMS=2.11D-05 Max=2.03D-03 NDo=     1
 LinEq1:  Iter=  6 NonCon=     1 RMS=1.06D-05 Max=8.46D-04 NDo=     1
 LinEq1:  Iter=  7 NonCon=     1 RMS=8.99D-06 Max=8.17D-04 NDo=     1
 LinEq1:  Iter=  8 NonCon=     1 RMS=5.95D-06 Max=6.98D-04 NDo=     1
 LinEq1:  Iter=  9 NonCon=     1 RMS=4.46D-06 Max=3.91D-04 NDo=     1
 LinEq1:  Iter= 10 NonCon=     1 RMS=3.29D-06 Max=2.70D-04 NDo=     1
 LinEq1:  Iter= 11 NonCon=     1 RMS=2.31D-06 Max=2.42D-04 NDo=     1
 LinEq1:  Iter= 12 NonCon=     1 RMS=1.93D-06 Max=2.05D-04 NDo=     1
 LinEq1:  Iter= 13 NonCon=     1 RMS=1.47D-06 Max=1.86D-04 NDo=     1
 LinEq1:  Iter= 14 NonCon=     1 RMS=1.04D-06 Max=9.51D-05 NDo=     1
 LinEq1:  Iter= 15 NonCon=     1 RMS=7.90D-07 Max=1.04D-04 NDo=     1
 LinEq1:  Iter= 16 NonCon=     1 RMS=5.80D-07 Max=6.45D-05 NDo=     1
 LinEq1:  Iter= 17 NonCon=     1 RMS=3.90D-07 Max=4.63D-05 NDo=     1
 LinEq1:  Iter= 18 NonCon=     1 RMS=3.11D-07 Max=3.15D-05 NDo=     1
 LinEq1:  Iter= 19 NonCon=     1 RMS=2.05D-07 Max=1.73D-05 NDo=     1
 LinEq1:  Iter= 20 NonCon=     1 RMS=1.34D-07 Max=1.34D-05 NDo=     1
 LinEq1:  Iter= 21 NonCon=     1 RMS=7.61D-08 Max=5.74D-06 NDo=     1
 LinEq1:  Iter= 22 NonCon=     1 RMS=5.35D-08 Max=4.29D-06 NDo=     1
 LinEq1:  Iter= 23 NonCon=     1 RMS=3.35D-08 Max=2.81D-06 NDo=     1
 LinEq1:  Iter= 24 NonCon=     1 RMS=2.11D-08 Max=2.25D-06 NDo=     1
 LinEq1:  Iter= 25 NonCon=     1 RMS=1.44D-08 Max=1.50D-06 NDo=     1
 LinEq1:  Iter= 26 NonCon=     1 RMS=9.79D-09 Max=7.20D-07 NDo=     1
 LinEq1:  Iter= 27 NonCon=     0 RMS=6.50D-09 Max=3.86D-07 NDo=     1
 Linear equations converged to 4.620D-08 4.620D-07 after    27 iterations.
 Incorrect curvature in search direction -- initial direction reversed.
     Minimum is close to point  3 DX=  6.20D-02 DF= -4.28D-06 DXR=  3.97D-02 DFR=  4.72D-03 which will be used.
 Gradient too large for Newton-Raphson -- use scaled steepest descent instead.
     Accept linear search using points  1 and  2.
 Gradient too large for Newton-Raphson -- use scaled steepest descent instead.
     Accept linear search using points  1 and  2.
 Gradient too large for Newton-Raphson -- use scaled steepest descent instead.
     Accept linear search using points  1 and  2.
     Minimum is close to point  2 DX= -1.85D-03 DF= -2.66D-09 DXR=  1.54D-03 DFR=  3.32D-06 which will be used.
 Gradient too large for Newton-Raphson -- use scaled steepest descent instead.
     Minimum is close to point  3 DX= -2.27D-02 DF= -4.65D-06 DXR=  8.20D-02 DFR=  6.77D-03 which will be used.
 Gradient too large for Newton-Raphson -- use scaled steepest descent instead.
 Gradient too large for Newton-Raphson -- use scaled steepest descent instead.
     Accept linear search using points  1 and  2.
 Gradient too large for Newton-Raphson -- use scaled steepest descent instead.
 Restarting incremental Fock formation.
 Gradient too large for Newton-Raphson -- use scaled steepest descent instead.
 Gradient too large for Newton-Raphson -- use scaled steepest descent instead.
 Gradient too large for Newton-Raphson -- use scaled steepest descent instead.
     Accept linear search using points  1 and  2.
 Gradient too large for Newton-Raphson -- use scaled steepest descent instead.
 Gradient too large for Newton-Raphson -- use scaled steepest descent instead.
     Accept linear search using points  1 and  2.
 Restarting incremental Fock formation.
 Gradient too large for Newton-Raphson -- use scaled steepest descent instead.
     Minimum is close to point  4 DX= -9.32D-03 DF= -4.02D-07 DXR=  3.20D-02 DFR=  1.03D-03 which will be used.
 Gradient too large for Newton-Raphson -- use scaled steepest descent instead.
     Accept linear search using points  1 and  2.
 Gradient too large for Newton-Raphson -- use scaled steepest descent instead.
     Accept linear search using points  1 and  2.
 LinEq1:  Iter=  0 NonCon=     1 RMS=6.56D-05 Max=1.73D-02 NDo=     1
 LinEq1:  Iter=  1 NonCon=     1 RMS=1.09D-05 Max=1.79D-03 NDo=     1
 LinEq1:  Iter=  2 NonCon=     1 RMS=2.08D-05 Max=2.10D-03 NDo=     1
 LinEq1:  Iter=  3 NonCon=     1 RMS=9.89D-06 Max=9.81D-04 NDo=     1
 LinEq1:  Iter=  4 NonCon=     1 RMS=9.83D-06 Max=8.36D-04 NDo=     1
 LinEq1:  Iter=  5 NonCon=     1 RMS=4.62D-06 Max=5.77D-04 NDo=     1
 LinEq1:  Iter=  6 NonCon=     1 RMS=3.78D-06 Max=5.27D-04 NDo=     1
 LinEq1:  Iter=  7 NonCon=     1 RMS=2.53D-06 Max=2.97D-04 NDo=     1
 LinEq1:  Iter=  8 NonCon=     1 RMS=1.90D-06 Max=2.23D-04 NDo=     1
 LinEq1:  Iter=  9 NonCon=     1 RMS=1.20D-06 Max=1.31D-04 NDo=     1
 LinEq1:  Iter= 10 NonCon=     1 RMS=9.24D-07 Max=1.22D-04 NDo=     1
 LinEq1:  Iter= 11 NonCon=     1 RMS=6.53D-07 Max=4.05D-05 NDo=     1
 LinEq1:  Iter= 12 NonCon=     1 RMS=4.50D-07 Max=3.92D-05 NDo=     1
 LinEq1:  Iter= 13 NonCon=     1 RMS=3.15D-07 Max=2.86D-05 NDo=     1
 LinEq1:  Iter= 14 NonCon=     1 RMS=1.95D-07 Max=2.08D-05 NDo=     1
 LinEq1:  Iter= 15 NonCon=     1 RMS=1.58D-07 Max=1.77D-05 NDo=     1
 LinEq1:  Iter= 16 NonCon=     1 RMS=1.10D-07 Max=1.27D-05 NDo=     1
 LinEq1:  Iter= 17 NonCon=     1 RMS=7.61D-08 Max=5.08D-06 NDo=     1
 LinEq1:  Iter= 18 NonCon=     1 RMS=5.37D-08 Max=3.38D-06 NDo=     1
 LinEq1:  Iter= 19 NonCon=     1 RMS=3.45D-08 Max=2.39D-06 NDo=     1
 LinEq1:  Iter= 20 NonCon=     1 RMS=2.26D-08 Max=1.77D-06 NDo=     1
 LinEq1:  Iter= 21 NonCon=     1 RMS=1.44D-08 Max=1.26D-06 NDo=     1
 LinEq1:  Iter= 22 NonCon=     1 RMS=1.01D-08 Max=7.63D-07 NDo=     1
 LinEq1:  Iter= 23 NonCon=     0 RMS=5.96D-09 Max=4.26D-07 NDo=     1
 Linear equations converged to 4.620D-08 4.620D-07 after    23 iterations.
     Minimum is close to point  3 DX= -3.34D-02 DF= -1.24D-05 DXR=  7.15D-02 DFR=  5.14D-03 which will be used.
 Gradient too large for Newton-Raphson -- use scaled steepest descent instead.
     Accept linear search using points  2 and  3.
 LinEq1:  Iter=  0 NonCon=     1 RMS=1.90D-05 Max=2.80D-03 NDo=     1
 LinEq1:  Iter=  1 NonCon=     1 RMS=3.62D-05 Max=5.14D-03 NDo=     1
 LinEq1:  Iter=  2 NonCon=     1 RMS=2.86D-05 Max=1.86D-03 NDo=     1
 LinEq1:  Iter=  3 NonCon=     1 RMS=2.09D-05 Max=2.50D-03 NDo=     1
 LinEq1:  Iter=  4 NonCon=     1 RMS=1.97D-05 Max=2.24D-03 NDo=     1
 LinEq1:  Iter=  5 NonCon=     1 RMS=1.11D-05 Max=1.30D-03 NDo=     1
 LinEq1:  Iter=  6 NonCon=     1 RMS=8.54D-06 Max=7.16D-04 NDo=     1
 LinEq1:  Iter=  7 NonCon=     1 RMS=5.84D-06 Max=3.95D-04 NDo=     1
 LinEq1:  Iter=  8 NonCon=     1 RMS=4.05D-06 Max=4.39D-04 NDo=     1
 LinEq1:  Iter=  9 NonCon=     1 RMS=3.26D-06 Max=4.23D-04 NDo=     1
 LinEq1:  Iter= 10 NonCon=     1 RMS=2.12D-06 Max=1.67D-04 NDo=     1
 LinEq1:  Iter= 11 NonCon=     1 RMS=1.42D-06 Max=9.57D-05 NDo=     1
 LinEq1:  Iter= 12 NonCon=     1 RMS=1.05D-06 Max=7.25D-05 NDo=     1
 LinEq1:  Iter= 13 NonCon=     1 RMS=6.28D-07 Max=5.41D-05 NDo=     1
 LinEq1:  Iter= 14 NonCon=     1 RMS=4.69D-07 Max=4.97D-05 NDo=     1
 LinEq1:  Iter= 15 NonCon=     1 RMS=3.61D-07 Max=3.51D-05 NDo=     1
 LinEq1:  Iter= 16 NonCon=     1 RMS=1.95D-07 Max=1.24D-05 NDo=     1
 LinEq1:  Iter= 17 NonCon=     1 RMS=1.37D-07 Max=9.64D-06 NDo=     1
 LinEq1:  Iter= 18 NonCon=     1 RMS=1.00D-07 Max=1.16D-05 NDo=     1
 LinEq1:  Iter= 19 NonCon=     1 RMS=6.94D-08 Max=1.06D-05 NDo=     1
 LinEq1:  Iter= 20 NonCon=     1 RMS=4.92D-08 Max=7.60D-06 NDo=     1
 LinEq1:  Iter= 21 NonCon=     1 RMS=2.82D-08 Max=3.41D-06 NDo=     1
 LinEq1:  Iter= 22 NonCon=     1 RMS=1.99D-08 Max=2.09D-06 NDo=     1
 LinEq1:  Iter= 23 NonCon=     1 RMS=1.36D-08 Max=8.86D-07 NDo=     1
 LinEq1:  Iter= 24 NonCon=     1 RMS=6.77D-09 Max=5.34D-07 NDo=     1
 LinEq1:  Iter= 25 NonCon=     0 RMS=4.29D-09 Max=3.25D-07 NDo=     1
 Linear equations converged to 4.559D-08 4.559D-07 after    25 iterations.
     Accept linear search using points  1 and  2.
     Minimum is close to point  2 DX= -9.61D-03 DF= -8.25D-09 DXR=  9.70D-03 DFR=  9.47D-05 which will be used.
 LinEq1:  Iter=  0 NonCon=     1 RMS=6.25D-07 Max=6.99D-05 NDo=     1
 LinEq1:  Iter=  1 NonCon=     1 RMS=1.03D-06 Max=1.09D-04 NDo=     1
 LinEq1:  Iter=  2 NonCon=     1 RMS=8.50D-07 Max=7.47D-05 NDo=     1
 LinEq1:  Iter=  3 NonCon=     1 RMS=6.91D-07 Max=4.13D-05 NDo=     1
 LinEq1:  Iter=  4 NonCon=     1 RMS=4.76D-07 Max=4.05D-05 NDo=     1
 LinEq1:  Iter=  5 NonCon=     1 RMS=3.56D-07 Max=3.24D-05 NDo=     1
 LinEq1:  Iter=  6 NonCon=     1 RMS=2.15D-07 Max=2.94D-05 NDo=     1
 LinEq1:  Iter=  7 NonCon=     1 RMS=1.82D-07 Max=2.29D-05 NDo=     1
 LinEq1:  Iter=  8 NonCon=     1 RMS=1.17D-07 Max=1.46D-05 NDo=     1
 LinEq1:  Iter=  9 NonCon=     1 RMS=8.13D-08 Max=9.22D-06 NDo=     1
 LinEq1:  Iter= 10 NonCon=     1 RMS=6.23D-08 Max=6.26D-06 NDo=     1
 LinEq1:  Iter= 11 NonCon=     1 RMS=4.56D-08 Max=3.75D-06 NDo=     1
 LinEq1:  Iter= 12 NonCon=     1 RMS=3.44D-08 Max=2.65D-06 NDo=     1
 LinEq1:  Iter= 13 NonCon=     1 RMS=2.00D-08 Max=1.45D-06 NDo=     1
 LinEq1:  Iter= 14 NonCon=     1 RMS=1.61D-08 Max=1.23D-06 NDo=     1
 LinEq1:  Iter= 15 NonCon=     1 RMS=1.06D-08 Max=1.02D-06 NDo=     1
 LinEq1:  Iter= 16 NonCon=     1 RMS=7.15D-09 Max=7.95D-07 NDo=     1
 LinEq1:  Iter= 17 NonCon=     1 RMS=5.09D-09 Max=5.47D-07 NDo=     1
 LinEq1:  Iter= 18 NonCon=     1 RMS=3.64D-09 Max=3.78D-07 NDo=     1
 LinEq1:  Iter= 19 NonCon=     1 RMS=2.61D-09 Max=2.48D-07 NDo=     1
 LinEq1:  Iter= 20 NonCon=     1 RMS=1.62D-09 Max=1.14D-07 NDo=     1
 LinEq1:  Iter= 21 NonCon=     1 RMS=1.12D-09 Max=8.94D-08 NDo=     1
 LinEq1:  Iter= 22 NonCon=     1 RMS=6.16D-10 Max=3.42D-08 NDo=     1
 LinEq1:  Iter= 23 NonCon=     0 RMS=3.21D-10 Max=1.87D-08 NDo=     1
 Linear equations converged to 2.948D-09 2.948D-08 after    23 iterations.
 SCF Done:  E(UMN15) =  -4456.12293060     a.u. after   36 cycles
            Convg  =    0.2687D-06                   220 Fock formations.
              S**2 =  2.0135                  -V/T =  2.0060
 <Sx>= 0.0000 <Sy>= 0.0000 <Sz>= 1.0000 <S**2>= 2.0135 S= 1.0045
 <L.S>= 0.000000000000E+00
 Annihilation of the first spin contaminant:
 S**2 before annihilation     2.0135,   after     2.0001

 **********************************************************************

            Population analysis using the SCF Density.

 **********************************************************************

 Orbital symmetries:
 Alpha Orbitals:
       Occupied  (A) (A) (A) (A) (A) (A) (A) (A) (A) (A) (A) (A)
                 (A) (A) (A) (A) (A) (A) (A) (A) (A) (A) (A) (A)
                 (A) (A) (A) (A) (A) (A) (A) (A) (A) (A) (A) (A)
                 (A) (A) (A) (A) (A) (A) (A) (A) (A) (A) (A) (A)
                 (A) (A) (A) (A) (A) (A) (A) (A) (A) (A) (A) (A)
                 (A) (A) (A) (A) (A) (A) (A) (A) (A) (A) (A) (A)
                 (A) (A) (A) (A) (A) (A) (A) (A) (A) (A) (A) (A)
                 (A) (A) (A) (A) (A) (A) (A) (A) (A) (A) (A) (A)
                 (A) (A) (A) (A) (A) (A) (A) (A) (A) (A) (A) (A)
                 (A) (A) (A) (A) (A) (A) (A) (A) (A) (A) (A) (A)
                 (A) (A) (A) (A) (A) (A) (A) (A) (A) (A) (A) (A)
                 (A) (A) (A) (A) (A) (A) (A) (A) (A) (A) (A) (A)
                 (A) (A) (A) (A) (A) (A) (A) (A) (A) (A) (A) (A)
                 (A) (A) (A) (A) (A) (A) (A) (A) (A) (A) (A) (A)
                 (A) (A) (A) (A) (A) (A) (A) (A) (A) (A)
       Virtual   (A) (A) (A) (A) (A) (A) (A) (A) (A) (A) (A) (A)
                 (A) (A) (A) (A) (A) (A) (A) (A) (A) (A) (A) (A)
                 (A) (A) (A) (A) (A) (A) (A) (A) (A) (A) (A) (A)
                 (A) (A) (A) (A) (A) (A) (A) (A) (A) (A) (A) (A)
                 (A) (A) (A) (A) (A) (A) (A) (A) (A) (A) (A) (A)
                 (A) (A) (A) (A) (A) (A) (A) (A) (A) (A) (A) (A)
                 (A) (A) (A) (A) (A) (A) (A) (A) (A) (A) (A) (A)
                 (A) (A) (A) (A) (A) (A) (A) (A) (A) (A) (A) (A)
                 (A) (A) (A) (A) (A) (A) (A) (A) (A) (A) (A) (A)
                 (A) (A) (A) (A) (A) (A) (A) (A) (A) (A) (A) (A)
                 (A) (A) (A) (A) (A) (A) (A) (A) (A) (A) (A) (A)
                 (A) (A) (A) (A) (A) (A) (A) (A) (A) (A) (A) (A)
                 (A) (A) (A) (A) (A) (A) (A) (A) (A) (A) (A) (A)
                 (A) (A) (A) (A) (A) (A) (A) (A) (A) (A) (A) (A)
                 (A) (A) (A) (A) (A) (A) (A) (A) (A) (A) (A) (A)
                 (A) (A) (A) (A) (A) (A) (A) (A) (A) (A) (A) (A)
                 (A) (A) (A) (A) (A) (A) (A) (A) (A) (A) (A) (A)
                 (A) (A) (A) (A) (A) (A) (A) (A) (A) (A) (A) (A)
                 (A) (A) (A) (A) (A) (A) (A) (A) (A) (A) (A) (A)
                 (A) (A) (A) (A) (A) (A) (A) (A) (A) (A) (A) (A)
                 (A) (A) (A) (A) (A) (A) (A) (A) (A) (A) (A) (A)
                 (A) (A) (A) (A) (A) (A) (A) (A) (A) (A) (A) (A)
                 (A) (A) (A) (A) (A) (A) (A) (A) (A) (A) (A) (A)
                 (A) (A) (A) (A) (A) (A) (A) (A) (A) (A) (A) (A)
                 (A) (A) (A) (A) (A) (A) (A) (A) (A) (A) (A) (A)
                 (A) (A) (A) (A) (A) (A) (A) (A) (A) (A) (A) (A)
                 (A) (A) (A) (A) (A) (A) (A) (A) (A) (A) (A) (A)
                 (A) (A) (A) (A) (A) (A) (A) (A) (A) (A) (A) (A)
                 (A) (A) (A) (A) (A) (A) (A) (A) (A) (A) (A) (A)
                 (A) (A) (A) (A) (A) (A) (A) (A) (A) (A) (A) (A)
                 (A) (A) (A) (A) (A) (A) (A) (A) (A) (A) (A) (A)
                 (A) (A) (A) (A) (A) (A) (A) (A) (A) (A) (A) (A)
                 (A) (A) (A) (A) (A) (A) (A) (A) (A) (A) (A) (A)
                 (A) (A) (A) (A) (A) (A) (A) (A) (A) (A) (A) (A)
                 (A) (A) (A) (A) (A) (A) (A) (A) (A) (A) (A) (A)
                 (A) (A) (A) (A) (A) (A) (A) (A) (A) (A) (A) (A)
                 (A) (A) (A) (A) (A) (A) (A) (A) (A) (A) (A) (A)
                 (A) (A) (A) (A) (A) (A) (A) (A) (A) (A) (A) (A)
                 (A) (A) (A) (A) (A) (A) (A) (A) (A) (A) (A) (A)
                 (A) (A) (A) (A) (A) (A) (A) (A) (A) (A) (A) (A)
                 (A) (A) (A) (A) (A) (A) (A) (A) (A) (A) (A) (A)
                 (A) (A) (A) (A) (A) (A) (A) (A) (A) (A) (A) (A)
                 (A) (A) (A) (A) (A) (A) (A) (A) (A) (A) (A) (A)
                 (A) (A) (A) (A) (A) (A) (A) (A) (A) (A) (A) (A)
                 (A) (A) (A) (A) (A) (A) (A) (A) (A) (A) (A) (A)
                 (A) (A) (A) (A) (A) (A) (A) (A) (A) (A) (A) (A)
                 (A) (A) (A) (A) (A) (A) (A) (A) (A) (A) (A) (A)
                 (A) (A) (A) (A) (A) (A) (A) (A) (A) (A) (A) (A)
                 (A) (A) (A) (A) (A) (A) (A) (A) (A) (A) (A) (A)
                 (A) (A) (A) (A) (A) (A) (A) (A) (A) (A) (A) (A)
                 (A) (A)
 Beta  Orbitals:
       Occupied  (A) (A) (A) (A) (A) (A) (A) (A) (A) (A) (A) (A)
                 (A) (A) (A) (A) (A) (A) (A) (A) (A) (A) (A) (A)
                 (A) (A) (A) (A) (A) (A) (A) (A) (A) (A) (A) (A)
                 (A) (A) (A) (A) (A) (A) (A) (A) (A) (A) (A) (A)
                 (A) (A) (A) (A) (A) (A) (A) (A) (A) (A) (A) (A)
                 (A) (A) (A) (A) (A) (A) (A) (A) (A) (A) (A) (A)
                 (A) (A) (A) (A) (A) (A) (A) (A) (A) (A) (A) (A)
                 (A) (A) (A) (A) (A) (A) (A) (A) (A) (A) (A) (A)
                 (A) (A) (A) (A) (A) (A) (A) (A) (A) (A) (A) (A)
                 (A) (A) (A) (A) (A) (A) (A) (A) (A) (A) (A) (A)
                 (A) (A) (A) (A) (A) (A) (A) (A) (A) (A) (A) (A)
                 (A) (A) (A) (A) (A) (A) (A) (A) (A) (A) (A) (A)
                 (A) (A) (A) (A) (A) (A) (A) (A) (A) (A) (A) (A)
                 (A) (A) (A) (A) (A) (A) (A) (A) (A) (A) (A) (A)
                 (A) (A) (A) (A) (A) (A) (A) (A)
       Virtual   (A) (A) (A) (A) (A) (A) (A) (A) (A) (A) (A) (A)
                 (A) (A) (A) (A) (A) (A) (A) (A) (A) (A) (A) (A)
                 (A) (A) (A) (A) (A) (A) (A) (A) (A) (A) (A) (A)
                 (A) (A) (A) (A) (A) (A) (A) (A) (A) (A) (A) (A)
                 (A) (A) (A) (A) (A) (A) (A) (A) (A) (A) (A) (A)
                 (A) (A) (A) (A) (A) (A) (A) (A) (A) (A) (A) (A)
                 (A) (A) (A) (A) (A) (A) (A) (A) (A) (A) (A) (A)
                 (A) (A) (A) (A) (A) (A) (A) (A) (A) (A) (A) (A)
                 (A) (A) (A) (A) (A) (A) (A) (A) (A) (A) (A) (A)
                 (A) (A) (A) (A) (A) (A) (A) (A) (A) (A) (A) (A)
                 (A) (A) (A) (A) (A) (A) (A) (A) (A) (A) (A) (A)
                 (A) (A) (A) (A) (A) (A) (A) (A) (A) (A) (A) (A)
                 (A) (A) (A) (A) (A) (A) (A) (A) (A) (A) (A) (A)
                 (A) (A) (A) (A) (A) (A) (A) (A) (A) (A) (A) (A)
                 (A) (A) (A) (A) (A) (A) (A) (A) (A) (A) (A) (A)
                 (A) (A) (A) (A) (A) (A) (A) (A) (A) (A) (A) (A)
                 (A) (A) (A) (A) (A) (A) (A) (A) (A) (A) (A) (A)
                 (A) (A) (A) (A) (A) (A) (A) (A) (A) (A) (A) (A)
                 (A) (A) (A) (A) (A) (A) (A) (A) (A) (A) (A) (A)
                 (A) (A) (A) (A) (A) (A) (A) (A) (A) (A) (A) (A)
                 (A) (A) (A) (A) (A) (A) (A) (A) (A) (A) (A) (A)
                 (A) (A) (A) (A) (A) (A) (A) (A) (A) (A) (A) (A)
                 (A) (A) (A) (A) (A) (A) (A) (A) (A) (A) (A) (A)
                 (A) (A) (A) (A) (A) (A) (A) (A) (A) (A) (A) (A)
                 (A) (A) (A) (A) (A) (A) (A) (A) (A) (A) (A) (A)
                 (A) (A) (A) (A) (A) (A) (A) (A) (A) (A) (A) (A)
                 (A) (A) (A) (A) (A) (A) (A) (A) (A) (A) (A) (A)
                 (A) (A) (A) (A) (A) (A) (A) (A) (A) (A) (A) (A)
                 (A) (A) (A) (A) (A) (A) (A) (A) (A) (A) (A) (A)
                 (A) (A) (A) (A) (A) (A) (A) (A) (A) (A) (A) (A)
                 (A) (A) (A) (A) (A) (A) (A) (A) (A) (A) (A) (A)
                 (A) (A) (A) (A) (A) (A) (A) (A) (A) (A) (A) (A)
                 (A) (A) (A) (A) (A) (A) (A) (A) (A) (A) (A) (A)
                 (A) (A) (A) (A) (A) (A) (A) (A) (A) (A) (A) (A)
                 (A) (A) (A) (A) (A) (A) (A) (A) (A) (A) (A) (A)
                 (A) (A) (A) (A) (A) (A) (A) (A) (A) (A) (A) (A)
                 (A) (A) (A) (A) (A) (A) (A) (A) (A) (A) (A) (A)
                 (A) (A) (A) (A) (A) (A) (A) (A) (A) (A) (A) (A)
                 (A) (A) (A) (A) (A) (A) (A) (A) (A) (A) (A) (A)
                 (A) (A) (A) (A) (A) (A) (A) (A) (A) (A) (A) (A)
                 (A) (A) (A) (A) (A) (A) (A) (A) (A) (A) (A) (A)
                 (A) (A) (A) (A) (A) (A) (A) (A) (A) (A) (A) (A)
                 (A) (A) (A) (A) (A) (A) (A) (A) (A) (A) (A) (A)
                 (A) (A) (A) (A) (A) (A) (A) (A) (A) (A) (A) (A)
                 (A) (A) (A) (A) (A) (A) (A) (A) (A) (A) (A) (A)
                 (A) (A) (A) (A) (A) (A) (A) (A) (A) (A) (A) (A)
                 (A) (A) (A) (A) (A) (A) (A) (A) (A) (A) (A) (A)
                 (A) (A) (A) (A) (A) (A) (A) (A) (A) (A) (A) (A)
                 (A) (A) (A) (A) (A) (A) (A) (A) (A) (A) (A) (A)
                 (A) (A) (A) (A) (A) (A) (A) (A) (A) (A) (A) (A)
                 (A) (A) (A) (A)
 The electronic state is 3-A.
 Alpha  occ. eigenvalues -- -254.02413-100.24193-100.23873 -76.13133 -76.12407
 Alpha  occ. eigenvalues --  -29.28994 -25.69544 -25.68942 -25.68058 -18.92728
 Alpha  occ. eigenvalues --  -18.92695 -18.83075 -14.21260 -10.25988 -10.20199
 Alpha  occ. eigenvalues --  -10.10095 -10.09062 -10.08658 -10.08545 -10.08403
 Alpha  occ. eigenvalues --  -10.08083 -10.07331 -10.07245 -10.07167 -10.07125
 Alpha  occ. eigenvalues --  -10.06963 -10.06850 -10.06715 -10.06635 -10.06579
 Alpha  occ. eigenvalues --  -10.06578 -10.06477 -10.06356 -10.06352 -10.06255
 Alpha  occ. eigenvalues --  -10.06217 -10.06207 -10.06179 -10.06142 -10.06122
 Alpha  occ. eigenvalues --  -10.06071 -10.06029 -10.05900 -10.05878 -10.05772
 Alpha  occ. eigenvalues --  -10.05708 -10.05599  -9.08674  -9.08370  -7.10837
 Alpha  occ. eigenvalues --   -7.10569  -7.10495  -7.10256  -7.10119  -7.09994
 Alpha  occ. eigenvalues --   -6.41366  -6.40796  -4.77422  -4.77404  -4.76925
 Alpha  occ. eigenvalues --   -4.76880  -4.76826  -4.76267  -3.33991  -2.25779
 Alpha  occ. eigenvalues --   -2.25724  -2.22689  -1.27699  -1.14043  -1.11197
 Alpha  occ. eigenvalues --   -0.95872  -0.92052  -0.90883  -0.90326  -0.89784
 Alpha  occ. eigenvalues --   -0.89426  -0.84772  -0.83041  -0.81326  -0.80884
 Alpha  occ. eigenvalues --   -0.79437  -0.79213  -0.78549  -0.78388  -0.78164
 Alpha  occ. eigenvalues --   -0.78085  -0.77889  -0.75840  -0.75068  -0.74904
 Alpha  occ. eigenvalues --   -0.73353  -0.71379  -0.68228  -0.67472  -0.66371
 Alpha  occ. eigenvalues --   -0.65333  -0.65262  -0.64633  -0.64384  -0.63838
 Alpha  occ. eigenvalues --   -0.63471  -0.63383  -0.61394  -0.61329  -0.60751
 Alpha  occ. eigenvalues --   -0.59290  -0.57272  -0.56922  -0.56443  -0.55856
 Alpha  occ. eigenvalues --   -0.53807  -0.53296  -0.52373  -0.51499  -0.51145
 Alpha  occ. eigenvalues --   -0.51058  -0.50387  -0.49932  -0.49662  -0.49588
 Alpha  occ. eigenvalues --   -0.49293  -0.49231  -0.49011  -0.48750  -0.48458
 Alpha  occ. eigenvalues --   -0.48061  -0.47945  -0.47832  -0.47255  -0.47066
 Alpha  occ. eigenvalues --   -0.46840  -0.46606  -0.46313  -0.46211  -0.45774
 Alpha  occ. eigenvalues --   -0.44907  -0.43732  -0.43485  -0.43157  -0.42161
 Alpha  occ. eigenvalues --   -0.42132  -0.41914  -0.41645  -0.41465  -0.41161
 Alpha  occ. eigenvalues --   -0.40831  -0.39739  -0.39018  -0.38763  -0.38650
 Alpha  occ. eigenvalues --   -0.38399  -0.38273  -0.38039  -0.37344  -0.37270
 Alpha  occ. eigenvalues --   -0.36995  -0.36206  -0.35855  -0.35371  -0.34417
 Alpha  occ. eigenvalues --   -0.33145  -0.32059  -0.31821  -0.31116  -0.30686
 Alpha  occ. eigenvalues --   -0.30517  -0.30009  -0.29926  -0.29734  -0.29333
 Alpha  occ. eigenvalues --   -0.29206  -0.28973  -0.28714  -0.28141  -0.27460
 Alpha  occ. eigenvalues --   -0.26745  -0.25396  -0.22118
 Alpha virt. eigenvalues --   -0.05202  -0.02143  -0.01846  -0.00855  -0.00559
 Alpha virt. eigenvalues --   -0.00100  -0.00004   0.00606   0.01390   0.01608
 Alpha virt. eigenvalues --    0.02359   0.03815   0.04986   0.05646   0.07311
 Alpha virt. eigenvalues --    0.08453   0.08526   0.09559   0.10106   0.10226
 Alpha virt. eigenvalues --    0.10508   0.10786   0.11426   0.12161   0.12329
 Alpha virt. eigenvalues --    0.12774   0.13436   0.13648   0.14096   0.14521
 Alpha virt. eigenvalues --    0.14737   0.15200   0.15498   0.15669   0.15975
 Alpha virt. eigenvalues --    0.16370   0.16422   0.16676   0.16814   0.17308
 Alpha virt. eigenvalues --    0.17610   0.18032   0.18334   0.18479   0.18942
 Alpha virt. eigenvalues --    0.19204   0.19699   0.19831   0.19927   0.20707
 Alpha virt. eigenvalues --    0.20993   0.21273   0.21662   0.22500   0.23115
 Alpha virt. eigenvalues --    0.23671   0.24731   0.25231   0.26339   0.26838
 Alpha virt. eigenvalues --    0.26980   0.27608   0.28536   0.28788   0.29122
 Alpha virt. eigenvalues --    0.29935   0.30523   0.30773   0.31318   0.31566
 Alpha virt. eigenvalues --    0.31701   0.31962   0.32112   0.32337   0.32590
 Alpha virt. eigenvalues --    0.32815   0.32985   0.33240   0.33364   0.34293
 Alpha virt. eigenvalues --    0.34558   0.35148   0.35900   0.36247   0.36778
 Alpha virt. eigenvalues --    0.37193   0.37537   0.38198   0.39476   0.39706
 Alpha virt. eigenvalues --    0.39938   0.40435   0.40796   0.41636   0.41751
 Alpha virt. eigenvalues --    0.42280   0.42728   0.42942   0.43396   0.44087
 Alpha virt. eigenvalues --    0.44364   0.44659   0.44920   0.45066   0.45341
 Alpha virt. eigenvalues --    0.45810   0.46267   0.46445   0.46692   0.46836
 Alpha virt. eigenvalues --    0.47355   0.47566   0.47737   0.47915   0.48596
 Alpha virt. eigenvalues --    0.48767   0.48887   0.49281   0.49643   0.49683
 Alpha virt. eigenvalues --    0.50118   0.50522   0.50830   0.50928   0.51193
 Alpha virt. eigenvalues --    0.51341   0.51736   0.52321   0.52637   0.52743
 Alpha virt. eigenvalues --    0.53226   0.53648   0.54070   0.54165   0.54317
 Alpha virt. eigenvalues --    0.54694   0.55753   0.56127   0.56231   0.56591
 Alpha virt. eigenvalues --    0.56999   0.57198   0.57859   0.57997   0.58501
 Alpha virt. eigenvalues --    0.59263   0.59414   0.59812   0.60333   0.60665
 Alpha virt. eigenvalues --    0.61719   0.61766   0.62000   0.62569   0.63495
 Alpha virt. eigenvalues --    0.63603   0.63830   0.64456   0.64600   0.65526
 Alpha virt. eigenvalues --    0.65876   0.65938   0.66156   0.66473   0.66742
 Alpha virt. eigenvalues --    0.67343   0.67420   0.67849   0.67899   0.68154
 Alpha virt. eigenvalues --    0.68387   0.68480   0.68581   0.69114   0.69230
 Alpha virt. eigenvalues --    0.69682   0.69855   0.70064   0.70280   0.70407
 Alpha virt. eigenvalues --    0.70780   0.70961   0.71202   0.71429   0.71671
 Alpha virt. eigenvalues --    0.71964   0.72374   0.72663   0.72942   0.73265
 Alpha virt. eigenvalues --    0.73440   0.73919   0.74078   0.74201   0.74752
 Alpha virt. eigenvalues --    0.74968   0.75218   0.75377   0.75903   0.76090
 Alpha virt. eigenvalues --    0.76327   0.76373   0.76913   0.77116   0.77420
 Alpha virt. eigenvalues --    0.77763   0.78005   0.78483   0.78727   0.79072
 Alpha virt. eigenvalues --    0.79410   0.79458   0.79857   0.80281   0.80779
 Alpha virt. eigenvalues --    0.81048   0.81449   0.81653   0.82190   0.82521
 Alpha virt. eigenvalues --    0.82995   0.83484   0.83597   0.84046   0.85088
 Alpha virt. eigenvalues --    0.85385   0.86197   0.86369   0.87150   0.87287
 Alpha virt. eigenvalues --    0.87632   0.88053   0.88221   0.88823   0.89506
 Alpha virt. eigenvalues --    0.90173   0.90620   0.90711   0.91498   0.91760
 Alpha virt. eigenvalues --    0.92202   0.92876   0.93586   0.94319   0.94353
 Alpha virt. eigenvalues --    0.95131   0.95348   0.95926   0.96838   0.97042
 Alpha virt. eigenvalues --    0.97857   0.98327   0.98782   0.98951   0.99291
 Alpha virt. eigenvalues --    1.00138   1.00869   1.00971   1.01390   1.01476
 Alpha virt. eigenvalues --    1.03171   1.03704   1.04093   1.04977   1.06088
 Alpha virt. eigenvalues --    1.06351   1.07707   1.07879   1.08020   1.09120
 Alpha virt. eigenvalues --    1.09998   1.10125   1.11075   1.11397   1.12041
 Alpha virt. eigenvalues --    1.13054   1.13698   1.14944   1.15374   1.15920
 Alpha virt. eigenvalues --    1.17031   1.17582   1.18222   1.18876   1.19959
 Alpha virt. eigenvalues --    1.20833   1.21067   1.21183   1.21506   1.21743
 Alpha virt. eigenvalues --    1.22368   1.22599   1.23206   1.23591   1.24420
 Alpha virt. eigenvalues --    1.24632   1.24817   1.25021   1.25488   1.25663
 Alpha virt. eigenvalues --    1.26069   1.26157   1.26706   1.27031   1.27515
 Alpha virt. eigenvalues --    1.27874   1.28409   1.28522   1.28818   1.29578
 Alpha virt. eigenvalues --    1.29629   1.29911   1.30305   1.30821   1.31218
 Alpha virt. eigenvalues --    1.31394   1.31972   1.32182   1.32849   1.33071
 Alpha virt. eigenvalues --    1.33735   1.34327   1.35024   1.36100   1.37086
 Alpha virt. eigenvalues --    1.37678   1.38761   1.39207   1.40105   1.40476
 Alpha virt. eigenvalues --    1.42108   1.43651   1.44492   1.45531   1.47721
 Alpha virt. eigenvalues --    1.48265   1.49692   1.51050   1.52920   1.53530
 Alpha virt. eigenvalues --    1.54177   1.54795   1.55543   1.55655   1.56149
 Alpha virt. eigenvalues --    1.56852   1.57995   1.58857   1.59916   1.61095
 Alpha virt. eigenvalues --    1.61740   1.64080   1.65634   1.66220   1.67200
 Alpha virt. eigenvalues --    1.67371   1.67499   1.67818   1.68065   1.68615
 Alpha virt. eigenvalues --    1.68756   1.68975   1.69307   1.69700   1.69903
 Alpha virt. eigenvalues --    1.70798   1.71135   1.71312   1.71518   1.71747
 Alpha virt. eigenvalues --    1.71980   1.72530   1.72564   1.72878   1.73368
 Alpha virt. eigenvalues --    1.74187   1.74510   1.74629   1.74947   1.75051
 Alpha virt. eigenvalues --    1.75354   1.75700   1.76113   1.76204   1.76458
 Alpha virt. eigenvalues --    1.76615   1.76854   1.77038   1.77585   1.77689
 Alpha virt. eigenvalues --    1.78270   1.78834   1.79446   1.79484   1.79835
 Alpha virt. eigenvalues --    1.80822   1.80993   1.81648   1.82267   1.83077
 Alpha virt. eigenvalues --    1.83499   1.83685   1.84045   1.84660   1.85421
 Alpha virt. eigenvalues --    1.85580   1.85977   1.86290   1.86796   1.86987
 Alpha virt. eigenvalues --    1.87535   1.88058   1.88352   1.89489   1.90437
 Alpha virt. eigenvalues --    1.90980   1.91651   1.91970   1.93049   1.93182
 Alpha virt. eigenvalues --    1.93457   1.93670   1.94040   1.94185   1.94792
 Alpha virt. eigenvalues --    1.95079   1.95509   1.95709   1.96142   1.96803
 Alpha virt. eigenvalues --    1.96944   1.97196   1.97315   1.97851   1.98199
 Alpha virt. eigenvalues --    1.98615   1.99078   1.99387   1.99862   2.00269
 Alpha virt. eigenvalues --    2.01092   2.01245   2.01605   2.02357   2.03243
 Alpha virt. eigenvalues --    2.03983   2.05339   2.06063   2.07933   2.08859
 Alpha virt. eigenvalues --    2.09308   2.09810   2.10085   2.10568   2.11510
 Alpha virt. eigenvalues --    2.12625   2.13059   2.13282   2.13778   2.14594
 Alpha virt. eigenvalues --    2.14824   2.15454   2.15600   2.16068   2.16699
 Alpha virt. eigenvalues --    2.17268   2.18253   2.18781   2.20287   2.20912
 Alpha virt. eigenvalues --    2.21490   2.22041   2.22206   2.23456   2.23606
 Alpha virt. eigenvalues --    2.23929   2.24157   2.24233   2.24599   2.24807
 Alpha virt. eigenvalues --    2.24998   2.25077   2.25308   2.25557   2.25744
 Alpha virt. eigenvalues --    2.25915   2.25996   2.26755   2.27566   2.29603
 Alpha virt. eigenvalues --    2.29971   2.30257   2.30410   2.30875   2.31283
 Alpha virt. eigenvalues --    2.31591   2.31893   2.33085   2.33714   2.35281
 Alpha virt. eigenvalues --    2.35559   2.36526   2.37217   2.37941   2.39944
 Alpha virt. eigenvalues --    2.41798   2.45576   2.45601   2.46903   2.47545
 Alpha virt. eigenvalues --    2.47642   2.48193   2.48774   2.52995   2.54044
 Alpha virt. eigenvalues --    2.55035   2.55193   2.55379   2.55840   2.56127
 Alpha virt. eigenvalues --    2.56295   2.56474   2.56658   2.56980   2.57076
 Alpha virt. eigenvalues --    2.57229   2.57365   2.57618   2.57738   2.58191
 Alpha virt. eigenvalues --    2.64360   2.66522   2.67743   2.68326   2.68971
 Alpha virt. eigenvalues --    2.69429   2.69578   2.69609   2.69828   2.70035
 Alpha virt. eigenvalues --    2.71569   2.72097   2.72269   2.73987   2.74719
 Alpha virt. eigenvalues --    2.75417   2.76098   2.76947   2.77623   2.78110
 Alpha virt. eigenvalues --    2.79172   2.79503   2.80184   2.80480   2.80770
 Alpha virt. eigenvalues --    2.81705   2.81944   2.83167   2.83462   2.84191
 Alpha virt. eigenvalues --    2.84866   2.85123   2.91960   2.93069   2.95032
 Alpha virt. eigenvalues --    2.95351   2.95753   2.96037   2.96975   2.97310
 Alpha virt. eigenvalues --    2.98932   3.01513   3.03329   3.04098   3.04436
 Alpha virt. eigenvalues --    3.04871   3.05372   3.07869   3.10188   3.10986
 Alpha virt. eigenvalues --    3.11123   3.11315   3.12763   3.20331   3.24529
 Alpha virt. eigenvalues --    3.29167   3.37975   3.44366   3.47693   3.48828
 Alpha virt. eigenvalues --    3.49111   3.49429   3.51487   3.62952   3.72669
 Alpha virt. eigenvalues --    4.05983   4.06827   4.08841   4.09932   4.12065
 Alpha virt. eigenvalues --    4.13257   4.18027
  Beta  occ. eigenvalues -- -254.02535-100.24174-100.23847 -76.13141 -76.12395
  Beta  occ. eigenvalues --  -29.27939 -25.67647 -25.67341 -25.66968 -18.92728
  Beta  occ. eigenvalues --  -18.92689 -18.83074 -14.21261 -10.25986 -10.20201
  Beta  occ. eigenvalues --  -10.10094 -10.09062 -10.08659 -10.08546 -10.08403
  Beta  occ. eigenvalues --  -10.08083 -10.07338 -10.07240 -10.07167 -10.07115
  Beta  occ. eigenvalues --  -10.06962 -10.06850 -10.06714 -10.06633 -10.06583
  Beta  occ. eigenvalues --  -10.06579 -10.06479 -10.06352 -10.06351 -10.06253
  Beta  occ. eigenvalues --  -10.06216 -10.06202 -10.06179 -10.06142 -10.06117
  Beta  occ. eigenvalues --  -10.06072 -10.06029 -10.05898 -10.05881 -10.05771
  Beta  occ. eigenvalues --  -10.05707 -10.05599  -9.08651  -9.08339  -7.10837
  Beta  occ. eigenvalues --   -7.10555  -7.10445  -7.10243  -7.10067  -7.09974
  Beta  occ. eigenvalues --   -6.41374  -6.40800  -4.77426  -4.77407  -4.76939
  Beta  occ. eigenvalues --   -4.76881  -4.76823  -4.76293  -3.30367  -2.19662
  Beta  occ. eigenvalues --   -2.19226  -2.18028  -1.27699  -1.14043  -1.11197
  Beta  occ. eigenvalues --   -0.95878  -0.92053  -0.90862  -0.90329  -0.89773
  Beta  occ. eigenvalues --   -0.89425  -0.84762  -0.83043  -0.81297  -0.80882
  Beta  occ. eigenvalues --   -0.79432  -0.79204  -0.78543  -0.78380  -0.78151
  Beta  occ. eigenvalues --   -0.78080  -0.77888  -0.75672  -0.74951  -0.74857
  Beta  occ. eigenvalues --   -0.73329  -0.71337  -0.68180  -0.67473  -0.66371
  Beta  occ. eigenvalues --   -0.65314  -0.65251  -0.64635  -0.64372  -0.63822
  Beta  occ. eigenvalues --   -0.63470  -0.63380  -0.61393  -0.61331  -0.60703
  Beta  occ. eigenvalues --   -0.59274  -0.57259  -0.56914  -0.56442  -0.55804
  Beta  occ. eigenvalues --   -0.53762  -0.53297  -0.52372  -0.51490  -0.51137
  Beta  occ. eigenvalues --   -0.51021  -0.50377  -0.49929  -0.49647  -0.49582
  Beta  occ. eigenvalues --   -0.49279  -0.49227  -0.49007  -0.48741  -0.48438
  Beta  occ. eigenvalues --   -0.48047  -0.47918  -0.47817  -0.47246  -0.47046
  Beta  occ. eigenvalues --   -0.46817  -0.46575  -0.46304  -0.46209  -0.45737
  Beta  occ. eigenvalues --   -0.44861  -0.43656  -0.43479  -0.43014  -0.42116
  Beta  occ. eigenvalues --   -0.42030  -0.41781  -0.41631  -0.41419  -0.41153
  Beta  occ. eigenvalues --   -0.40822  -0.39527  -0.38871  -0.38534  -0.38430
  Beta  occ. eigenvalues --   -0.38175  -0.37506  -0.37295  -0.36857  -0.36610
  Beta  occ. eigenvalues --   -0.35983  -0.35472  -0.34128  -0.33071  -0.32634
  Beta  occ. eigenvalues --   -0.32015  -0.31560  -0.30581  -0.30406  -0.30008
  Beta  occ. eigenvalues --   -0.29854  -0.29801  -0.29600  -0.29101  -0.28875
  Beta  occ. eigenvalues --   -0.28512  -0.28129  -0.27358  -0.27207  -0.25711
  Beta  occ. eigenvalues --   -0.23633
  Beta virt. eigenvalues --   -0.05227  -0.02163  -0.01840  -0.01503  -0.00764
  Beta virt. eigenvalues --   -0.00435  -0.00064   0.00443   0.00461   0.01516
  Beta virt. eigenvalues --    0.01791   0.02420   0.03079   0.03998   0.05001
  Beta virt. eigenvalues --    0.07071   0.07803   0.08588   0.08847   0.09604
  Beta virt. eigenvalues --    0.10117   0.10306   0.10612   0.10803   0.11527
  Beta virt. eigenvalues --    0.12256   0.12336   0.13009   0.13499   0.13824
  Beta virt. eigenvalues --    0.14095   0.14566   0.14907   0.15224   0.15695
  Beta virt. eigenvalues --    0.15742   0.16082   0.16392   0.16473   0.16719
  Beta virt. eigenvalues --    0.16960   0.17388   0.17880   0.18089   0.18382
  Beta virt. eigenvalues --    0.18518   0.19026   0.19287   0.19698   0.19841
  Beta virt. eigenvalues --    0.19955   0.20722   0.21034   0.21315   0.22051
  Beta virt. eigenvalues --    0.22604   0.23219   0.24351   0.25010   0.25426
  Beta virt. eigenvalues --    0.26450   0.26908   0.27223   0.27673   0.28670
  Beta virt. eigenvalues --    0.28856   0.29152   0.29965   0.30521   0.30796
  Beta virt. eigenvalues --    0.31369   0.31622   0.31716   0.31987   0.32153
  Beta virt. eigenvalues --    0.32356   0.32602   0.32830   0.32988   0.33282
  Beta virt. eigenvalues --    0.33431   0.34383   0.34574   0.35220   0.36008
  Beta virt. eigenvalues --    0.36357   0.36883   0.37234   0.37598   0.38221
  Beta virt. eigenvalues --    0.39479   0.39727   0.39960   0.40641   0.40824
  Beta virt. eigenvalues --    0.41648   0.41819   0.42290   0.42738   0.42961
  Beta virt. eigenvalues --    0.43412   0.44138   0.44384   0.44741   0.44948
  Beta virt. eigenvalues --    0.45127   0.45364   0.45861   0.46332   0.46500
  Beta virt. eigenvalues --    0.46720   0.46872   0.47401   0.47574   0.47781
  Beta virt. eigenvalues --    0.47941   0.48614   0.48791   0.48903   0.49320
  Beta virt. eigenvalues --    0.49640   0.49687   0.50129   0.50525   0.50845
  Beta virt. eigenvalues --    0.50962   0.51216   0.51358   0.51736   0.52312
  Beta virt. eigenvalues --    0.52666   0.52756   0.53263   0.53656   0.54065
  Beta virt. eigenvalues --    0.54172   0.54371   0.54755   0.55754   0.56162
  Beta virt. eigenvalues --    0.56228   0.56608   0.57002   0.57203   0.57870
  Beta virt. eigenvalues --    0.58078   0.58562   0.59323   0.59472   0.59832
  Beta virt. eigenvalues --    0.60406   0.60667   0.61750   0.61781   0.62007
  Beta virt. eigenvalues --    0.62586   0.63496   0.63625   0.63855   0.64502
  Beta virt. eigenvalues --    0.64620   0.65564   0.65913   0.65969   0.66166
  Beta virt. eigenvalues --    0.66514   0.66799   0.67367   0.67438   0.67879
  Beta virt. eigenvalues --    0.67942   0.68210   0.68417   0.68490   0.68662
  Beta virt. eigenvalues --    0.69173   0.69227   0.69705   0.69948   0.70069
  Beta virt. eigenvalues --    0.70318   0.70436   0.70802   0.70969   0.71240
  Beta virt. eigenvalues --    0.71433   0.71781   0.71965   0.72394   0.72682
  Beta virt. eigenvalues --    0.72958   0.73293   0.73460   0.73917   0.74080
  Beta virt. eigenvalues --    0.74268   0.74811   0.74989   0.75295   0.75376
  Beta virt. eigenvalues --    0.75945   0.76113   0.76334   0.76436   0.76901
  Beta virt. eigenvalues --    0.77164   0.77440   0.77766   0.78086   0.78552
  Beta virt. eigenvalues --    0.78768   0.79058   0.79472   0.79590   0.79951
  Beta virt. eigenvalues --    0.80273   0.80829   0.81079   0.81448   0.81878
  Beta virt. eigenvalues --    0.82202   0.82506   0.83036   0.83504   0.83608
  Beta virt. eigenvalues --    0.84057   0.85087   0.85401   0.86211   0.86397
  Beta virt. eigenvalues --    0.87161   0.87304   0.87643   0.88049   0.88238
  Beta virt. eigenvalues --    0.88829   0.89515   0.90155   0.90600   0.90717
  Beta virt. eigenvalues --    0.91560   0.91776   0.92230   0.92896   0.93619
  Beta virt. eigenvalues --    0.94368   0.94419   0.95155   0.95383   0.95931
  Beta virt. eigenvalues --    0.96878   0.97072   0.97877   0.98306   0.98812
  Beta virt. eigenvalues --    0.98966   0.99321   1.00125   1.01000   1.01014
  Beta virt. eigenvalues --    1.01392   1.01540   1.03279   1.03754   1.04138
  Beta virt. eigenvalues --    1.04981   1.06113   1.06506   1.07715   1.07932
  Beta virt. eigenvalues --    1.08069   1.09197   1.10043   1.10140   1.11094
  Beta virt. eigenvalues --    1.11465   1.12110   1.13115   1.13986   1.15054
  Beta virt. eigenvalues --    1.15520   1.15944   1.17134   1.17588   1.18248
  Beta virt. eigenvalues --    1.19009   1.20008   1.20866   1.21141   1.21244
  Beta virt. eigenvalues --    1.21600   1.21811   1.22488   1.22640   1.23236
  Beta virt. eigenvalues --    1.23641   1.24460   1.24666   1.24853   1.25111
  Beta virt. eigenvalues --    1.25603   1.25661   1.26071   1.26283   1.26746
  Beta virt. eigenvalues --    1.27061   1.27586   1.27903   1.28434   1.28561
  Beta virt. eigenvalues --    1.28854   1.29604   1.29692   1.29992   1.30344
  Beta virt. eigenvalues --    1.30941   1.31247   1.31523   1.32029   1.32194
  Beta virt. eigenvalues --    1.33017   1.33146   1.33789   1.34410   1.35139
  Beta virt. eigenvalues --    1.36229   1.37199   1.38154   1.38841   1.39378
  Beta virt. eigenvalues --    1.40229   1.40557   1.42260   1.43664   1.45049
  Beta virt. eigenvalues --    1.45873   1.48374   1.48504   1.50109   1.51204
  Beta virt. eigenvalues --    1.52916   1.53867   1.54197   1.55041   1.55564
  Beta virt. eigenvalues --    1.55684   1.56173   1.56911   1.58094   1.58896
  Beta virt. eigenvalues --    1.60077   1.61346   1.61986   1.64152   1.65684
  Beta virt. eigenvalues --    1.66237   1.67254   1.67435   1.67704   1.67907
  Beta virt. eigenvalues --    1.68206   1.68660   1.68828   1.69018   1.69399
  Beta virt. eigenvalues --    1.69721   1.69918   1.70823   1.71140   1.71317
  Beta virt. eigenvalues --    1.71517   1.71788   1.71985   1.72566   1.72635
  Beta virt. eigenvalues --    1.72958   1.73558   1.74203   1.74516   1.74693
  Beta virt. eigenvalues --    1.74948   1.75084   1.75401   1.75751   1.76142
  Beta virt. eigenvalues --    1.76248   1.76514   1.76715   1.76854   1.77044
  Beta virt. eigenvalues --    1.77594   1.77737   1.78302   1.78845   1.79453
  Beta virt. eigenvalues --    1.79550   1.79900   1.80842   1.81011   1.81679
  Beta virt. eigenvalues --    1.82270   1.83078   1.83498   1.83694   1.84073
  Beta virt. eigenvalues --    1.84661   1.85419   1.85613   1.86014   1.86302
  Beta virt. eigenvalues --    1.86798   1.86993   1.87564   1.88058   1.88326
  Beta virt. eigenvalues --    1.89481   1.90458   1.91003   1.91666   1.91983
  Beta virt. eigenvalues --    1.93051   1.93185   1.93457   1.93673   1.94044
  Beta virt. eigenvalues --    1.94197   1.94797   1.95084   1.95510   1.95708
  Beta virt. eigenvalues --    1.96142   1.96813   1.96942   1.97198   1.97351
  Beta virt. eigenvalues --    1.97850   1.98221   1.98616   1.99080   1.99452
  Beta virt. eigenvalues --    1.99863   2.00267   2.01110   2.01243   2.01606
  Beta virt. eigenvalues --    2.02367   2.03241   2.03987   2.05286   2.06063
  Beta virt. eigenvalues --    2.07933   2.08860   2.09305   2.09805   2.10080
  Beta virt. eigenvalues --    2.10571   2.11511   2.12629   2.13061   2.13279
  Beta virt. eigenvalues --    2.13779   2.14583   2.14817   2.15449   2.15594
  Beta virt. eigenvalues --    2.16066   2.16692   2.17252   2.18256   2.18737
  Beta virt. eigenvalues --    2.20262   2.20900   2.21484   2.22054   2.22188
  Beta virt. eigenvalues --    2.23439   2.23602   2.23930   2.24159   2.24234
  Beta virt. eigenvalues --    2.24593   2.24804   2.24998   2.25078   2.25307
  Beta virt. eigenvalues --    2.25551   2.25748   2.25921   2.26001   2.26758
  Beta virt. eigenvalues --    2.27575   2.29602   2.29964   2.30257   2.30406
  Beta virt. eigenvalues --    2.30882   2.31283   2.31581   2.31886   2.33065
  Beta virt. eigenvalues --    2.33713   2.35278   2.35557   2.36465   2.37216
  Beta virt. eigenvalues --    2.37920   2.39948   2.41785   2.45570   2.45598
  Beta virt. eigenvalues --    2.46893   2.47549   2.47646   2.48194   2.48786
  Beta virt. eigenvalues --    2.52990   2.54041   2.55034   2.55190   2.55370
  Beta virt. eigenvalues --    2.55826   2.56118   2.56278   2.56468   2.56649
  Beta virt. eigenvalues --    2.56978   2.57077   2.57227   2.57365   2.57613
  Beta virt. eigenvalues --    2.57728   2.58186   2.64351   2.66522   2.67743
  Beta virt. eigenvalues --    2.68318   2.68971   2.69413   2.69554   2.69598
  Beta virt. eigenvalues --    2.69820   2.70035   2.71562   2.72071   2.72265
  Beta virt. eigenvalues --    2.73988   2.74704   2.75420   2.76078   2.76943
  Beta virt. eigenvalues --    2.77607   2.78107   2.79160   2.79494   2.80184
  Beta virt. eigenvalues --    2.80475   2.80761   2.81708   2.81937   2.83161
  Beta virt. eigenvalues --    2.83450   2.84181   2.84862   2.85114   2.91977
  Beta virt. eigenvalues --    2.93075   2.94988   2.95361   2.95729   2.96021
  Beta virt. eigenvalues --    2.96977   2.97234   2.98929   3.01517   3.03321
  Beta virt. eigenvalues --    3.04098   3.04427   3.04836   3.05375   3.07866
  Beta virt. eigenvalues --    3.10167   3.10950   3.11117   3.11317   3.12764
  Beta virt. eigenvalues --    3.20331   3.24522   3.29169   3.37976   3.44366
  Beta virt. eigenvalues --    3.47647   3.48827   3.49053   3.49431   3.51492
  Beta virt. eigenvalues --    3.62953   3.72674   4.13780   4.14391   4.14606
  Beta virt. eigenvalues --    4.16248   4.17475   4.18379   4.20795
          Condensed to atoms (all electrons):
          Atomic-Atomic Spin Densities.
 Mulliken charges and spin densities:
               1          2
     1  P    0.185555   0.006606
     2  P    0.216839  -0.044975
     3  C   -0.052119  -0.001673
     4  C   -0.011499   0.000886
     5  C   -0.094624   0.009130
     6  C   -0.046471  -0.005417
     7  C   -0.067409  -0.000164
     8  C   -0.069933   0.002373
     9  C    0.018866   0.003323
    10  C    0.044836   0.008403
    11  C    0.022023   0.002696
    12  C    0.016824  -0.000304
    13  C    0.003183   0.001037
    14  C    0.033770   0.011361
    15  C    0.041002   0.000672
    16  C    0.082109  -0.000453
    17  C    0.023401   0.000245
    18  C    0.023638  -0.004852
    19  C    0.021189   0.000295
    20  C    0.024267  -0.000045
    21  C    0.015982  -0.000772
    22  C    0.025065  -0.004818
    23  C    0.019970   0.000560
    24  C    0.034753   0.000074
    25  C    0.017768   0.000590
    26  C    0.022558   0.008855
    27  C    0.028496   0.001100
    28  C    0.023430  -0.000024
    29  H    0.037075   0.001363
    30  H    0.048256   0.000218
    31  H    0.063719   0.000037
    32  H    0.034285  -0.000500
    33  H   -0.008277   0.000020
    34  H   -0.057529  -0.000584
    35  H   -0.022257  -0.000037
    36  H   -0.011713  -0.000004
    37  H    0.005380  -0.001206
    38  H   -0.033329  -0.000087
    39  H   -0.006476   0.000059
    40  H   -0.104917  -0.001273
    41  H   -0.011726   0.000267
    42  H   -0.031907   0.000331
    43  H   -0.014724  -0.000033
    44  H   -0.012670  -0.000046
    45  H   -0.010427   0.000016
    46  H   -0.014903   0.000296
    47  H   -0.008612  -0.000028
    48  H   -0.018477  -0.000008
    49  H   -0.009683  -0.000047
    50  H   -0.014441  -0.000610
    51  H   -0.010851  -0.000084
    52  H   -0.010535   0.000001
    53  Fe   0.203142   1.975681
    54  Cl  -0.371151   0.029756
    55  Cl  -0.342874   0.014073
    56  O   -0.219410  -0.000109
    57  O   -0.174229   0.000472
    58  O   -0.132300   0.000117
    59  N    0.031498  -0.009931
    60  C   -0.016730   0.001292
    61  C    0.140642  -0.002529
    62  C    0.042127  -0.000939
    63  C    0.062234  -0.000859
    64  C    0.013934   0.000948
    65  C    0.035010   0.001173
    66  C    0.041682  -0.000995
    67  C    0.353621   0.000909
    68  H    0.004482   0.000064
    69  H   -0.039410  -0.001816
    70  H    0.000114  -0.000063
    71  H   -0.011521  -0.000075
    72  H    0.000408   0.000063
 Sum of Mulliken charges =   0.00000   2.00000
 Mulliken charges and spin densities with hydrogens summed into heavy atoms:
               1          2
     1  P    0.185555   0.006606
     2  P    0.216839  -0.044975
     3  C    0.033212  -0.000092
     4  C    0.086505   0.000423
     5  C   -0.094624   0.009130
     6  C   -0.046471  -0.005417
     7  C   -0.067409  -0.000164
     8  C   -0.069933   0.002373
     9  C    0.010590   0.003343
    10  C   -0.012694   0.007819
    11  C   -0.000234   0.002659
    12  C    0.005111  -0.000308
    13  C    0.008563  -0.000169
    14  C    0.000441   0.011274
    15  C    0.034526   0.000731
    16  C   -0.022808  -0.001726
    17  C    0.011675   0.000512
    18  C   -0.008270  -0.004521
    19  C    0.006465   0.000263
    20  C    0.011597  -0.000092
    21  C    0.005554  -0.000756
    22  C    0.010162  -0.004522
    23  C    0.011358   0.000532
    24  C    0.016277   0.000067
    25  C    0.008085   0.000542
    26  C    0.008117   0.008245
    27  C    0.017645   0.001016
    28  C    0.012894  -0.000023
    53  Fe   0.203142   1.975681
    54  Cl  -0.371151   0.029756
    55  Cl  -0.342874   0.014073
    56  O   -0.219410  -0.000109
    57  O   -0.174229   0.000472
    58  O   -0.132300   0.000117
    59  N    0.031498  -0.009931
    60  C   -0.016730   0.001292
    61  C    0.140642  -0.002529
    62  C    0.046609  -0.000875
    63  C    0.022825  -0.002674
    64  C    0.014048   0.000885
    65  C    0.023489   0.001098
    66  C    0.042090  -0.000933
    67  C    0.353621   0.000909
 Electronic spatial extent (au):  <R**2>=          22063.3381
 Charge=              0.0000 electrons
 Dipole moment (field-independent basis, Debye):
    X=             -2.9455    Y=              6.0670    Z=              2.8327  Tot=              7.3149
 Quadrupole moment (field-independent basis, Debye-Ang):
   XX=           -240.1087   YY=           -289.1526   ZZ=           -283.4589
   XY=             -5.3997   XZ=              5.4166   YZ=             -8.1139
 Traceless Quadrupole moment (field-independent basis, Debye-Ang):
   XX=             30.7980   YY=            -18.2458   ZZ=            -12.5522
   XY=             -5.3997   XZ=              5.4166   YZ=             -8.1139
 Octapole moment (field-independent basis, Debye-Ang**2):
  XXX=            -45.2048  YYY=            126.8947  ZZZ=             28.4747  XYY=             22.2676
  XXY=            -36.4357  XXZ=             -3.2123  XZZ=             -1.6981  YZZ=            -24.0890
  YYZ=            -10.0408  XYZ=             15.8562
 Hexadecapole moment (field-independent basis, Debye-Ang**3):
 XXXX=         -14774.9316 YYYY=          -9652.0989 ZZZZ=          -4762.3835 XXXY=            -53.9800
 XXXZ=             20.6267 YYYX=           -215.3554 YYYZ=           -314.3567 ZZZX=            -16.1854
 ZZZY=            -41.3964 XXYY=          -3803.4656 XXZZ=          -3458.9523 YYZZ=          -2335.2137
 XXYZ=            -83.3718 YYXZ=            -77.7325 ZZXY=            -35.4630
 N-N= 7.295543449884D+03 E-N=-2.509646403693D+04  KE= 4.429613376079D+03
                          Isotropic Fermi Contact Couplings
        Atom                 a.u.       MegaHertz       Gauss      10(-4) cm-1
     1  P(31)              0.07373      66.76177      23.82226      22.26933
     2  P(31)             -0.02805     -25.40422      -9.06486      -8.47393
     3  C(13)             -0.00627      -3.52350      -1.25727      -1.17531
     4  C(13)              0.00183       1.02930       0.36728       0.34334
     5  C(13)              0.01154       6.48543       2.31416       2.16331
     6  C(13)             -0.00290      -1.63092      -0.58195      -0.54402
     7  C(13)              0.00216       1.21320       0.43290       0.40468
     8  C(13)             -0.00194      -1.09290      -0.38997      -0.36455
     9  C(13)              0.00557       3.13000       1.11686       1.04406
    10  C(13)              0.00159       0.89644       0.31987       0.29902
    11  C(13)              0.00055       0.30816       0.10996       0.10279
    12  C(13)             -0.00049      -0.27807      -0.09922      -0.09275
    13  C(13)              0.00005       0.02963       0.01057       0.00988
    14  C(13)              0.00274       1.53914       0.54920       0.51340
    15  C(13)              0.00117       0.65634       0.23420       0.21893
    16  C(13)             -0.00024      -0.13340      -0.04760      -0.04450
    17  C(13)              0.00133       0.74673       0.26645       0.24908
    18  C(13)             -0.00112      -0.62711      -0.22377      -0.20918
    19  C(13)              0.00005       0.03042       0.01085       0.01015
    20  C(13)             -0.00017      -0.09784      -0.03491      -0.03264
    21  C(13)             -0.00011      -0.05961      -0.02127      -0.01989
    22  C(13)             -0.00084      -0.47022      -0.16779      -0.15685
    23  C(13)              0.00002       0.00847       0.00302       0.00283
    24  C(13)              0.00001       0.00347       0.00124       0.00116
    25  C(13)              0.00010       0.05475       0.01954       0.01826
    26  C(13)              0.00153       0.85768       0.30604       0.28609
    27  C(13)              0.00015       0.08173       0.02916       0.02726
    28  C(13)             -0.00003      -0.01802      -0.00643      -0.00601
    29  H(1)               0.00034       0.77040       0.27490       0.25698
    30  H(1)               0.00009       0.20506       0.07317       0.06840
    31  H(1)              -0.00005      -0.11109      -0.03964      -0.03705
    32  H(1)              -0.00018      -0.40377      -0.14408      -0.13468
    33  H(1)               0.00009       0.20021       0.07144       0.06678
    34  H(1)              -0.00014      -0.30622      -0.10927      -0.10215
    35  H(1)              -0.00000      -0.00180      -0.00064      -0.00060
    36  H(1)              -0.00002      -0.03449      -0.01231      -0.01150
    37  H(1)               0.00003       0.06871       0.02452       0.02292
    38  H(1)              -0.00004      -0.09594      -0.03423      -0.03200
    39  H(1)               0.00012       0.26591       0.09488       0.08870
    40  H(1)               0.00003       0.07510       0.02680       0.02505
    41  H(1)               0.00008       0.17169       0.06126       0.05727
    42  H(1)               0.00009       0.19737       0.07043       0.06583
    43  H(1)              -0.00001      -0.02089      -0.00745      -0.00697
    44  H(1)              -0.00001      -0.03276      -0.01169      -0.01093
    45  H(1)               0.00001       0.02595       0.00926       0.00866
    46  H(1)               0.00008       0.17065       0.06089       0.05692
    47  H(1)              -0.00001      -0.01624      -0.00579      -0.00542
    48  H(1)              -0.00000      -0.00753      -0.00269      -0.00251
    49  H(1)              -0.00001      -0.02120      -0.00756      -0.00707
    50  H(1)              -0.00016      -0.35775      -0.12765      -0.11933
    51  H(1)              -0.00002      -0.04755      -0.01697      -0.01586
    52  H(1)               0.00000       0.00006       0.00002       0.00002
    53  Fe(57)             0.05627       4.08089       1.45616       1.36124
    54  Cl(35)             0.01862       4.08220       1.45663       1.36168
    55  Cl(35)             0.00551       1.20826       0.43114       0.40303
    56  O(17)              0.00027      -0.08050      -0.02873      -0.02685
    57  O(17)              0.01635      -4.95473      -1.76797      -1.65272
    58  O(17)             -0.00003       0.00818       0.00292       0.00273
    59  N(14)             -0.00155      -0.25098      -0.08956      -0.08372
    60  C(13)              0.00038       0.21414       0.07641       0.07143
    61  C(13)             -0.00086      -0.48275      -0.17226      -0.16103
    62  C(13)             -0.00014      -0.07925      -0.02828      -0.02644
    63  C(13)             -0.00054      -0.30194      -0.10774      -0.10072
    64  C(13)              0.00018       0.10072       0.03594       0.03360
    65  C(13)              0.00019       0.10830       0.03865       0.03613
    66  C(13)             -0.00020      -0.11449      -0.04085      -0.03819
    67  C(13)              0.00185       1.03838       0.37052       0.34637
    68  H(1)               0.00002       0.03674       0.01311       0.01225
    69  H(1)               0.00011       0.24261       0.08657       0.08093
    70  H(1)              -0.00002      -0.03785      -0.01351      -0.01263
    71  H(1)              -0.00002      -0.04150      -0.01481      -0.01384
    72  H(1)               0.00002       0.03778       0.01348       0.01260
 --------------------------------------------------------
       Center         ----  Spin Dipole Couplings  ----
                      3XX-RR        3YY-RR        3ZZ-RR
 --------------------------------------------------------
     1   Atom       -0.040551      0.006264      0.034287
     2   Atom        0.002868      0.003530     -0.006398
     3   Atom       -0.007302      0.002008      0.005294
     4   Atom       -0.002029     -0.003632      0.005661
     5   Atom       -0.003659      0.014480     -0.010821
     6   Atom        0.004861     -0.006247      0.001386
     7   Atom        0.014897     -0.008599     -0.006298
     8   Atom        0.004457      0.000171     -0.004628
     9   Atom        0.000991      0.002188     -0.003179
    10   Atom        0.000874      0.000641     -0.001514
    11   Atom        0.004114     -0.002367     -0.001747
    12   Atom        0.002148     -0.000157     -0.001991
    13   Atom       -0.002834      0.007540     -0.004706
    14   Atom       -0.004764      0.002275      0.002489
    15   Atom        0.011721     -0.005684     -0.006037
    16   Atom       -0.000481      0.005006     -0.004526
    17   Atom       -0.001274      0.003068     -0.001794
    18   Atom        0.003607     -0.004078      0.000471
    19   Atom        0.002135     -0.000686     -0.001448
    20   Atom        0.001150     -0.000021     -0.001129
    21   Atom       -0.001430      0.003143     -0.001713
    22   Atom        0.001898     -0.003811      0.001913
    23   Atom        0.003805     -0.001323     -0.002482
    24   Atom       -0.000367      0.002159     -0.001792
    25   Atom       -0.000394      0.001816     -0.001422
    26   Atom       -0.003058      0.003653     -0.000595
    27   Atom        0.002567     -0.000477     -0.002089
    28   Atom        0.000388      0.000820     -0.001208
    29   Atom       -0.003696     -0.000485      0.004181
    30   Atom       -0.004264      0.004477     -0.000213
    31   Atom       -0.003478     -0.006335      0.009813
    32   Atom       -0.000219     -0.001515      0.001734
    33   Atom       -0.000525      0.000683     -0.000158
    34   Atom        0.005070     -0.002526     -0.002544
    35   Atom        0.002062     -0.003004      0.000942
    36   Atom        0.003060     -0.001308     -0.001752
    37   Atom       -0.007358      0.011492     -0.004134
    38   Atom       -0.003432     -0.004399      0.007831
    39   Atom        0.010674     -0.006679     -0.003995
    40   Atom       -0.005119      0.011856     -0.006737
    41   Atom       -0.000231      0.000997     -0.000767
    42   Atom        0.001668     -0.001169     -0.000499
    43   Atom        0.001114     -0.000639     -0.000475
    44   Atom        0.000899     -0.000082     -0.000817
    45   Atom       -0.001192      0.002145     -0.000953
    46   Atom       -0.000328     -0.001288      0.001616
    47   Atom        0.002303     -0.001043     -0.001260
    48   Atom       -0.000840      0.002115     -0.001275
    49   Atom       -0.000374      0.001202     -0.000828
    50   Atom        0.000577     -0.000781      0.000204
    51   Atom        0.001327     -0.000298     -0.001029
    52   Atom        0.000153      0.000581     -0.000734
    53   Atom       -1.687517      1.078757      0.608760
    54   Atom       -0.005425      0.100703     -0.095278
    55   Atom        0.055103      0.082839     -0.137941
    56   Atom        0.003141      0.000638     -0.003779
    57   Atom       -0.007326      0.017595     -0.010269
    58   Atom       -0.000867      0.003249     -0.002382
    59   Atom        0.015067     -0.001010     -0.014057
    60   Atom        0.007666     -0.004655     -0.003011
    61   Atom        0.010684     -0.001591     -0.009093
    62   Atom        0.004158     -0.001599     -0.002559
    63   Atom        0.007780     -0.004213     -0.003567
    64   Atom        0.002171     -0.001641     -0.000530
    65   Atom        0.002754     -0.001790     -0.000964
    66   Atom        0.002633     -0.000800     -0.001833
    67   Atom       -0.001248      0.005087     -0.003839
    68   Atom        0.002730     -0.001131     -0.001598
    69   Atom        0.006882     -0.006550     -0.000333
    70   Atom        0.001666     -0.000867     -0.000799
    71   Atom        0.001545     -0.000381     -0.001164
    72   Atom        0.001398     -0.000622     -0.000776
[...]
   D161       3.13965  -0.00005   0.00091   0.00012   0.00104   3.14069
   D162      -3.13330   0.00002   0.00074  -0.00666  -0.00592  -3.13922
   D163       0.00840  -0.00008   0.00104  -0.00177  -0.00073   0.00767
   D164       0.00480   0.00000  -0.00004  -0.00011  -0.00015   0.00465
   D165       3.13846  -0.00000  -0.00001  -0.00009  -0.00010   3.13835
   D166      -3.12911   0.00001  -0.00008  -0.00017  -0.00025  -3.12936
   D167       0.00455   0.00000  -0.00004  -0.00016  -0.00021   0.00434
   D168      -0.00349   0.00004  -0.00006   0.00092   0.00086  -0.00263
   D169       3.13178   0.00002  -0.00020   0.00040   0.00020   3.13198
   D170      -3.13327   0.00003   0.00028   0.00033   0.00060  -3.13267
   D171       0.00200   0.00000   0.00014  -0.00020  -0.00006   0.00195
   D172      -2.61760  -0.00038   0.00302   0.00003   0.00306  -2.61453
   D173       0.29085   0.00007   0.00189  -0.00367  -0.00177   0.28907
   D174      -0.25090  -0.00053   0.00023  -0.01251  -0.01229  -0.26320
   D175       2.65754  -0.00009  -0.00090  -0.01621  -0.01713   2.64041
   D176      -1.07585   0.00019   0.00245   0.00143   0.00389  -1.07196
   D177       1.83259   0.00064   0.00133  -0.00227  -0.00094   1.83165
   D178       1.63641   0.00066   0.00426   0.00689   0.01115   1.64757
   D179      -1.73833   0.00111   0.00313   0.00318   0.00632  -1.73201
   D180      -0.03599   0.00065  -0.00043   0.00655   0.00611  -0.02988
   D181       3.08473  -0.00027  -0.00323  -0.00403  -0.00722   3.07751
   D182       0.00026  -0.00064  -0.00106  -0.00778  -0.00880  -0.00854
   D183       3.14146   0.00059   0.00208   0.00547   0.00756  -3.13416
   D184       2.94768  -0.00086  -0.00441  -0.00476  -0.00929   2.93839
   D185      -0.05390  -0.00002  -0.00235  -0.00272  -0.00504  -0.05894
   D186       0.03245   0.00038   0.00206   0.00655   0.00857   0.04102
   D187      -3.10875  -0.00087  -0.00115  -0.00700  -0.00814  -3.11689
   D188      -2.85802  -0.00109   0.00246   0.00103   0.00342  -2.85460
   D189       0.30657  -0.00020   0.00537   0.01285   0.01820   0.32477
   D190       0.05479  -0.00035   0.00173  -0.00251  -0.00079   0.05400
   D191      -3.06381   0.00054   0.00464   0.00932   0.01400  -3.04981
   D192       0.54866  -0.00033   0.00594  -0.01373  -0.00779   0.54087
   D193      -2.61752  -0.00133   0.00276  -0.02630  -0.02355  -2.64106
   D194      -2.54336  -0.00081   0.01123  -0.00462   0.00661  -2.53675
   D195       0.57366  -0.00182   0.00805  -0.01720  -0.00915   0.56450
   D196      -3.11487  -0.00022   0.00519   0.00665   0.01185  -3.10302
   D197       0.03363  -0.00029   0.00451   0.00711   0.01162   0.04525
   D198      -0.02390   0.00022  -0.00024  -0.00261  -0.00285  -0.02674
   D199       3.12460   0.00014  -0.00093  -0.00215  -0.00308   3.12152
   D200       3.10763   0.00058  -0.00664  -0.00086  -0.00749   3.10014
   D201       0.00056   0.00005  -0.00361  -0.01046  -0.01406  -0.01350
   D202       0.01632   0.00004  -0.00130   0.00841   0.00711   0.02343
   D203      -3.09075  -0.00049   0.00173  -0.00118   0.00054  -3.09021
   D204       0.01536  -0.00026   0.00166  -0.00353  -0.00187   0.01349
   D205      -3.13273  -0.00009   0.00033   0.00129   0.00162  -3.13111
   D206      -3.13323  -0.00019   0.00236  -0.00399  -0.00163  -3.13486
   D207       0.00187  -0.00002   0.00102   0.00083   0.00185   0.00372
   D208      -0.00029  -0.00023   0.00143  -0.00809  -0.00666  -0.00695
   D209       3.14113  -0.00033   0.00183  -0.00752  -0.00569   3.13544
   D210       3.10550   0.00034  -0.00172   0.00188   0.00016   3.10566
   D211      -0.03626   0.00024  -0.00131   0.00244   0.00113  -0.03513
   D212       0.00032   0.00007  -0.00155   0.00382   0.00227   0.00260
   D213       3.13116   0.00022  -0.00182   0.00352   0.00169   3.13286
   D214      -3.13476  -0.00010  -0.00021  -0.00101  -0.00122  -3.13598
   D215      -0.00392   0.00005  -0.00049  -0.00131  -0.00180  -0.00572
   D216      -0.00797   0.00018  -0.00002   0.00208   0.00206  -0.00591
   D217      -3.13882   0.00003   0.00026   0.00238   0.00263  -3.13619
   D218       3.13379   0.00028  -0.00043   0.00151   0.00108   3.13487
   D219       0.00295   0.00013  -0.00015   0.00181   0.00166   0.00460
         Item               Value     Threshold  Converged?
 Maximum Force            0.005446     0.000450     NO 
 RMS     Force            0.000724     0.000300     NO 
 Maximum Displacement     0.262012     0.001800     NO 
 RMS     Displacement     0.038971     0.001200     NO 
 Predicted change in Energy=-4.362317D-04
 GradGradGradGradGradGradGradGradGradGradGradGradGradGradGradGradGradGrad

 Stoichiometry    C34H29Cl2FeNO3P2(3)
 Framework group  C1[X(C34H29Cl2FeNO3P2)]
 Deg. of freedom   210
 Full point group                 C1      NOp   1
 Largest Abelian subgroup         C1      NOp   1
 Largest concise Abelian subgroup C1      NOp   1
                         Standard orientation:                         
 ---------------------------------------------------------------------
 Center     Atomic      Atomic             Coordinates (Angstroms)
 Number     Number       Type             X           Y           Z
 ---------------------------------------------------------------------
      1         15           0       -0.727986    0.912655    0.939924
      2         15           0        2.318776    0.215951    0.403639
      3          6           0        0.620960    1.605302    2.025220
      4          6           0        1.873887    0.729288    2.109070
      5          6           0       -1.487809    2.440708    0.304691
      6          6           0       -1.958921    0.235389    2.083918
      7          6           0        3.680785   -0.967541    0.494468
      8          6           0        3.144314    1.711784   -0.233422
      9          6           0       -2.262998    3.286292    1.112161
     10          6           0       -3.326513    0.309248    1.776793
     11          6           0        4.189492   -1.488897    1.688008
     12          6           0        4.472387    1.997978    0.121442
     13          6           0       -1.238098    2.801511   -1.027950
     14          6           0       -1.553662   -0.443396    3.242871
     15          6           0        4.206529   -1.390112   -0.736598
     16          6           0        2.430512    2.634754   -1.004295
     17          6           0       -2.770164    4.479540    0.596761
     18          6           0       -4.270870   -0.288871    2.611496
     19          6           0        5.233816   -2.415621    1.650833
     20          6           0        5.068183    3.191464   -0.285751
     21          6           0       -1.731582    4.005715   -1.537415
     22          6           0       -2.502215   -1.035247    4.077837
     23          6           0        5.248092   -2.315800   -0.767383
     24          6           0        3.023617    3.833841   -1.403764
     25          6           0       -2.499574    4.842930   -0.725791
     26          6           0       -3.860858   -0.963255    3.763549
     27          6           0        5.764114   -2.826933    0.426856
     28          6           0        4.343046    4.112849   -1.046505
     29          1           0        0.214139    1.832624    3.024451
     30          1           0        0.877946    2.568739    1.552484
     31          1           0        1.680454   -0.200386    2.663466
     32          1           0        2.709649    1.273931    2.578138
     33          1           0       -2.476727    2.999790    2.146428
     34          1           0       -3.655059    0.839684    0.878429
     35          1           0        3.770234   -1.181319    2.648729
     36          1           0        5.043367    1.277880    0.714974
     37          1           0       -0.673264    2.119891   -1.672934
     38          1           0       -0.492287   -0.530047    3.482995
     39          1           0        3.781152   -0.993314   -1.665275
     40          1           0        1.416827    2.388973   -1.309960
     41          1           0       -3.374553    5.132702    1.230133
     42          1           0       -5.331786   -0.224857    2.356743
     43          1           0        5.630553   -2.822272    2.583634
     44          1           0        6.103447    3.403339   -0.009313
     45          1           0       -1.528947    4.279703   -2.575374
     46          1           0       -2.174600   -1.562913    4.975964
     47          1           0        5.654009   -2.645025   -1.726278
     48          1           0        2.452994    4.545158   -2.005235
     49          1           0       -2.894733    5.779980   -1.124809
     50          1           0       -4.600329   -1.428476    4.419110
     51          1           0        6.578309   -3.554636    0.402428
     52          1           0        4.811617    5.046585   -1.365826
     53         26           0        0.503815   -0.720259   -0.478756
     54         17           0        0.664517   -2.133005    1.307406
     55         17           0        0.919343   -0.015252   -2.577597
     56          8           0       -2.410401   -3.492375   -1.596618
     57          8           0       -0.264942   -3.250559   -1.372214
     58          8           0       -1.076231   -5.337304   -1.775629
     59          7           0       -0.859116   -2.011238   -1.181466
     60          6           0       -3.186460   -1.205440   -1.385353
     61          6           0       -2.121623   -2.199543   -1.363799
     62          6           0       -4.484711   -1.568507   -0.999445
     63          6           0       -2.907527    0.079573   -1.866906
     64          6           0       -5.504829   -0.623153   -1.067809
     65          6           0       -3.938177    1.017073   -1.934728
     66          6           0       -5.230409    0.667532   -1.533374
     67          6           0       -1.217574   -4.178199   -1.596474
     68          1           0       -4.680643   -2.582315   -0.644881
     69          1           0       -1.890732    0.305357   -2.202711
     70          1           0       -6.517313   -0.892363   -0.760475
     71          1           0       -3.731160    2.023783   -2.303068
     72          1           0       -6.033791    1.404870   -1.593841
 ---------------------------------------------------------------------
 Rotational constants (GHZ):           0.0919274           0.0647273           0.0522333
 Standard basis: def2SVP (5D, 7F)
 There are   827 symmetry adapted cartesian basis functions of A   symmetry.
 There are   780 symmetry adapted basis functions of A   symmetry.
   780 basis functions,  1382 primitive gaussians,   827 cartesian basis functions
   178 alpha electrons      176 beta electrons
       nuclear repulsion energy      7211.0163277034 Hartrees.
 NAtoms=   72 NActive=   72 NUniq=   72 SFac= 1.00D+00 NAtFMM=   60 NAOKFM=T Big=T
 Integral buffers will be    131072 words long.
 Raffenetti 2 integral format.
 Two-electron integral symmetry is turned on.
 One-electron integrals computed using PRISM.
   1 Symmetry operations used in ECPInt.
 ECPInt:  NShTT=   64261 NPrTT=  247466 LenC2=   53079 LenP2D=  127639.
 LDataN:  DoStor=T MaxTD1= 6 Len=  172
 NBasis=   780 RedAO= T EigKep=  2.61D-04  NBF=   780
 NBsUse=   780 1.00D-06 EigRej= -1.00D+00 NBFU=   780
 Initial guess from the checkpoint file:  "dppeFeCl2_phenyldioxazolone_opt_triplet_opt_link.chk"
 B after Tr=    -0.000000   -0.000000   -0.000000
         Rot=    0.999993    0.001539   -0.002231   -0.002611 Ang=   0.43 deg.
 Initial guess <Sx>= 0.0000 <Sy>= 0.0000 <Sz>= 1.0000 <S**2>= 2.0133 S= 1.0044
 ExpMin= 3.37D-02 ExpMax= 6.09D+04 ExpMxC= 9.15D+03 IAcc=3 IRadAn=         5 AccDes= 0.00D+00
 Harris functional with IExCor= 1009 and IRadAn=       5 diagonalized for initial guess.
 HarFok:  IExCor= 1009 AccDes= 0.00D+00 IRadAn=         5 IDoV= 1 UseB2=F ITyADJ=14
 ICtDFT=  3500011 ScaDFX=  1.000000  1.000000  1.000000  1.000000
 FoFCou: FMM=F IPFlag=           0 FMFlag=      100000 FMFlg1=        2001
         NFxFlg=           0 DoJE=T BraDBF=F KetDBF=T FulRan=T
         wScrn=  0.000000 ICntrl=       500 IOpCl=  0 I1Cent=   200000004 NGrid=           0
         NMat0=    1 NMatS0=      1 NMatT0=    0 NMatD0=    1 NMtDS0=    0 NMtDT0=    0
 Petite list used in FoFCou.
 Gradient too large for Newton-Raphson -- use scaled steepest descent instead.
 Gradient too large for Newton-Raphson -- use scaled steepest descent instead.
 Gradient too large for Newton-Raphson -- use scaled steepest descent instead.
     Accept linear search using points  1 and  2.
     Minimum is close to point  2 DX= -6.44D-02 DF= -1.11D-06 DXR=  6.22D-02 DFR=  4.55D-03 which will be used.
 Gradient too large for Newton-Raphson -- use scaled steepest descent instead.
     Accept linear search using points  1 and  2.
 Gradient too large for Newton-Raphson -- use scaled steepest descent instead.
 Gradient too large for Newton-Raphson -- use scaled steepest descent instead.
     Accept linear search using points  1 and  2.
 LinEq1:  Iter=  0 NonCon=     1 RMS=2.23D-05 Max=1.60D-03 NDo=     1
 AX will form     1 AO Fock derivatives at one time.
 LinEq1:  Iter=  1 NonCon=     1 RMS=3.75D-06 Max=4.70D-04 NDo=     1
 LinEq1:  Iter=  2 NonCon=     1 RMS=5.35D-06 Max=8.24D-04 NDo=     1
 LinEq1:  Iter=  3 NonCon=     1 RMS=5.91D-06 Max=4.31D-04 NDo=     1
 LinEq1:  Iter=  4 NonCon=     1 RMS=5.91D-06 Max=4.41D-04 NDo=     1
 LinEq1:  Iter=  5 NonCon=     1 RMS=3.27D-06 Max=2.44D-04 NDo=     1
 LinEq1:  Iter=  6 NonCon=     1 RMS=2.37D-06 Max=2.31D-04 NDo=     1
 LinEq1:  Iter=  7 NonCon=     1 RMS=1.59D-06 Max=2.25D-04 NDo=     1
 LinEq1:  Iter=  8 NonCon=     1 RMS=1.23D-06 Max=1.23D-04 NDo=     1
 LinEq1:  Iter=  9 NonCon=     1 RMS=6.80D-07 Max=3.97D-05 NDo=     1
 LinEq1:  Iter= 10 NonCon=     1 RMS=5.42D-07 Max=3.22D-05 NDo=     1
 LinEq1:  Iter= 11 NonCon=     1 RMS=3.74D-07 Max=2.64D-05 NDo=     1
 LinEq1:  Iter= 12 NonCon=     1 RMS=2.66D-07 Max=2.74D-05 NDo=     1
 LinEq1:  Iter= 13 NonCon=     1 RMS=1.87D-07 Max=1.77D-05 NDo=     1
 LinEq1:  Iter= 14 NonCon=     1 RMS=1.24D-07 Max=9.02D-06 NDo=     1
 LinEq1:  Iter= 15 NonCon=     1 RMS=9.10D-08 Max=8.31D-06 NDo=     1
 LinEq1:  Iter= 16 NonCon=     1 RMS=6.39D-08 Max=7.26D-06 NDo=     1
 LinEq1:  Iter= 17 NonCon=     1 RMS=4.47D-08 Max=4.22D-06 NDo=     1
 LinEq1:  Iter= 18 NonCon=     1 RMS=3.11D-08 Max=1.99D-06 NDo=     1
 LinEq1:  Iter= 19 NonCon=     1 RMS=2.01D-08 Max=2.21D-06 NDo=     1
 LinEq1:  Iter= 20 NonCon=     1 RMS=1.49D-08 Max=1.33D-06 NDo=     1
 LinEq1:  Iter= 21 NonCon=     1 RMS=8.72D-09 Max=6.79D-07 NDo=     1
 LinEq1:  Iter= 22 NonCon=     0 RMS=5.29D-09 Max=2.69D-07 NDo=     1
 Linear equations converged to 4.620D-08 4.620D-07 after    22 iterations.
     Accept linear search using points  1 and  2.
     Minimum is close to point  2 DX= -1.28D-04 DF= -9.09D-13 DXR=  1.28D-04 DFR=  1.27D-08 which will be used.
 LinEq1:  Iter=  0 NonCon=     1 RMS=3.76D-08 Max=3.61D-06 NDo=     1
 LinEq1:  Iter=  1 NonCon=     1 RMS=5.94D-08 Max=6.02D-06 NDo=     1
 LinEq1:  Iter=  2 NonCon=     1 RMS=4.93D-08 Max=3.67D-06 NDo=     1
 LinEq1:  Iter=  3 NonCon=     1 RMS=3.88D-08 Max=2.88D-06 NDo=     1
 LinEq1:  Iter=  4 NonCon=     1 RMS=3.31D-08 Max=2.59D-06 NDo=     1
 LinEq1:  Iter=  5 NonCon=     1 RMS=1.93D-08 Max=1.16D-06 NDo=     1
 LinEq1:  Iter=  6 NonCon=     1 RMS=1.39D-08 Max=7.60D-07 NDo=     1
 LinEq1:  Iter=  7 NonCon=     1 RMS=9.46D-09 Max=7.78D-07 NDo=     1
 LinEq1:  Iter=  8 NonCon=     1 RMS=6.82D-09 Max=5.73D-07 NDo=     1
 LinEq1:  Iter=  9 NonCon=     1 RMS=5.01D-09 Max=3.50D-07 NDo=     1
 LinEq1:  Iter= 10 NonCon=     1 RMS=3.54D-09 Max=2.74D-07 NDo=     1
 LinEq1:  Iter= 11 NonCon=     1 RMS=2.63D-09 Max=2.01D-07 NDo=     1
 LinEq1:  Iter= 12 NonCon=     1 RMS=1.84D-09 Max=1.60D-07 NDo=     1
 LinEq1:  Iter= 13 NonCon=     1 RMS=1.18D-09 Max=9.52D-08 NDo=     1
 LinEq1:  Iter= 14 NonCon=     1 RMS=8.04D-10 Max=8.79D-08 NDo=     1
 LinEq1:  Iter= 15 NonCon=     1 RMS=5.65D-10 Max=6.06D-08 NDo=     1
 LinEq1:  Iter= 16 NonCon=     1 RMS=3.65D-10 Max=2.77D-08 NDo=     1
 LinEq1:  Iter= 17 NonCon=     1 RMS=2.54D-10 Max=1.78D-08 NDo=     1
 LinEq1:  Iter= 18 NonCon=     1 RMS=1.86D-10 Max=1.48D-08 NDo=     1
 LinEq1:  Iter= 19 NonCon=     1 RMS=1.22D-10 Max=1.35D-08 NDo=     1
 LinEq1:  Iter= 20 NonCon=     1 RMS=8.69D-11 Max=8.28D-09 NDo=     1
 LinEq1:  Iter= 21 NonCon=     1 RMS=5.67D-11 Max=3.54D-09 NDo=     1
 LinEq1:  Iter= 22 NonCon=     1 RMS=3.11D-11 Max=1.90D-09 NDo=     1
 LinEq1:  Iter= 23 NonCon=     1 RMS=2.15D-11 Max=1.78D-09 NDo=     1
 LinEq1:  Iter= 24 NonCon=     1 RMS=1.29D-11 Max=1.51D-09 NDo=     1
 LinEq1:  Iter= 25 NonCon=     0 RMS=8.89D-12 Max=7.54D-10 NDo=     1
 Linear equations converged to 1.285D-10 1.285D-09 after    25 iterations.
 Restarting incremental Fock formation.
 QCLLim is confused:  Bigger=T Turned=T
 NLin=  6 IMin12=  1  2 I12=  0  2 IX=  1 XLMin= 0.000D+00 XLMax= 0.000D+00
 X = 0.000D+00 1.000D+00 2.000D+00 4.000D+00 8.000D+00 1.600D+01
 DE= 0.000D+00 1.983D-10 3.602D-10 9.386D-10 5.062D-09 2.338D-08
 QCLLim is confused:  Bigger=T Turned=T
 NLin=  7 IMin12=  1  2 I12=  0  2 IX=  1 XLMin= 0.000D+00 XLMax= 0.000D+00
 X = 0.000D+00 1.000D+00 2.000D+00 4.000D+00 8.000D+00 1.600D+01 3.200D+01
 DE= 0.000D+00 1.983D-10 3.602D-10 9.386D-10 5.062D-09 2.338D-08 9.949D-08
 QCLLim is confused:  Bigger=T Turned=T
 NLin=  8 IMin12=  1  2 I12=  0  2 IX=  1 XLMin= 0.000D+00 XLMax= 0.000D+00
 X = 0.000D+00 1.000D+00 2.000D+00 4.000D+00 8.000D+00 1.600D+01 3.200D+01 6.400D+01
 DE= 0.000D+00 1.983D-10 3.602D-10 9.386D-10 5.062D-09 2.338D-08 9.949D-08 4.114D-07
 Search did not lower the energy significantly.
 No lower point found -- try reversing direction.
 QCLLim is confused:  Bigger=T Turned=T
 NLin=  6 IMin12=  1  2 I12=  0  2 IX=  1 XLMin= 0.000D+00 XLMax= 0.000D+00
 X = 0.000D+00 1.000D+00 2.000D+00 4.000D+00 8.000D+00 1.600D+01
 DE= 0.000D+00 8.331D-10 9.732D-10 2.836D-09 8.878D-09 3.031D-08
 QCLLim is confused:  Bigger=T Turned=T
 NLin=  7 IMin12=  1  2 I12=  0  2 IX=  1 XLMin= 0.000D+00 XLMax= 0.000D+00
 X = 0.000D+00 1.000D+00 2.000D+00 4.000D+00 8.000D+00 1.600D+01 3.200D+01
 DE= 0.000D+00 8.331D-10 9.732D-10 2.836D-09 8.878D-09 3.031D-08 1.133D-07
 QCLLim is confused:  Bigger=T Turned=T
 NLin=  8 IMin12=  1  2 I12=  0  2 IX=  1 XLMin= 0.000D+00 XLMax= 0.000D+00
 X = 0.000D+00 1.000D+00 2.000D+00 4.000D+00 8.000D+00 1.600D+01 3.200D+01 6.400D+01
 DE= 0.000D+00 8.331D-10 9.732D-10 2.836D-09 8.878D-09 3.031D-08 1.133D-07 4.388D-07
 Restarting incremental Fock formation.
 QCLLim is confused:  Bigger=T Turned=T
 NLin=  9 IMin12=  1  2 I12=  0  2 IX=  1 XLMin= 0.000D+00 XLMax= 0.000D+00
 X = 0.000D+00 1.000D+00 2.000D+00 4.000D+00 8.000D+00 1.600D+01 3.200D+01 6.400D+01 1.280D+02
 DE= 0.000D+00 8.331D-10 9.732D-10 2.836D-09 8.878D-09 3.031D-08 1.133D-07 4.388D-07 1.727D-06
 QCLLim is confused:  Bigger=T Turned=T
 NLin= 10 IMin12=  1  2 I12=  0  2 IX=  1 XLMin= 0.000D+00 XLMax= 0.000D+00
 X = 0.000D+00 1.000D+00 2.000D+00 4.000D+00 8.000D+00 1.600D+01 3.200D+01 6.400D+01 1.280D+02 2.560D+02
 DE= 0.000D+00 8.331D-10 9.732D-10 2.836D-09 8.878D-09 3.031D-08 1.133D-07 4.388D-07 1.727D-06 6.856D-06
 Search did not lower the energy significantly.
 No lower point found -- switch to scaled steepest descent.
 QCLLim is confused:  Bigger=T Turned=T
 NLin=  3 IMin12=  1  2 I12=  0  2 IX=  1 XLMin= 0.000D+00 XLMax= 0.000D+00
 X = 0.000D+00 1.000D+00 2.000D+00
 DE= 0.000D+00 2.001D-10 1.233D-09
 LinEq1:  Iter=  0 NonCon=     1 RMS=1.76D-08 Max=1.73D-06 NDo=     1
 LinEq1:  Iter=  1 NonCon=     1 RMS=1.44D-08 Max=1.34D-06 NDo=     1
 LinEq1:  Iter=  2 NonCon=     1 RMS=1.88D-08 Max=1.48D-06 NDo=     1
 LinEq1:  Iter=  3 NonCon=     1 RMS=1.97D-08 Max=1.54D-06 NDo=     1
 LinEq1:  Iter=  4 NonCon=     1 RMS=1.69D-08 Max=1.12D-06 NDo=     1
