 Entering Gaussian System, Link 0=/project/xlzhang/shared/bin/g16/g16
 Input=/users/b163264/scratch/fe_ch_quintet_modred_link/fe_ch_quintet_modred_link.com
 Output=/users/b163264/scratch/fe_ch_quintet_modred_link/fe_ch_quintet_modred_link.log
 Initial command:
 /project/xlzhang/shared/bin/g16/l1.exe "/lustre/scratch/xlzhang/fe_ch_quintet_modred_link/Gau-464934.inp" -scrdir="/lustre/scratch/xlzhang/fe_ch_quintet_modred_link/"
 Entering Link 1 = /project/xlzhang/shared/bin/g16/l1.exe PID=    464935.
  
 Copyright (c) 1988-2017, Gaussian, Inc.  All Rights Reserved.
  
 This is part of the Gaussian(R) 16 program.  It is based on
 the Gaussian(R) 09 system (copyright 2009, Gaussian, Inc.),
 the Gaussian(R) 03 system (copyright 2003, Gaussian, Inc.),
 the Gaussian(R) 98 system (copyright 1998, Gaussian, Inc.),
 the Gaussian(R) 94 system (copyright 1995, Gaussian, Inc.),
 the Gaussian 92(TM) system (copyright 1992, Gaussian, Inc.),
 the Gaussian 90(TM) system (copyright 1990, Gaussian, Inc.),
 the Gaussian 88(TM) system (copyright 1988, Gaussian, Inc.),
 the Gaussian 86(TM) system (copyright 1986, Carnegie Mellon
 University), and the Gaussian 82(TM) system (copyright 1983,
 Carnegie Mellon University). Gaussian is a federally registered
 trademark of Gaussian, Inc.
  
 This software contains proprietary and confidential information,
 including trade secrets, belonging to Gaussian, Inc.
  
 This software is provided under written license and may be
 used, copied, transmitted, or stored only in accord with that
 written license.
  
 The following legend is applicable only to US Government
 contracts under FAR:
  
                    RESTRICTED RIGHTS LEGEND
  
 Use, reproduction and disclosure by the US Government is
 subject to restrictions as set forth in subparagraphs (a)
 and (c) of the Commercial Computer Software - Restricted
 Rights clause in FAR 52.227-19.
  
 Gaussian, Inc.
 340 Quinnipiac St., Bldg. 40, Wallingford CT 06492
  
  
 ---------------------------------------------------------------
 Warning -- This program may not be used in any manner that
 competes with the business of Gaussian, Inc. or will provide
 assistance to any competitor of Gaussian, Inc.  The licensee
 of this program is prohibited from giving any competitor of
 Gaussian, Inc. access to this program.  By using this program,
 the user acknowledges that Gaussian, Inc. is engaged in the
 business of creating and licensing software in the field of
 computational chemistry and represents and warrants to the
 licensee that it is not a competitor of Gaussian, Inc. and that
 it will not use this program in any manner prohibited above.
 ---------------------------------------------------------------
  

 Cite this work as:
 Gaussian 16, Revision B.01,
 M. J. Frisch, G. W. Trucks, H. B. Schlegel, G. E. Scuseria, 
 M. A. Robb, J. R. Cheeseman, G. Scalmani, V. Barone, 
 G. A. Petersson, H. Nakatsuji, X. Li, M. Caricato, A. V. Marenich, 
 J. Bloino, B. G. Janesko, R. Gomperts, B. Mennucci, H. P. Hratchian, 
 J. V. Ortiz, A. F. Izmaylov, J. L. Sonnenberg, D. Williams-Young, 
 F. Ding, F. Lipparini, F. Egidi, J. Goings, B. Peng, A. Petrone, 
 T. Henderson, D. Ranasinghe, V. G. Zakrzewski, J. Gao, N. Rega, 
 G. Zheng, W. Liang, M. Hada, M. Ehara, K. Toyota, R. Fukuda, 
 J. Hasegawa, M. Ishida, T. Nakajima, Y. Honda, O. Kitao, H. Nakai, 
 T. Vreven, K. Throssell, J. A. Montgomery, Jr., J. E. Peralta, 
 F. Ogliaro, M. J. Bearpark, J. J. Heyd, E. N. Brothers, K. N. Kudin, 
 V. N. Staroverov, T. A. Keith, R. Kobayashi, J. Normand, 
 K. Raghavachari, A. P. Rendell, J. C. Burant, S. S. Iyengar, 
 J. Tomasi, M. Cossi, J. M. Millam, M. Klene, C. Adamo, R. Cammi, 
 J. W. Ochterski, R. L. Martin, K. Morokuma, O. Farkas, 
 J. B. Foresman, and D. J. Fox, Gaussian, Inc., Wallingford CT, 2016.
 
 ******************************************
 Gaussian 16:  ES64L-G16RevB.01 20-Dec-2017
                 3-Sep-2025 
 ******************************************
 %chk=fe_ch_quintet_modred_link.chk
 %nprocshared=64
 Will use up to   64 processors via shared memory.
 %mem=400GB
 ------------------------------------
 # umn15 def2svp stable=opt guess=mix
 ------------------------------------
 1/38=1,172=1/1;
 2/12=2,17=6,18=5,40=1/2;
 3/5=43,7=101,11=2,25=1,30=1,74=-73,116=2/1,2,3;
 4/13=-1/1;
 5/5=2,38=5/2;
 6/7=2,8=2,9=2,10=2,28=1/1;
 8/6=1,10=90,11=11/1;
 9/8=-3,42=1,46=1/14;
 5/5=2,8=3,17=40,38=5/8(-2);
 6/7=2,8=2,9=2,10=2,28=1/1;
 99/5=1,9=1/99;
 ----------------------------------
 Gaussian job with default settings
 ----------------------------------
 Symbolic Z-matrix:
 Charge =  0 Multiplicity = 5
 O                    -4.81766   0.65853  -0.54469 
 O                    -2.76204   1.16445   0.14967 
 O                     0.23601  -1.85548  -1.19098 
 N                    -1.76043  -1.1499   -0.48373 
 C                    -3.21133  -1.13391  -0.40261 
 C                    -3.68027   0.32579  -0.28854 
 C                    -1.01896  -2.02139  -1.13555 
 C                    -1.63324  -3.19041  -1.85692 
 H                    -3.66275  -1.54409  -1.32237 
 H                    -2.07737  -2.84016  -2.80156 
 H                    -0.84907  -3.9192   -2.08829 
 H                    -2.42864  -3.66547  -1.26744 
 C                    -3.73867  -1.94989   0.8031 
 C                    -3.36056  -1.30077   2.13124 
 H                    -3.63433  -1.95321   2.97356 
 H                    -2.27882  -1.10025   2.18912 
 H                    -3.89112  -0.34331   2.26135 
 C                    -5.24158  -2.18669   0.70118 
 H                    -5.50603  -2.70017  -0.23645 
 H                    -5.59163  -2.80574   1.54075 
 H                    -5.78436  -1.23075   0.71954 
 C                     1.60366   1.58138  -0.52915 
 C                     1.31059   0.24034   0.16552 
 C                     2.46492  -0.7558   -0.05963 
 C                     3.80122  -0.17946   0.42554 
 C                     4.06637   1.13371  -0.31766 
 C                     2.95547   2.14829  -0.08004 
 C                     0.49892   2.58631  -0.2373 
 O                     0.26764   3.57826  -0.92956 
 O                    -0.23461   2.2917    0.80681 
 H                     1.27609   0.41637   1.25587 
 H                     0.5009   -0.73122  -0.49267 
 H                     2.53809  -1.00985  -1.13124 
 H                     2.22425  -1.69234   0.46106 
 H                     3.67582   0.0648    1.50033 
 H                     5.03763   1.56349  -0.02716 
 H                     4.12202   0.92225  -1.40067 
 H                     3.15372   3.08971  -0.61561 
 H                     2.89439   2.38914   0.99653 
 Na                   -2.04333   3.30514  -0.13294 
 H                     1.63655   1.43766  -1.6234 
 H                    -3.22067  -2.92438   0.73797 
 H                     4.61647  -0.87051   0.37338 
 Fe                   -0.87936   0.45698   0.20773 
 
                          Input orientation:                          
 ---------------------------------------------------------------------
 Center     Atomic      Atomic             Coordinates (Angstroms)
 Number     Number       Type             X           Y           Z
 ---------------------------------------------------------------------
      1          8           0       -4.817664    0.658525   -0.544687
      2          8           0       -2.762037    1.164449    0.149665
      3          8           0        0.236006   -1.855483   -1.190975
      4          7           0       -1.760429   -1.149901   -0.483726
      5          6           0       -3.211331   -1.133906   -0.402610
      6          6           0       -3.680268    0.325788   -0.288540
      7          6           0       -1.018955   -2.021394   -1.135548
      8          6           0       -1.633242   -3.190411   -1.856915
      9          1           0       -3.662752   -1.544085   -1.322373
     10          1           0       -2.077366   -2.840158   -2.801556
     11          1           0       -0.849067   -3.919199   -2.088291
     12          1           0       -2.428637   -3.665468   -1.267444
     13          6           0       -3.738667   -1.949885    0.803104
     14          6           0       -3.360564   -1.300769    2.131243
     15          1           0       -3.634328   -1.953206    2.973559
     16          1           0       -2.278823   -1.100254    2.189119
     17          1           0       -3.891117   -0.343305    2.261348
     18          6           0       -5.241578   -2.186691    0.701180
     19          1           0       -5.506031   -2.700169   -0.236446
     20          1           0       -5.591627   -2.805741    1.540748
     21          1           0       -5.784356   -1.230751    0.719536
     22          6           0        1.603663    1.581378   -0.529147
     23          6           0        1.310591    0.240343    0.165520
     24          6           0        2.464918   -0.755798   -0.059631
     25          6           0        3.801220   -0.179463    0.425542
     26          6           0        4.066371    1.133709   -0.317660
     27          6           0        2.955467    2.148285   -0.080044
     28          6           0        0.498915    2.586307   -0.237302
     29          8           0        0.267643    3.578257   -0.929559
     30          8           0       -0.234610    2.291700    0.806807
     31          1           0        1.276092    0.416365    1.255870
     32          1           0        0.500901   -0.731221   -0.492670
     33          1           0        2.538093   -1.009850   -1.131242
     34          1           0        2.224253   -1.692340    0.461057
     35          1           0        3.675823    0.064802    1.500332
     36          1           0        5.037634    1.563489   -0.027163
     37          1           0        4.122020    0.922249   -1.400671
     38          1           0        3.153715    3.089710   -0.615607
     39          1           0        2.894391    2.389136    0.996527
     40         11           0       -2.043329    3.305145   -0.132937
     41          1           0        1.636551    1.437661   -1.623395
     42          1           0       -3.220674   -2.924379    0.737971
     43          1           0        4.616469   -0.870511    0.373384
     44         26           0       -0.879359    0.456981    0.207732
 ---------------------------------------------------------------------
                    Distance matrix (angstroms):
                    1          2          3          4          5
     1  O    0.000000
     2  O    2.227933   0.000000
     3  O    5.681329   4.461566   0.000000
     4  N    3.552577   2.600119   2.232443   0.000000
     5  C    2.411079   2.406098   3.609200   1.453256   0.000000
     6  C    1.212433   1.318531   4.572694   2.429308   1.537407
     7  C    4.686286   3.852233   1.267093   1.316873   2.476155
     8  C    5.164958   4.925987   2.391568   2.462825   2.972302
     9  H    2.605784   3.211595   3.913381   2.116020   1.103627
    10  H    4.984323   5.021490   2.985841   2.886131   3.154697
    11  H    6.252042   5.874639   2.498296   3.327795   4.022396
    12  H    4.992669   5.044547   3.222145   2.718233   2.787356
    13  C    3.128031   3.328643   4.447841   2.491853   1.548435
    14  C    3.622509   3.219035   4.927490   3.069406   2.543723
    15  H    4.538665   4.295933   5.686157   4.013679   3.499814
    16  H    4.124647   3.085733   4.280160   2.723104   2.754589
    17  H    3.120254   2.829726   5.589129   3.567332   2.860740
    18  C    3.134827   4.205048   5.804643   3.820646   2.539412
    19  H    3.442337   4.755403   5.881803   4.061282   2.783242
    20  H    4.116940   5.069921   6.505890   4.638791   3.498211
    21  H    2.470246   3.898224   6.347055   4.200758   2.808745
    22  C    6.487321   4.437787   3.757727   4.333482   5.529281
    23  C    6.183428   4.176185   2.717958   3.432996   4.760159
    24  C    7.434486   5.572451   2.730805   4.264825   5.699158
    25  C    8.713709   6.705114   4.258277   5.718431   7.125494
    26  C    8.899630   6.844450   4.936562   6.260515   7.623270
    27  C    7.928231   5.806079   4.965863   5.768940   6.993299
    28  C    5.663642   3.578440   4.550617   4.373169   5.256733
    29  O    5.876505   4.021213   5.440117   5.164041   5.880937
    30  O    5.049572   2.844366   4.627282   3.979726   4.696630
    31  H    6.358814   4.253211   3.497159   3.834037   5.029002
    32  H    5.497384   3.827914   1.349727   2.299780   3.735095
    33  H    7.565361   5.870237   2.453216   4.349274   5.796738
    34  H    7.491774   5.755110   2.590164   4.130926   5.532029
    35  H    8.756365   6.669300   4.771055   5.913106   7.245066
    36  H    9.910282   7.811874   6.008283   7.333798   8.686905
    37  H    8.984443   7.060626   4.781304   6.303793   7.681272
    38  H    8.334181   6.268045   5.770529   6.491572   7.641866
    39  H    8.052711   5.849121   5.465251   6.031856   7.186741
    40  Na   3.856303   2.275738   5.739938   4.477781   4.598057
    41  H    6.589959   4.750365   3.604624   4.419705   5.621853
    42  H    4.127080   4.156316   4.100245   2.602620   2.122924
    43  H    9.601233   7.657250   4.754561   6.440305   7.870578
    44  Fe   4.014598   2.012053   2.923681   1.958690   2.888171
                    6          7          8          9         10
     6  C    0.000000
     7  C    3.648188   0.000000
     8  C    4.360478   1.504766   0.000000
     9  H    2.136713   2.693026   2.667402   0.000000
    10  H    4.348305   2.136865   1.101031   2.526111   0.000000
    11  H    5.410612   2.130316   1.095261   3.760933   1.783759
    12  H    4.295923   2.169696   1.098093   2.454857   1.777084
    13  C    2.524636   3.340706   3.612121   2.165200   4.067687
    14  C    2.933129   4.083425   4.739176   3.475339   5.324361
    15  H    3.979600   4.871302   5.372942   4.315463   6.046715
    16  H    3.183777   3.672761   4.599557   3.800371   5.289110
    17  H    2.644631   4.754387   5.492186   3.786434   5.929331
    18  C    3.119260   4.607758   4.535570   2.645827   4.765335
    19  H    3.534479   4.626335   4.226671   2.431758   4.284289
    20  H    4.099520   5.356033   5.230764   3.675568   5.586306
    21  H    2.804678   5.174505   5.264040   2.961212   5.360042
    22  C    5.436389   4.497312   5.916966   6.175180   6.185774
    23  C    5.012200   3.497859   4.952421   5.489276   5.456306
    24  C    6.243840   3.859625   5.094358   6.305890   5.700443
    25  C    7.532453   5.391085   6.618821   7.786416   7.214654
    26  C    7.788710   6.040212   7.317985   8.241321   7.727022
    27  C    6.884617   5.856308   7.260523   7.679701   7.590823
    28  C    4.751646   4.933729   6.367080   5.962968   6.531397
    29  O    5.155139   5.749248   7.091419   6.468438   7.085160
    30  O    4.115477   4.794864   6.253409   5.567658   6.538501
    31  H    5.192197   4.114461   5.582337   5.906173   6.189776
    32  H    4.317535   2.094708   3.530346   4.322634   4.052904
    33  H    6.415769   3.698085   4.762508   6.226750   5.238553
    34  H    6.284752   3.629852   4.743151   6.153002   5.519606
    35  H    7.574975   5.774168   7.074863   8.025638   7.748820
    36  H    8.809202   7.124758   8.393339   9.329057   8.815474
    37  H    7.903689   5.930004   7.088383   8.166493   7.385836
    38  H    7.378995   6.618527   7.993480   8.272593   8.204018
    39  H    7.009632   6.269992   7.731296   7.990222   8.154098
    40  Na   3.402991   5.516030   6.732943   5.249030   6.699809
    41  H    5.593448   4.388026   5.671431   6.088024   5.786275
    42  H    3.439264   3.028700   3.053547   2.519060   3.720551
    43  H    8.408634   5.946378   7.029584   8.477901   7.665976
    44  Fe   2.847558   2.822451   4.258471   3.754033   4.621922
                   11         12         13         14         15
    11  H    0.000000
    12  H    1.798113   0.000000
    13  C    4.537417   2.991082   0.000000
    14  C    5.564913   4.243980   1.525866   0.000000
    15  H    6.102879   4.729867   2.172964   1.100053   0.000000
    16  H    5.318542   4.307040   2.184961   1.101689   1.783330
    17  H    6.400035   5.062409   2.175044   1.102339   1.779035
    18  C    5.484240   3.738302   1.524863   2.523520   2.793112
    19  H    5.157778   3.386017   2.183384   3.488166   3.790166
    20  H    6.074668   4.316200   2.170269   2.755225   2.571144
    21  H    6.282414   4.597476   2.170019   2.805813   3.197684
    22  C    6.221187   6.658372   6.541040   6.326768   7.224873
    23  C    5.200536   5.593798   5.540633   5.297054   6.094995
    24  C    5.010495   5.819955   6.376098   6.247653   6.916273
    25  C    6.475349   7.336862   7.754150   7.447006   8.057663
    26  C    7.268325   8.131379   8.466598   8.190432   8.925353
    27  C    7.437869   8.012379   7.898505   7.528480   8.340990
    28  C    6.896726   6.979717   6.294171   5.967826   6.928240
    29  O    7.668217   7.736643   7.043649   6.807150   7.813884
    30  O    6.880001   6.678632   5.501770   4.942828   5.854240
    31  H    5.873400   6.062466   5.563447   5.021295   5.716428
    32  H    3.812037   4.218089   4.597620   4.703213   5.532460
    33  H    4.566520   5.633761   6.634989   6.747044   7.472489
    34  H    4.572021   5.341380   5.978272   5.842348   6.379944
    35  H    7.016061   7.670719   7.714905   7.195386   7.725352
    36  H    8.304298   9.199211   9.489816   9.131945   9.827228
    37  H    6.973102   7.998500   8.654258   8.567689   9.357514
    38  H    8.204625   8.787490   8.655356   8.322098   9.186438
    39  H    7.957680   8.373674   7.928554   7.350336   8.086332
    40  Na   7.578972   7.072836   5.600507   5.298685   6.311248
    41  H    5.923713   6.534094   6.801201   6.824036   7.772524
    42  H    3.821249   2.279962   1.105530   2.144035   2.472274
    43  H    6.725060   7.754845   8.435521   8.179747   8.718302
    44  Fe   4.942023   4.644458   3.784589   3.598049   4.587881
                   16         17         18         19         20
    16  H    0.000000
    17  H    1.782605   0.000000
    18  C    3.488872   2.766937   0.000000
    19  H    4.342576   3.794961   1.101244   0.000000
    20  H    3.782029   3.078082   1.100287   1.782383   0.000000
    21  H    3.803349   2.597903   1.099439   1.774980   1.786652
    22  C    5.445532   6.456305   7.910080   8.304521   8.677758
    23  C    4.333134   5.638342   7.007735   7.434684   7.668800
    24  C    5.261046   6.779106   7.875047   8.206575   8.465896
    25  C    6.397264   7.910062   9.266992   9.665253   9.816649
    26  C    7.178859   8.494379   9.934838  10.311940  10.594804
    27  C    6.565051   7.652833   9.305583   9.753405  10.011102
    28  C    5.214794   5.839371   7.524328   8.000388   8.326485
    29  O    6.172447   6.546436   8.139131   8.557707   9.010488
    30  O    4.194633   4.735925   6.718398   7.334508   7.431030
    31  H    3.975991   5.318659   7.040142   7.611635   7.591356
    32  H    3.880083   5.198549   6.043156   6.326582   6.749616
    33  H    5.851124   7.299910   8.078738   8.268360   8.743975
    34  H    4.859471   6.516034   7.486032   7.826846   7.968273
    35  H    6.106520   7.616054   9.231896   9.745148   9.701921
    36  H    8.095553   9.412531  10.966154  11.375036  11.598694
    37  H    7.612352   8.900695  10.087629  10.352618  10.812252
    38  H    7.411798   8.348181  10.002764  10.423899  10.765092
    39  H    6.352973   7.423552   9.339133   9.898906   9.964709
    40  Na   4.985473   4.738999   6.409743   6.932879   7.261857
    41  H    6.025482   6.987001   8.114693   8.370289   8.959063
    42  H    2.514030   3.071175   2.151648   2.494517   2.505982
    43  H    7.134055   8.730486   9.950923  10.304589  10.455290
    44  Fe   2.882599   3.732088   5.124592   5.618806   5.884535
                   21         22         23         24         25
    21  H    0.000000
    22  C    8.003131   0.000000
    23  C    7.267002   1.538450   0.000000
    24  C    8.299591   2.534679   1.541253   0.000000
    25  C    9.647534   2.973424   2.539110   1.534033   0.000000
    26  C   10.183480   2.511984   2.936986   2.490275   1.532017
    27  C    9.404346   1.533118   2.531040   2.945293   2.527712
    28  C    7.413836   1.521685   2.514882   3.881546   4.358218
    29  O    7.903971   2.435735   3.664507   4.936479   5.333191
    30  O    6.573808   2.380878   2.647066   4.162380   4.747624
    31  H    7.269840   2.156581   1.105005   2.125516   2.724101
    32  H    6.420547   2.562329   1.425745   2.011340   3.469821
    33  H    8.528619   2.819599   2.179756   1.103742   2.169933
    34  H    8.026063   3.476042   2.158097   1.098247   2.185608
    35  H    9.580349   3.273016   2.721555   2.138495   1.109308
    36  H   11.201821   3.470514   3.959633   3.463959   2.184386
    37  H   10.356977   2.745201   3.289693   2.712972   2.156788
    38  H   10.016891   2.164533   3.482263   3.946072   3.491525
    39  H    9.407495   2.155489   2.795766   3.345224   2.783175
    40  Na   5.941073   4.053259   4.553116   6.068025   6.827382
    41  H    8.226762   1.104135   2.177163   2.818300   3.391021
    42  H    3.072650   6.721731   5.556575   6.137171   7.545805
    43  H   10.412817   3.987897   3.493714   2.197688   1.070000
    44  Fe   5.212425   2.823589   2.201044   3.567423   4.728670
                   26         27         28         29         30
    26  C    0.000000
    27  C    1.523133   0.000000
    28  C    3.852693   2.500248   0.000000
    29  O    4.558571   3.160837   1.231532   0.000000
    30  O    4.593888   3.314161   1.309586   2.218660   0.000000
    31  H    3.282718   2.757628   2.746309   3.973743   2.449645
    32  H    4.027551   3.806141   3.327343   4.337843   3.371597
    33  H    2.755430   3.354554   4.229624   5.123119   4.726960
    34  H    3.462131   3.946880   4.665974   5.791488   4.694478
    35  H    2.144804   2.712453   4.412494   5.464836   4.553190
    36  H    1.101114   2.163377   4.657283   5.256084   5.387240
    37  H    1.104864   2.146641   4.153240   4.704524   5.072335
    38  H    2.178911   1.101095   2.728460   2.943918   3.760429
    39  H    2.162573   1.104873   2.701762   3.467509   3.136261
    40  Na   6.486732   5.131187   2.643979   2.459632   2.276325
    41  H    2.775132   2.150920   2.129520   2.633908   3.183788
    42  H    8.407346   8.034039   6.719685   7.565268   6.010723
    43  H    2.190217   3.475292   5.410803   6.356217   5.806928
    44  Fe   5.019387   4.201097   2.575213   3.514457   2.034892
                   31         32         33         34         35
    31  H    0.000000
    32  H    2.230531   0.000000
    33  H    3.053693   2.153035   0.000000
    34  H    2.444867   2.191640   1.760598   0.000000
    35  H    2.437636   3.832211   3.061779   2.504934   0.000000
    36  H    4.136577   5.105324   3.753501   4.330577   2.536500
    37  H    3.925867   4.083005   2.512852   3.728757   3.057797
    38  H    3.764926   4.653176   4.177471   4.989099   3.728252
    39  H    2.564756   4.205131   4.025848   4.170643   2.503394
    40  Na   4.614368   4.784847   6.372223   6.598480   6.773189
    41  H    3.076222   2.696718   2.654299   3.806211   3.975053
    42  H    5.625806   4.491608   6.350022   5.589439   7.555003
    43  H    3.686862   4.208011   2.569623   2.530966   1.740586
    44  Fe   2.397126   1.951283   3.952648   3.783670   4.751242
                   36         37         38         39         40
    36  H    0.000000
    37  H    1.770893   0.000000
    38  H    2.494948   2.500365   0.000000
    39  H    2.514582   3.066821   1.776803   0.000000
    40  Na   7.292777   6.730295   5.223854   5.147411   0.000000
    41  H    3.759143   2.548100   2.459002   3.058015   4.387537
    42  H    9.430060   8.560695   8.867597   8.105203   6.399343
    43  H    2.502434   2.570163   4.336024   3.738872   7.876889
    44  Fe   6.024147   5.274204   4.886188   4.312379   3.095629
                   41         42         43         44
    41  H    0.000000
    42  H    6.942339   0.000000
    43  H    4.265524   8.110001   0.000000
    44  Fe   3.262601   4.146867   5.656307   0.000000
 Stoichiometry    C14H22FeNNaO5(5)
 Framework group  C1[X(C14H22FeNNaO5)]
 Deg. of freedom   126
 Full point group                 C1      NOp   1
 Largest Abelian subgroup         C1      NOp   1
 Largest concise Abelian subgroup C1      NOp   1
                         Standard orientation:                         
 ---------------------------------------------------------------------
 Center     Atomic      Atomic             Coordinates (Angstroms)
 Number     Number       Type             X           Y           Z
 ---------------------------------------------------------------------
      1          8           0       -3.538510    1.806899   -0.818859
      2          8           0       -1.474234    1.610992   -0.003953
      3          8           0        0.275801   -2.403459   -0.856676
      4          7           0       -1.356656   -0.960554   -0.369942
      5          6           0       -2.704077   -0.417384   -0.407050
      6          6           0       -2.613652    1.116848   -0.446753
      7          6           0       -0.954466   -2.101943   -0.889201
      8          6           0       -1.918486   -3.040657   -1.562847
      9          1           0       -3.230971   -0.730737   -1.324756
     10          1           0       -2.160376   -2.653581   -2.564810
     11          1           0       -1.443979   -4.021720   -1.672193
     12          1           0       -2.858580   -3.135811   -1.003403
     13          6           0       -3.547492   -0.861610    0.813182
     14          6           0       -3.020572   -0.258298    2.111888
     15          1           0       -3.551783   -0.679002    2.978455
     16          1           0       -1.944038   -0.453979    2.240357
     17          1           0       -3.171189    0.833648    2.122882
     18          6           0       -5.026953   -0.553187    0.610013
     19          1           0       -5.416759   -1.031234   -0.302269
     20          1           0       -5.616826   -0.915854    1.465088
     21          1           0       -5.184341    0.530240    0.509109
     22          6           0        2.769598    0.363459   -0.361036
     23          6           0        1.976343   -0.704448    0.411717
     24          6           0        2.697434   -2.065606    0.359402
     25          6           0        4.127959   -1.959879    0.903163
     26          6           0        4.887332   -0.912808    0.082146
     27          6           0        4.212771    0.451175    0.148875
     28          6           0        2.094746    1.721858   -0.239166
     29          8           0        2.272997    2.654019   -1.024006
     30          8           0        1.256973    1.818698    0.762719
     31          1           0        1.958089   -0.416686    1.478440
     32          1           0        0.899604   -1.383423   -0.230447
     33          1           0        2.722365   -2.437708   -0.679428
     34          1           0        2.108330   -2.794851    0.931508
     35          1           0        4.050743   -1.577817    1.941734
     36          1           0        5.933911   -0.832251    0.414763
     37          1           0        4.912007   -1.240279   -0.972784
     38          1           0        4.764887    1.198623   -0.441802
     39          1           0        4.194054    0.807201    1.194648
     40         11           0       -0.012734    3.310710   -0.396331
     41          1           0        2.798303    0.105849   -1.434315
     42          1           0       -3.417759   -1.958178    0.867084
     43          1           0        4.636852   -2.898640    0.971404
     44         26           0        0.016423    0.285767    0.260776
 ---------------------------------------------------------------------
 Rotational constants (GHZ):           0.3983676           0.1880782           0.1445697
 Standard basis: def2SVP (5D, 7F)
 There are   462 symmetry adapted cartesian basis functions of A   symmetry.
 There are   436 symmetry adapted basis functions of A   symmetry.
   436 basis functions,   769 primitive gaussians,   462 cartesian basis functions
    97 alpha electrons       93 beta electrons
       nuclear repulsion energy      2571.0812205197 Hartrees.
 NAtoms=   44 NActive=   44 NUniq=   44 SFac= 1.00D+00 NAtFMM=   60 NAOKFM=F Big=F
 Integral buffers will be    131072 words long.
 Raffenetti 2 integral format.
 Two-electron integral symmetry is turned on.
 One-electron integrals computed using PRISM.
   1 Symmetry operations used in ECPInt.
 ECPInt:  NShTT=   20910 NPrTT=   78995 LenC2=   18901 LenP2D=   49127.
 LDataN:  DoStor=T MaxTD1= 6 Len=  172
 NBasis=   436 RedAO= T EigKep=  7.43D-04  NBF=   436
 NBsUse=   436 1.00D-06 EigRej= -1.00D+00 NBFU=   436
 ExpMin= 2.80D-02 ExpMax= 6.09D+04 ExpMxC= 9.15D+03 IAcc=3 IRadAn=         5 AccDes= 0.00D+00
 Harris functional with IExCor= 1009 and IRadAn=       5 diagonalized for initial guess.
 HarFok:  IExCor= 1009 AccDes= 0.00D+00 IRadAn=         5 IDoV= 1 UseB2=F ITyADJ=14
 ICtDFT=  3500011 ScaDFX=  1.000000  1.000000  1.000000  1.000000
 FoFCou: FMM=F IPFlag=           0 FMFlag=      100000 FMFlg1=           0
         NFxFlg=           0 DoJE=T BraDBF=F KetDBF=T FulRan=T
         wScrn=  0.000000 ICntrl=       500 IOpCl=  0 I1Cent=   200000004 NGrid=           0
         NMat0=    1 NMatS0=      1 NMatT0=    0 NMatD0=    1 NMtDS0=    0 NMtDT0=    0
 Petite list used in FoFCou.
 Mixing orbitals, IMix= 1 IMixAn=  0 NRI=1 NE=   97 Coef=  7.07106781D-01  7.07106781D-01
 Mixing orbitals, IMix= 1 IMixAn=  0 NRI=1 NE=   93 Coef= -7.07106781D-01  7.07106781D-01
 Initial guess <Sx>= 0.0000 <Sy>= 0.0000 <Sz>= 2.0000 <S**2>= 6.0000 S= 2.0000
 Requested convergence on RMS density matrix=1.00D-08 within 128 cycles.
 Requested convergence on MAX density matrix=1.00D-06.
 Requested convergence on             energy=1.00D-06.
 No special actions if energy rises.
 EnCoef did     1 forward-backward iterations
 EnCoef did     3 forward-backward iterations
 Restarting incremental Fock formation.
 Rare condition: small coef for last iteration:  0.000D+00
 Rare condition: small coef for last iteration:  0.000D+00
 Restarting incremental Fock formation.
 SCF Done:  E(UMN15) =  -2401.63087315     A.U. after   52 cycles
            NFock= 52  Conv=0.35D-08     -V/T= 2.0061
 <Sx>= 0.0000 <Sy>= 0.0000 <Sz>= 2.0000 <S**2>= 6.0160 S= 2.0032
 <L.S>= 0.000000000000E+00
 Annihilation of the first spin contaminant:
 S**2 before annihilation     6.0160,   after     6.0000

 **********************************************************************

            Population analysis using the SCF Density.

 **********************************************************************

 Orbital symmetries:
 Alpha Orbitals:
       Occupied  (A) (A) (A) (A) (A) (A) (A) (A) (A) (A) (A) (A)
                 (A) (A) (A) (A) (A) (A) (A) (A) (A) (A) (A) (A)
                 (A) (A) (A) (A) (A) (A) (A) (A) (A) (A) (A) (A)
                 (A) (A) (A) (A) (A) (A) (A) (A) (A) (A) (A) (A)
                 (A) (A) (A) (A) (A) (A) (A) (A) (A) (A) (A) (A)
                 (A) (A) (A) (A) (A) (A) (A) (A) (A) (A) (A) (A)
                 (A) (A) (A) (A) (A) (A) (A) (A) (A) (A) (A) (A)
                 (A) (A) (A) (A) (A) (A) (A) (A) (A) (A) (A) (A)
                 (A)
       Virtual   (A) (A) (A) (A) (A) (A) (A) (A) (A) (A) (A) (A)
                 (A) (A) (A) (A) (A) (A) (A) (A) (A) (A) (A) (A)
                 (A) (A) (A) (A) (A) (A) (A) (A) (A) (A) (A) (A)
                 (A) (A) (A) (A) (A) (A) (A) (A) (A) (A) (A) (A)
                 (A) (A) (A) (A) (A) (A) (A) (A) (A) (A) (A) (A)
                 (A) (A) (A) (A) (A) (A) (A) (A) (A) (A) (A) (A)
                 (A) (A) (A) (A) (A) (A) (A) (A) (A) (A) (A) (A)
                 (A) (A) (A) (A) (A) (A) (A) (A) (A) (A) (A) (A)
                 (A) (A) (A) (A) (A) (A) (A) (A) (A) (A) (A) (A)
                 (A) (A) (A) (A) (A) (A) (A) (A) (A) (A) (A) (A)
                 (A) (A) (A) (A) (A) (A) (A) (A) (A) (A) (A) (A)
                 (A) (A) (A) (A) (A) (A) (A) (A) (A) (A) (A) (A)
                 (A) (A) (A) (A) (A) (A) (A) (A) (A) (A) (A) (A)
                 (A) (A) (A) (A) (A) (A) (A) (A) (A) (A) (A) (A)
                 (A) (A) (A) (A) (A) (A) (A) (A) (A) (A) (A) (A)
                 (A) (A) (A) (A) (A) (A) (A) (A) (A) (A) (A) (A)
                 (A) (A) (A) (A) (A) (A) (A) (A) (A) (A) (A) (A)
                 (A) (A) (A) (A) (A) (A) (A) (A) (A) (A) (A) (A)
                 (A) (A) (A) (A) (A) (A) (A) (A) (A) (A) (A) (A)
                 (A) (A) (A) (A) (A) (A) (A) (A) (A) (A) (A) (A)
                 (A) (A) (A) (A) (A) (A) (A) (A) (A) (A) (A) (A)
                 (A) (A) (A) (A) (A) (A) (A) (A) (A) (A) (A) (A)
                 (A) (A) (A) (A) (A) (A) (A) (A) (A) (A) (A) (A)
                 (A) (A) (A) (A) (A) (A) (A) (A) (A) (A) (A) (A)
                 (A) (A) (A) (A) (A) (A) (A) (A) (A) (A) (A) (A)
                 (A) (A) (A) (A) (A) (A) (A) (A) (A) (A) (A) (A)
                 (A) (A) (A) (A) (A) (A) (A) (A) (A) (A) (A) (A)
                 (A) (A) (A) (A) (A) (A) (A) (A) (A) (A) (A) (A)
                 (A) (A) (A)
 Beta  Orbitals:
       Occupied  (A) (A) (A) (A) (A) (A) (A) (A) (A) (A) (A) (A)
                 (A) (A) (A) (A) (A) (A) (A) (A) (A) (A) (A) (A)
                 (A) (A) (A) (A) (A) (A) (A) (A) (A) (A) (A) (A)
                 (A) (A) (A) (A) (A) (A) (A) (A) (A) (A) (A) (A)
                 (A) (A) (A) (A) (A) (A) (A) (A) (A) (A) (A) (A)
                 (A) (A) (A) (A) (A) (A) (A) (A) (A) (A) (A) (A)
                 (A) (A) (A) (A) (A) (A) (A) (A) (A) (A) (A) (A)
                 (A) (A) (A) (A) (A) (A) (A) (A) (A)
       Virtual   (A) (A) (A) (A) (A) (A) (A) (A) (A) (A) (A) (A)
                 (A) (A) (A) (A) (A) (A) (A) (A) (A) (A) (A) (A)
                 (A) (A) (A) (A) (A) (A) (A) (A) (A) (A) (A) (A)
                 (A) (A) (A) (A) (A) (A) (A) (A) (A) (A) (A) (A)
                 (A) (A) (A) (A) (A) (A) (A) (A) (A) (A) (A) (A)
                 (A) (A) (A) (A) (A) (A) (A) (A) (A) (A) (A) (A)
                 (A) (A) (A) (A) (A) (A) (A) (A) (A) (A) (A) (A)
                 (A) (A) (A) (A) (A) (A) (A) (A) (A) (A) (A) (A)
                 (A) (A) (A) (A) (A) (A) (A) (A) (A) (A) (A) (A)
                 (A) (A) (A) (A) (A) (A) (A) (A) (A) (A) (A) (A)
                 (A) (A) (A) (A) (A) (A) (A) (A) (A) (A) (A) (A)
                 (A) (A) (A) (A) (A) (A) (A) (A) (A) (A) (A) (A)
                 (A) (A) (A) (A) (A) (A) (A) (A) (A) (A) (A) (A)
                 (A) (A) (A) (A) (A) (A) (A) (A) (A) (A) (A) (A)
                 (A) (A) (A) (A) (A) (A) (A) (A) (A) (A) (A) (A)
                 (A) (A) (A) (A) (A) (A) (A) (A) (A) (A) (A) (A)
                 (A) (A) (A) (A) (A) (A) (A) (A) (A) (A) (A) (A)
                 (A) (A) (A) (A) (A) (A) (A) (A) (A) (A) (A) (A)
                 (A) (A) (A) (A) (A) (A) (A) (A) (A) (A) (A) (A)
                 (A) (A) (A) (A) (A) (A) (A) (A) (A) (A) (A) (A)
                 (A) (A) (A) (A) (A) (A) (A) (A) (A) (A) (A) (A)
                 (A) (A) (A) (A) (A) (A) (A) (A) (A) (A) (A) (A)
                 (A) (A) (A) (A) (A) (A) (A) (A) (A) (A) (A) (A)
                 (A) (A) (A) (A) (A) (A) (A) (A) (A) (A) (A) (A)
                 (A) (A) (A) (A) (A) (A) (A) (A) (A) (A) (A) (A)
                 (A) (A) (A) (A) (A) (A) (A) (A) (A) (A) (A) (A)
                 (A) (A) (A) (A) (A) (A) (A) (A) (A) (A) (A) (A)
                 (A) (A) (A) (A) (A) (A) (A) (A) (A) (A) (A) (A)
                 (A) (A) (A) (A) (A) (A) (A)
 The electronic state is 5-A.
 Alpha  occ. eigenvalues -- -254.06804 -37.89858 -29.34243 -25.75182 -25.74998
 Alpha  occ. eigenvalues --  -25.73020 -18.80545 -18.80540 -18.80299 -18.79110
 Alpha  occ. eigenvalues --  -18.77392 -14.09583 -10.16885 -10.16397 -10.15834
 Alpha  occ. eigenvalues --  -10.08993 -10.06436 -10.06180 -10.06009 -10.04954
 Alpha  occ. eigenvalues --  -10.04394 -10.04376 -10.04228 -10.04176 -10.03851
 Alpha  occ. eigenvalues --  -10.03661  -3.42002  -2.34860  -2.34770  -2.31734
 Alpha  occ. eigenvalues --   -2.22237  -1.22733  -1.22549  -1.22330  -1.09645
 Alpha  occ. eigenvalues --   -1.08412  -1.07816  -0.99920  -0.99162  -0.94165
 Alpha  occ. eigenvalues --   -0.87507  -0.83909  -0.78773  -0.78464  -0.77224
 Alpha  occ. eigenvalues --   -0.73740  -0.71630  -0.66720  -0.63786  -0.62272
 Alpha  occ. eigenvalues --   -0.60299  -0.58966  -0.57523  -0.56945  -0.56590
 Alpha  occ. eigenvalues --   -0.54416  -0.53148  -0.52026  -0.50757  -0.50718
 Alpha  occ. eigenvalues --   -0.50152  -0.49475  -0.48740  -0.47618  -0.46845
 Alpha  occ. eigenvalues --   -0.46791  -0.46427  -0.45294  -0.44726  -0.44504
 Alpha  occ. eigenvalues --   -0.44190  -0.43425  -0.42715  -0.42371  -0.41893
 Alpha  occ. eigenvalues --   -0.41502  -0.41198  -0.40298  -0.40057  -0.38754
 Alpha  occ. eigenvalues --   -0.38526  -0.38019  -0.37670  -0.37518  -0.37097
 Alpha  occ. eigenvalues --   -0.36187  -0.35626  -0.34754  -0.34251  -0.33941
 Alpha  occ. eigenvalues --   -0.32895  -0.32268  -0.30774  -0.30428  -0.30117
 Alpha  occ. eigenvalues --   -0.27680  -0.23684
 Alpha virt. eigenvalues --    0.02047   0.02522   0.04312   0.05348   0.05730
 Alpha virt. eigenvalues --    0.07968   0.09409   0.10191   0.10883   0.11443
 Alpha virt. eigenvalues --    0.12187   0.12376   0.13078   0.14027   0.14405
 Alpha virt. eigenvalues --    0.15291   0.15489   0.16520   0.16919   0.17383
 Alpha virt. eigenvalues --    0.17831   0.18190   0.18322   0.19061   0.19417
 Alpha virt. eigenvalues --    0.19572   0.19819   0.20451   0.21294   0.21532
 Alpha virt. eigenvalues --    0.21864   0.22603   0.23280   0.23766   0.24508
 Alpha virt. eigenvalues --    0.25461   0.25738   0.26327   0.27407   0.27642
 Alpha virt. eigenvalues --    0.28012   0.29037   0.29364   0.30409   0.31214
 Alpha virt. eigenvalues --    0.32673   0.32905   0.33830   0.35398   0.36152
 Alpha virt. eigenvalues --    0.37972   0.38327   0.38432   0.42211   0.42688
 Alpha virt. eigenvalues --    0.44017   0.44663   0.44940   0.45847   0.46144
 Alpha virt. eigenvalues --    0.46708   0.47104   0.47750   0.48020   0.49586
 Alpha virt. eigenvalues --    0.50515   0.50780   0.52177   0.52306   0.54060
 Alpha virt. eigenvalues --    0.55773   0.56186   0.56898   0.58299   0.58352
 Alpha virt. eigenvalues --    0.59662   0.60193   0.61567   0.62234   0.62864
 Alpha virt. eigenvalues --    0.63641   0.64667   0.65326   0.66096   0.66264
 Alpha virt. eigenvalues --    0.66797   0.66946   0.67284   0.68730   0.69250
 Alpha virt. eigenvalues --    0.69476   0.69572   0.69735   0.70280   0.70654
 Alpha virt. eigenvalues --    0.70880   0.71113   0.71436   0.71546   0.71749
 Alpha virt. eigenvalues --    0.72191   0.72277   0.73312   0.73634   0.73721
 Alpha virt. eigenvalues --    0.73928   0.74134   0.74383   0.74529   0.75043
 Alpha virt. eigenvalues --    0.75548   0.75786   0.76135   0.76611   0.77276
 Alpha virt. eigenvalues --    0.77797   0.79349   0.80327   0.80875   0.84135
 Alpha virt. eigenvalues --    0.85536   0.86302   0.88548   0.89915   0.92054
 Alpha virt. eigenvalues --    0.92649   0.94343   0.95538   0.96790   0.99250
 Alpha virt. eigenvalues --    1.00362   1.02842   1.04991   1.05635   1.05749
 Alpha virt. eigenvalues --    1.07624   1.08285   1.09211   1.10285   1.12318
 Alpha virt. eigenvalues --    1.12854   1.14828   1.14985   1.16557   1.17194
 Alpha virt. eigenvalues --    1.17857   1.18518   1.19466   1.22210   1.22864
 Alpha virt. eigenvalues --    1.23528   1.24875   1.26014   1.26475   1.27130
 Alpha virt. eigenvalues --    1.29119   1.30702   1.32297   1.33330   1.34164
 Alpha virt. eigenvalues --    1.34390   1.36464   1.36991   1.37368   1.38734
 Alpha virt. eigenvalues --    1.40565   1.42079   1.44425   1.44582   1.46956
 Alpha virt. eigenvalues --    1.48943   1.50338   1.51253   1.53029   1.55892
 Alpha virt. eigenvalues --    1.56464   1.57309   1.58062   1.58345   1.58747
 Alpha virt. eigenvalues --    1.58872   1.60247   1.61913   1.63099   1.63214
 Alpha virt. eigenvalues --    1.66014   1.66525   1.68330   1.69218   1.69680
 Alpha virt. eigenvalues --    1.71476   1.72592   1.73245   1.73785   1.74372
 Alpha virt. eigenvalues --    1.74729   1.76071   1.76837   1.77265   1.77738
 Alpha virt. eigenvalues --    1.78374   1.78987   1.79096   1.79863   1.80449
 Alpha virt. eigenvalues --    1.81044   1.81775   1.81965   1.82526   1.83504
 Alpha virt. eigenvalues --    1.84423   1.84670   1.85893   1.86523   1.86816
 Alpha virt. eigenvalues --    1.88237   1.88733   1.89337   1.89512   1.90606
 Alpha virt. eigenvalues --    1.90772   1.92606   1.92948   1.93901   1.94859
 Alpha virt. eigenvalues --    1.95195   1.96090   1.96256   1.97262   1.98246
 Alpha virt. eigenvalues --    1.98685   1.99461   2.01541   2.02024   2.02461
 Alpha virt. eigenvalues --    2.03312   2.04768   2.06432   2.08825   2.09385
 Alpha virt. eigenvalues --    2.10795   2.11342   2.12307   2.13718   2.15731
 Alpha virt. eigenvalues --    2.17638   2.17953   2.20208   2.21550   2.22267
 Alpha virt. eigenvalues --    2.23560   2.24043   2.26720   2.27998   2.28643
 Alpha virt. eigenvalues --    2.31044   2.32673   2.33201   2.34275   2.36940
 Alpha virt. eigenvalues --    2.38171   2.38618   2.38719   2.42263   2.43215
 Alpha virt. eigenvalues --    2.43539   2.44071   2.46334   2.46810   2.48181
 Alpha virt. eigenvalues --    2.48842   2.51167   2.51681   2.53155   2.54713
 Alpha virt. eigenvalues --    2.55681   2.56574   2.58622   2.61139   2.62704
 Alpha virt. eigenvalues --    2.64034   2.64933   2.66549   2.67129   2.67971
 Alpha virt. eigenvalues --    2.68960   2.69729   2.69954   2.72086   2.72517
 Alpha virt. eigenvalues --    2.75510   2.76272   2.76443   2.77250   2.79759
 Alpha virt. eigenvalues --    2.81188   2.82875   2.84016   2.84153   2.85000
 Alpha virt. eigenvalues --    2.85493   2.86693   2.87839   2.89087   2.91316
 Alpha virt. eigenvalues --    2.92218   2.92799   2.94652   2.96247   2.96765
 Alpha virt. eigenvalues --    2.97307   2.98062   2.98244   2.99412   3.02051
 Alpha virt. eigenvalues --    3.03247   3.05879   3.06971   3.10155   3.10656
 Alpha virt. eigenvalues --    3.15049   3.17330   3.20566   3.28127   3.33604
 Alpha virt. eigenvalues --    3.35097   3.40732   3.54796   3.58360   3.62904
 Alpha virt. eigenvalues --    3.64168   3.65415   3.96687   3.98676   4.00313
 Alpha virt. eigenvalues --    4.01353   4.02098   4.07538   4.10679
  Beta  occ. eigenvalues -- -254.07086 -37.89858 -29.32075 -25.71723 -25.71689
  Beta  occ. eigenvalues --  -25.70202 -18.80419 -18.80374 -18.80240 -18.79099
  Beta  occ. eigenvalues --  -18.77370 -14.09501 -10.16878 -10.16384 -10.15831
  Beta  occ. eigenvalues --  -10.08991 -10.06431 -10.06180 -10.06001 -10.04952
  Beta  occ. eigenvalues --  -10.04394 -10.04378 -10.04184 -10.04168 -10.03848
  Beta  occ. eigenvalues --  -10.03660  -3.34462  -2.22322  -2.22240  -2.22159
  Beta  occ. eigenvalues --   -2.20997  -1.22735  -1.22549  -1.22329  -1.09516
  Beta  occ. eigenvalues --   -1.08241  -1.07669  -0.99750  -0.98922  -0.93908
  Beta  occ. eigenvalues --   -0.87434  -0.83866  -0.78725  -0.78372  -0.77122
  Beta  occ. eigenvalues --   -0.73641  -0.71627  -0.66627  -0.63611  -0.62162
  Beta  occ. eigenvalues --   -0.60193  -0.58749  -0.57315  -0.56221  -0.55857
  Beta  occ. eigenvalues --   -0.53987  -0.52655  -0.51753  -0.50465  -0.50135
  Beta  occ. eigenvalues --   -0.49286  -0.49127  -0.48524  -0.47392  -0.46634
  Beta  occ. eigenvalues --   -0.46547  -0.46196  -0.44940  -0.44312  -0.43675
  Beta  occ. eigenvalues --   -0.42959  -0.42055  -0.41667  -0.41262  -0.40800
  Beta  occ. eigenvalues --   -0.39006  -0.38509  -0.38177  -0.37774  -0.37470
  Beta  occ. eigenvalues --   -0.36424  -0.36049  -0.35654  -0.34696  -0.34481
  Beta  occ. eigenvalues --   -0.33825  -0.33220  -0.32911  -0.30584  -0.30441
  Beta  occ. eigenvalues --   -0.28190  -0.28050  -0.26997
  Beta virt. eigenvalues --   -0.03908  -0.03467  -0.03018   0.02162   0.02564
  Beta virt. eigenvalues --    0.03107   0.05284   0.05686   0.06503   0.08218
  Beta virt. eigenvalues --    0.09624   0.10471   0.10992   0.11586   0.12275
  Beta virt. eigenvalues --    0.12454   0.13270   0.14441   0.14471   0.15347
  Beta virt. eigenvalues --    0.15559   0.16711   0.17136   0.17424   0.17927
  Beta virt. eigenvalues --    0.18343   0.18513   0.19508   0.19613   0.19873
  Beta virt. eigenvalues --    0.20001   0.20632   0.21378   0.21684   0.22341
  Beta virt. eigenvalues --    0.22830   0.23586   0.24113   0.24742   0.25624
  Beta virt. eigenvalues --    0.25893   0.26577   0.27662   0.27949   0.28151
  Beta virt. eigenvalues --    0.29168   0.29543   0.30465   0.31341   0.32810
  Beta virt. eigenvalues --    0.33071   0.34729   0.35787   0.36668   0.38081
  Beta virt. eigenvalues --    0.38384   0.38799   0.42294   0.43149   0.44072
  Beta virt. eigenvalues --    0.44976   0.45187   0.45890   0.46336   0.46864
  Beta virt. eigenvalues --    0.47234   0.47924   0.48073   0.49652   0.50643
  Beta virt. eigenvalues --    0.51034   0.52548   0.52960   0.54330   0.55843
  Beta virt. eigenvalues --    0.56241   0.57035   0.58414   0.58529   0.59810
  Beta virt. eigenvalues --    0.60384   0.61659   0.62376   0.63021   0.63911
  Beta virt. eigenvalues --    0.64879   0.65364   0.66268   0.66397   0.66946
  Beta virt. eigenvalues --    0.67047   0.67308   0.68879   0.69266   0.69516
  Beta virt. eigenvalues --    0.69585   0.69827   0.70301   0.70705   0.70920
  Beta virt. eigenvalues --    0.71159   0.71451   0.71613   0.71871   0.72218
  Beta virt. eigenvalues --    0.72383   0.73442   0.73648   0.73770   0.73991
  Beta virt. eigenvalues --    0.74189   0.74420   0.74719   0.75061   0.75623
  Beta virt. eigenvalues --    0.75843   0.76171   0.76603   0.77362   0.77922
  Beta virt. eigenvalues --    0.79393   0.80570   0.81124   0.84207   0.85802
  Beta virt. eigenvalues --    0.86603   0.88606   0.90196   0.92391   0.93712
  Beta virt. eigenvalues --    0.95039   0.95702   0.98042   0.99642   1.00669
  Beta virt. eigenvalues --    1.03241   1.05826   1.06302   1.06572   1.08230
  Beta virt. eigenvalues --    1.09003   1.10037   1.10386   1.12884   1.13158
  Beta virt. eigenvalues --    1.15117   1.15445   1.16936   1.17432   1.18442
  Beta virt. eigenvalues --    1.18885   1.19741   1.22293   1.23308   1.24594
  Beta virt. eigenvalues --    1.24972   1.26497   1.27088   1.28201   1.30032
  Beta virt. eigenvalues --    1.31272   1.32535   1.33807   1.34393   1.35246
  Beta virt. eigenvalues --    1.36637   1.37385   1.37808   1.39513   1.41002
  Beta virt. eigenvalues --    1.42414   1.44941   1.45046   1.47391   1.49091
  Beta virt. eigenvalues --    1.50448   1.52038   1.53179   1.56074   1.56638
  Beta virt. eigenvalues --    1.57327   1.58182   1.58452   1.58850   1.59036
  Beta virt. eigenvalues --    1.60539   1.62130   1.63126   1.63425   1.66137
  Beta virt. eigenvalues --    1.66724   1.68372   1.69311   1.69774   1.71456
  Beta virt. eigenvalues --    1.72726   1.73361   1.73804   1.74460   1.74901
  Beta virt. eigenvalues --    1.76025   1.76814   1.77342   1.77741   1.78382
  Beta virt. eigenvalues --    1.79100   1.79131   1.79883   1.80605   1.81073
  Beta virt. eigenvalues --    1.81961   1.82145   1.82575   1.83555   1.84431
  Beta virt. eigenvalues --    1.84671   1.85883   1.86553   1.86803   1.88326
  Beta virt. eigenvalues --    1.88689   1.89322   1.89470   1.90585   1.90816
  Beta virt. eigenvalues --    1.92654   1.92931   1.93853   1.94880   1.95198
  Beta virt. eigenvalues --    1.96096   1.96261   1.97312   1.98242   1.98727
  Beta virt. eigenvalues --    1.99525   2.01466   2.01932   2.02469   2.03383
  Beta virt. eigenvalues --    2.04774   2.06445   2.08834   2.09362   2.10811
  Beta virt. eigenvalues --    2.11301   2.12379   2.13595   2.15764   2.17679
  Beta virt. eigenvalues --    2.17993   2.20185   2.21523   2.22224   2.23508
  Beta virt. eigenvalues --    2.24076   2.26721   2.27922   2.28584   2.31054
  Beta virt. eigenvalues --    2.32595   2.33114   2.34239   2.36832   2.38143
  Beta virt. eigenvalues --    2.38503   2.38716   2.42246   2.43170   2.43487
  Beta virt. eigenvalues --    2.43982   2.46286   2.46744   2.48108   2.48794
  Beta virt. eigenvalues --    2.51146   2.51626   2.53100   2.54639   2.55660
  Beta virt. eigenvalues --    2.56571   2.58579   2.61107   2.62674   2.63944
  Beta virt. eigenvalues --    2.64884   2.66541   2.67145   2.67835   2.68989
  Beta virt. eigenvalues --    2.69684   2.69963   2.72106   2.72550   2.75324
  Beta virt. eigenvalues --    2.76235   2.76405   2.77269   2.79842   2.81323
  Beta virt. eigenvalues --    2.82823   2.83941   2.84093   2.84936   2.85484
  Beta virt. eigenvalues --    2.86664   2.87828   2.89007   2.91297   2.92418
  Beta virt. eigenvalues --    2.93068   2.94551   2.96228   2.96722   2.97295
  Beta virt. eigenvalues --    2.97970   2.98291   2.99424   3.01942   3.03249
  Beta virt. eigenvalues --    3.05832   3.07006   3.10017   3.10594   3.14701
  Beta virt. eigenvalues --    3.17313   3.20561   3.27725   3.33558   3.35081
  Beta virt. eigenvalues --    3.40442   3.54752   3.58255   3.62828   3.64058
  Beta virt. eigenvalues --    3.65394   4.10789   4.11535   4.11909   4.12918
  Beta virt. eigenvalues --    4.13788   4.18630   4.22204
          Condensed to atoms (all electrons):
               1          2          3          4          5          6
     1  O    7.645855  -0.076007   0.000000   0.002026  -0.099898   0.728292
     2  O   -0.076007   8.113610   0.000015  -0.022846  -0.090295   0.339291
     3  O    0.000000   0.000015   7.831989  -0.103651   0.003722  -0.000003
     4  N    0.002026  -0.022846  -0.103651   6.948832   0.156916  -0.020292
     5  C   -0.099898  -0.090295   0.003722   0.156916   5.436374   0.125538
     6  C    0.728292   0.339291  -0.000003  -0.020292   0.125538   4.690237
     7  C   -0.000034   0.000132   0.545063   0.380528  -0.009603   0.007016
     8  C   -0.000011  -0.000019  -0.075298  -0.108309   0.003988  -0.000985
     9  H    0.004634   0.004097   0.000016  -0.023722   0.346282  -0.019245
    10  H   -0.000008  -0.000002   0.000341  -0.001826  -0.000080   0.000061
    11  H   -0.000000   0.000001   0.007440   0.007573   0.000207  -0.000010
    12  H   -0.000001  -0.000006   0.002196  -0.005583   0.007472   0.000870
    13  C   -0.001517  -0.020212  -0.000017  -0.038311   0.261668  -0.022106
    14  C   -0.003851   0.015591   0.000019  -0.014895  -0.010188  -0.023319
    15  H   -0.000033   0.000212   0.000000  -0.000038   0.009904  -0.000521
    16  H    0.000071  -0.004118  -0.000084   0.006867  -0.003853  -0.003087
    17  H    0.000267  -0.001296   0.000000  -0.000093  -0.020749   0.021796
    18  C    0.000452   0.000713   0.000000   0.008050  -0.052673  -0.000779
    19  H   -0.000203  -0.000017   0.000000   0.000342  -0.004419  -0.003224
    20  H    0.000286   0.000010  -0.000000  -0.000275   0.009196   0.000070
    21  H    0.017146  -0.000238  -0.000000   0.000307  -0.020111   0.008645
    22  C   -0.000000  -0.000063   0.001825  -0.000562   0.000012   0.000020
    23  C    0.000000   0.000046  -0.106641  -0.001851  -0.000123   0.000325
    24  C    0.000000  -0.000001   0.006210   0.000659  -0.000025  -0.000003
    25  C    0.000000  -0.000000   0.000751   0.000003  -0.000000   0.000000
    26  C   -0.000000   0.000000  -0.000044  -0.000001  -0.000000   0.000000
    27  C   -0.000000  -0.000001  -0.000059  -0.000001   0.000000  -0.000001
    28  C    0.000001  -0.001371   0.000005   0.000416   0.000127  -0.000273
    29  O   -0.000000   0.000007   0.000000  -0.000000   0.000000  -0.000010
    30  O   -0.000001  -0.008468   0.000006  -0.000231   0.000082   0.000104
    31  H    0.000000   0.000058   0.002259  -0.000440   0.000018   0.000018
    32  H   -0.000001   0.000190   0.197547  -0.020924   0.002959  -0.000362
    33  H   -0.000000   0.000000   0.008204   0.000217  -0.000005   0.000000
    34  H   -0.000000  -0.000000   0.005845   0.000096  -0.000000  -0.000001
    35  H   -0.000000  -0.000000  -0.000023  -0.000000   0.000000  -0.000000
    36  H    0.000000  -0.000000   0.000000  -0.000000   0.000000  -0.000000
    37  H    0.000000  -0.000000  -0.000021  -0.000000   0.000000  -0.000000
    38  H   -0.000000   0.000000   0.000002   0.000000   0.000000  -0.000000
    39  H    0.000000   0.000000   0.000001  -0.000000   0.000000   0.000000
    40  Na   0.007765   0.089341  -0.000049  -0.002559   0.022109  -0.004550
    41  H    0.000000   0.000018   0.000857  -0.000129   0.000006  -0.000000
    42  H   -0.000212  -0.000275  -0.000211  -0.005607  -0.029397   0.010791
    43  H    0.000000   0.000000   0.000008   0.000000  -0.000000  -0.000000
    44  Fe   0.001949   0.163870  -0.025198   0.233361  -0.048410  -0.037274
               7          8          9         10         11         12
     1  O   -0.000034  -0.000011   0.004634  -0.000008  -0.000000  -0.000001
     2  O    0.000132  -0.000019   0.004097  -0.000002   0.000001  -0.000006
     3  O    0.545063  -0.075298   0.000016   0.000341   0.007440   0.002196
     4  N    0.380528  -0.108309  -0.023722  -0.001826   0.007573  -0.005583
     5  C   -0.009603   0.003988   0.346282  -0.000080   0.000207   0.007472
     6  C    0.007016  -0.000985  -0.019245   0.000061  -0.000010   0.000870
     7  C    4.673506   0.395763  -0.020767   0.004946   0.004724   0.005734
     8  C    0.395763   4.619960   0.017765   0.362554   0.347955   0.355710
     9  H   -0.020767   0.017765   0.702914   0.001392  -0.000259  -0.001896
    10  H    0.004946   0.362554   0.001392   0.599323  -0.008456  -0.011852
    11  H    0.004724   0.347955  -0.000259  -0.008456   0.612949  -0.015475
    12  H    0.005734   0.355710  -0.001896  -0.011852  -0.015475   0.629436
    13  C   -0.009079  -0.002838  -0.029175  -0.000029   0.000216  -0.005073
    14  C   -0.001078   0.000366   0.012469  -0.000033   0.000002  -0.000083
    15  H    0.000001  -0.000006  -0.000358   0.000000  -0.000000   0.000008
    16  H    0.000747   0.000062  -0.000126   0.000005  -0.000005  -0.000037
    17  H    0.000050  -0.000017   0.000055   0.000002  -0.000000   0.000014
    18  C    0.000218  -0.000242  -0.000218   0.000006  -0.000009   0.000029
    19  H   -0.000057   0.000176   0.007261  -0.000061   0.000000   0.000104
    20  H   -0.000029   0.000012   0.000385  -0.000002   0.000000  -0.000015
    21  H    0.000027  -0.000009  -0.002334   0.000005  -0.000000   0.000004
    22  C    0.000354   0.000014  -0.000001   0.000001  -0.000001  -0.000001
    23  C    0.000712  -0.001456  -0.000023   0.000034   0.000069   0.000046
    24  C   -0.000301   0.000063   0.000001  -0.000004  -0.000008  -0.000003
    25  C   -0.000076  -0.000002  -0.000000   0.000000   0.000002  -0.000000
    26  C    0.000001  -0.000000  -0.000000  -0.000000   0.000000   0.000000
    27  C   -0.000016  -0.000000   0.000000   0.000000   0.000000   0.000000
    28  C   -0.000109   0.000003   0.000007  -0.000000  -0.000000  -0.000000
    29  O   -0.000002   0.000000  -0.000000  -0.000000   0.000000   0.000000
    30  O    0.000105   0.000001   0.000002  -0.000000  -0.000000  -0.000000
    31  H    0.000462   0.000042  -0.000002  -0.000001  -0.000004  -0.000001
    32  H   -0.029901   0.006810  -0.000064  -0.000195  -0.000012  -0.000242
    33  H    0.000332  -0.000119   0.000000  -0.000001   0.000026   0.000002
    34  H    0.000690  -0.000057  -0.000000   0.000004   0.000004  -0.000005
    35  H    0.000003  -0.000000   0.000000   0.000000  -0.000000   0.000000
    36  H   -0.000000  -0.000000  -0.000000   0.000000   0.000000  -0.000000
    37  H    0.000001   0.000000   0.000000   0.000000  -0.000000  -0.000000
    38  H    0.000001   0.000000   0.000000  -0.000000  -0.000000  -0.000000
    39  H    0.000000   0.000000  -0.000000   0.000000  -0.000000  -0.000000
    40  Na   0.001791   0.000121  -0.001915   0.000039  -0.000014   0.000016
    41  H    0.000173   0.000016  -0.000001  -0.000002  -0.000002  -0.000000
    42  H    0.006950  -0.005059  -0.009494   0.000204  -0.000262   0.009647
    43  H    0.000000   0.000000   0.000000  -0.000000  -0.000000  -0.000000
    44  Fe  -0.034311   0.000516   0.008044  -0.000886   0.000324   0.000002
              13         14         15         16         17         18
     1  O   -0.001517  -0.003851  -0.000033   0.000071   0.000267   0.000452
     2  O   -0.020212   0.015591   0.000212  -0.004118  -0.001296   0.000713
     3  O   -0.000017   0.000019   0.000000  -0.000084   0.000000   0.000000
     4  N   -0.038311  -0.014895  -0.000038   0.006867  -0.000093   0.008050
     5  C    0.261668  -0.010188   0.009904  -0.003853  -0.020749  -0.052673
     6  C   -0.022106  -0.023319  -0.000521  -0.003087   0.021796  -0.000779
     7  C   -0.009079  -0.001078   0.000001   0.000747   0.000050   0.000218
     8  C   -0.002838   0.000366  -0.000006   0.000062  -0.000017  -0.000242
     9  H   -0.029175   0.012469  -0.000358  -0.000126   0.000055  -0.000218
    10  H   -0.000029  -0.000033   0.000000   0.000005   0.000002   0.000006
    11  H    0.000216   0.000002  -0.000000  -0.000005  -0.000000  -0.000009
    12  H   -0.005073  -0.000083   0.000008  -0.000037   0.000014   0.000029
    13  C    4.967675   0.341961  -0.011576  -0.014952  -0.015989   0.385747
    14  C    0.341961   4.609262   0.369937   0.357204   0.382141  -0.044453
    15  H   -0.011576   0.369937   0.670460  -0.017413  -0.020373  -0.005595
    16  H   -0.014952   0.357204  -0.017413   0.677687  -0.022661   0.008534
    17  H   -0.015989   0.382141  -0.020373  -0.022661   0.637892  -0.004021
    18  C    0.385747  -0.044453  -0.005595   0.008534  -0.004021   4.531950
    19  H   -0.011209   0.008179   0.000116  -0.000478   0.000021   0.369565
    20  H   -0.016718  -0.003122   0.004416   0.000012  -0.001684   0.369281
    21  H   -0.005678  -0.010921  -0.001512   0.000210   0.006045   0.384179
    22  C    0.000001  -0.000003   0.000000  -0.000012  -0.000000  -0.000000
    23  C    0.000002   0.000038  -0.000002   0.000138   0.000000   0.000000
    24  C    0.000000   0.000006  -0.000000  -0.000026   0.000000   0.000000
    25  C    0.000000  -0.000000   0.000000  -0.000001  -0.000000  -0.000000
    26  C   -0.000000  -0.000000  -0.000000   0.000000  -0.000000   0.000000
    27  C   -0.000000  -0.000000   0.000000   0.000002  -0.000000   0.000000
    28  C   -0.000008   0.000007  -0.000000   0.000036   0.000003   0.000000
    29  O    0.000000   0.000000  -0.000000  -0.000001   0.000000  -0.000000
    30  O   -0.000002   0.000001  -0.000000  -0.000089  -0.000008  -0.000000
    31  H    0.000004  -0.000060   0.000001  -0.000155  -0.000001   0.000000
    32  H   -0.000491   0.000027   0.000004  -0.000185   0.000010   0.000003
    33  H   -0.000000  -0.000000  -0.000000   0.000002   0.000000   0.000000
    34  H    0.000004  -0.000002   0.000000  -0.000005  -0.000000  -0.000000
    35  H   -0.000000  -0.000000   0.000000   0.000001   0.000000   0.000000
    36  H   -0.000000   0.000000   0.000000  -0.000000   0.000000  -0.000000
    37  H    0.000000  -0.000000   0.000000   0.000000   0.000000  -0.000000
    38  H    0.000000   0.000000  -0.000000   0.000000  -0.000000   0.000000
    39  H    0.000000   0.000000   0.000000  -0.000001   0.000000  -0.000000
    40  Na   0.000519  -0.001502   0.000055  -0.000122   0.001278  -0.000350
    41  H   -0.000000  -0.000000   0.000000  -0.000001   0.000000   0.000000
    42  H    0.345019  -0.027684  -0.009639  -0.006542   0.008759  -0.017258
    43  H    0.000000   0.000000   0.000000  -0.000000   0.000000   0.000000
    44  Fe  -0.004302   0.009990  -0.000978   0.013483  -0.001938   0.000155
              19         20         21         22         23         24
     1  O   -0.000203   0.000286   0.017146  -0.000000   0.000000   0.000000
     2  O   -0.000017   0.000010  -0.000238  -0.000063   0.000046  -0.000001
     3  O    0.000000  -0.000000  -0.000000   0.001825  -0.106641   0.006210
     4  N    0.000342  -0.000275   0.000307  -0.000562  -0.001851   0.000659
     5  C   -0.004419   0.009196  -0.020111   0.000012  -0.000123  -0.000025
     6  C   -0.003224   0.000070   0.008645   0.000020   0.000325  -0.000003
     7  C   -0.000057  -0.000029   0.000027   0.000354   0.000712  -0.000301
     8  C    0.000176   0.000012  -0.000009   0.000014  -0.001456   0.000063
     9  H    0.007261   0.000385  -0.002334  -0.000001  -0.000023   0.000001
    10  H   -0.000061  -0.000002   0.000005   0.000001   0.000034  -0.000004
    11  H    0.000000   0.000000  -0.000000  -0.000001   0.000069  -0.000008
    12  H    0.000104  -0.000015   0.000004  -0.000001   0.000046  -0.000003
    13  C   -0.011209  -0.016718  -0.005678   0.000001   0.000002   0.000000
    14  C    0.008179  -0.003122  -0.010921  -0.000003   0.000038   0.000006
    15  H    0.000116   0.004416  -0.001512   0.000000  -0.000002  -0.000000
    16  H   -0.000478   0.000012   0.000210  -0.000012   0.000138  -0.000026
    17  H    0.000021  -0.001684   0.006045  -0.000000   0.000000   0.000000
    18  C    0.369565   0.369281   0.384179  -0.000000   0.000000   0.000000
    19  H    0.682498  -0.023269  -0.018733  -0.000000  -0.000000  -0.000000
    20  H   -0.023269   0.686044  -0.020573   0.000000  -0.000000   0.000000
    21  H   -0.018733  -0.020573   0.622080   0.000000   0.000000  -0.000000
    22  C   -0.000000   0.000000   0.000000   5.630926   0.176091  -0.049838
    23  C   -0.000000  -0.000000   0.000000   0.176091   5.537086   0.327975
    24  C   -0.000000   0.000000  -0.000000  -0.049838   0.327975   4.675455
    25  C   -0.000000   0.000000   0.000000  -0.011406  -0.029337   0.397187
    26  C    0.000000  -0.000000  -0.000000  -0.051610  -0.014499  -0.046355
    27  C    0.000000  -0.000000  -0.000000   0.339799  -0.043208  -0.022962
    28  C    0.000000  -0.000000  -0.000000   0.060666  -0.031831   0.012165
    29  O    0.000000  -0.000000  -0.000000  -0.107200   0.005022  -0.000041
    30  O   -0.000000   0.000000   0.000000  -0.169825   0.007657   0.001747
    31  H    0.000000  -0.000000   0.000000   0.009714   0.287761  -0.020049
    32  H    0.000000  -0.000000  -0.000001  -0.008944   0.109495  -0.009745
    33  H    0.000000  -0.000000   0.000000  -0.010483  -0.009226   0.362159
    34  H   -0.000000   0.000000   0.000000   0.009456  -0.020452   0.360821
    35  H   -0.000000  -0.000000  -0.000000  -0.015485  -0.004706  -0.007617
    36  H    0.000000   0.000000   0.000000   0.008848   0.001564   0.006991
    37  H   -0.000000   0.000000   0.000000  -0.007763  -0.012846   0.001334
    38  H   -0.000000   0.000000   0.000000  -0.030895   0.011961   0.000977
    39  H    0.000000   0.000000   0.000000  -0.018504  -0.011436  -0.007529
    40  Na   0.000004  -0.000032   0.000208   0.031872  -0.000601  -0.000635
    41  H    0.000000  -0.000000  -0.000000   0.302486  -0.024942  -0.000799
    42  H   -0.008219  -0.009326   0.008177  -0.000000   0.000008  -0.000001
    43  H   -0.000000   0.000000  -0.000000   0.002218   0.006250  -0.013630
    44  Fe  -0.000116   0.000088  -0.000188  -0.032821   0.176227  -0.017806
              25         26         27         28         29         30
     1  O    0.000000  -0.000000  -0.000000   0.000001  -0.000000  -0.000001
     2  O   -0.000000   0.000000  -0.000001  -0.001371   0.000007  -0.008468
     3  O    0.000751  -0.000044  -0.000059   0.000005   0.000000   0.000006
     4  N    0.000003  -0.000001  -0.000001   0.000416  -0.000000  -0.000231
     5  C   -0.000000  -0.000000   0.000000   0.000127   0.000000   0.000082
     6  C    0.000000   0.000000  -0.000001  -0.000273  -0.000010   0.000104
     7  C   -0.000076   0.000001  -0.000016  -0.000109  -0.000002   0.000105
     8  C   -0.000002  -0.000000  -0.000000   0.000003   0.000000   0.000001
     9  H   -0.000000  -0.000000   0.000000   0.000007  -0.000000   0.000002
    10  H    0.000000  -0.000000   0.000000  -0.000000  -0.000000  -0.000000
    11  H    0.000002   0.000000   0.000000  -0.000000   0.000000  -0.000000
    12  H   -0.000000   0.000000   0.000000  -0.000000   0.000000  -0.000000
    13  C    0.000000  -0.000000  -0.000000  -0.000008   0.000000  -0.000002
    14  C   -0.000000  -0.000000  -0.000000   0.000007   0.000000   0.000001
    15  H    0.000000  -0.000000   0.000000  -0.000000  -0.000000  -0.000000
    16  H   -0.000001   0.000000   0.000002   0.000036  -0.000001  -0.000089
    17  H   -0.000000  -0.000000  -0.000000   0.000003   0.000000  -0.000008
    18  C   -0.000000   0.000000   0.000000   0.000000  -0.000000  -0.000000
    19  H   -0.000000   0.000000   0.000000   0.000000   0.000000  -0.000000
    20  H    0.000000  -0.000000  -0.000000  -0.000000  -0.000000   0.000000
    21  H    0.000000  -0.000000  -0.000000  -0.000000  -0.000000   0.000000
    22  C   -0.011406  -0.051610   0.339799   0.060666  -0.107200  -0.169825
    23  C   -0.029337  -0.014499  -0.043208  -0.031831   0.005022   0.007657
    24  C    0.397187  -0.046355  -0.022962   0.012165  -0.000041   0.001747
    25  C    4.592183   0.424968  -0.041476  -0.000342  -0.000006  -0.000072
    26  C    0.424968   4.584106   0.444665   0.005179  -0.000100  -0.000256
    27  C   -0.041476   0.444665   4.606483  -0.009589  -0.001128  -0.001782
    28  C   -0.000342   0.005179  -0.009589   4.861597   0.625974   0.383267
    29  O   -0.000006  -0.000100  -0.001128   0.625974   7.753807  -0.093542
    30  O   -0.000072  -0.000256  -0.001782   0.383267  -0.093542   8.096749
    31  H   -0.004419  -0.008538  -0.011317  -0.016436  -0.000015   0.003330
    32  H    0.002718   0.000242   0.001724  -0.001058   0.000025   0.000117
    33  H   -0.028087  -0.002639  -0.008564   0.000207  -0.000005  -0.000049
    34  H   -0.011505   0.007377   0.001069  -0.000388   0.000001  -0.000023
    35  H    0.330639  -0.021184  -0.000831   0.000359   0.000002  -0.000091
    36  H   -0.011477   0.353138  -0.016429  -0.000358  -0.000002   0.000003
    37  H   -0.027040   0.341193  -0.008258   0.000893  -0.000005  -0.000003
    38  H    0.007008  -0.007572   0.351898   0.000372   0.006006   0.000408
    39  H   -0.005141  -0.027263   0.356357  -0.001948  -0.000078   0.003078
    40  Na   0.000079  -0.000040  -0.002697  -0.032165   0.085849   0.074680
    41  H   -0.006496  -0.010642  -0.008367   0.005015   0.004417   0.004963
    42  H   -0.000000   0.000000  -0.000000  -0.000000  -0.000000   0.000000
    43  H    0.360380  -0.011910   0.006716   0.000014  -0.000000  -0.000000
    44  Fe   0.003573   0.000155   0.009369  -0.006595  -0.001868   0.151677
              31         32         33         34         35         36
     1  O    0.000000  -0.000001  -0.000000  -0.000000  -0.000000   0.000000
     2  O    0.000058   0.000190   0.000000  -0.000000  -0.000000  -0.000000
     3  O    0.002259   0.197547   0.008204   0.005845  -0.000023   0.000000
     4  N   -0.000440  -0.020924   0.000217   0.000096  -0.000000  -0.000000
     5  C    0.000018   0.002959  -0.000005  -0.000000   0.000000   0.000000
     6  C    0.000018  -0.000362   0.000000  -0.000001  -0.000000  -0.000000
     7  C    0.000462  -0.029901   0.000332   0.000690   0.000003  -0.000000
     8  C    0.000042   0.006810  -0.000119  -0.000057  -0.000000  -0.000000
     9  H   -0.000002  -0.000064   0.000000  -0.000000   0.000000  -0.000000
    10  H   -0.000001  -0.000195  -0.000001   0.000004   0.000000   0.000000
    11  H   -0.000004  -0.000012   0.000026   0.000004  -0.000000   0.000000
    12  H   -0.000001  -0.000242   0.000002  -0.000005   0.000000  -0.000000
    13  C    0.000004  -0.000491  -0.000000   0.000004  -0.000000  -0.000000
    14  C   -0.000060   0.000027  -0.000000  -0.000002  -0.000000   0.000000
    15  H    0.000001   0.000004  -0.000000   0.000000   0.000000   0.000000
    16  H   -0.000155  -0.000185   0.000002  -0.000005   0.000001  -0.000000
    17  H   -0.000001   0.000010   0.000000  -0.000000   0.000000   0.000000
    18  C    0.000000   0.000003   0.000000  -0.000000   0.000000  -0.000000
    19  H    0.000000   0.000000   0.000000  -0.000000  -0.000000   0.000000
    20  H   -0.000000  -0.000000  -0.000000   0.000000  -0.000000   0.000000
    21  H    0.000000  -0.000001   0.000000   0.000000  -0.000000   0.000000
    22  C    0.009714  -0.008944  -0.010483   0.009456  -0.015485   0.008848
    23  C    0.287761   0.109495  -0.009226  -0.020452  -0.004706   0.001564
    24  C   -0.020049  -0.009745   0.362159   0.360821  -0.007617   0.006991
    25  C   -0.004419   0.002718  -0.028087  -0.011505   0.330639  -0.011477
    26  C   -0.008538   0.000242  -0.002639   0.007377  -0.021184   0.353138
    27  C   -0.011317   0.001724  -0.008564   0.001069  -0.000831  -0.016429
    28  C   -0.016436  -0.001058   0.000207  -0.000388   0.000359  -0.000358
    29  O   -0.000015   0.000025  -0.000005   0.000001   0.000002  -0.000002
    30  O    0.003330   0.000117  -0.000049  -0.000023  -0.000091   0.000003
    31  H    0.705403  -0.013372   0.008593  -0.009480   0.006532   0.000001
    32  H   -0.013372   0.458325  -0.011257  -0.004186   0.000305  -0.000001
    33  H    0.008593  -0.011257   0.698022  -0.028647   0.009083   0.000106
    34  H   -0.009480  -0.004186  -0.028647   0.700806  -0.007624  -0.000402
    35  H    0.006532   0.000305   0.009083  -0.007624   0.754760  -0.006996
    36  H    0.000001  -0.000001   0.000106  -0.000402  -0.006996   0.711155
    37  H    0.000771   0.000095   0.005828   0.000174   0.009909  -0.029083
    38  H   -0.000301  -0.000055   0.000042   0.000044   0.000276  -0.006522
    39  H    0.009055  -0.000022   0.000351   0.000031   0.005072  -0.007115
    40  Na   0.000418   0.002519   0.000014   0.000044   0.000046  -0.000019
    41  H    0.009176  -0.002718   0.005425  -0.000222   0.000475   0.000152
    42  H   -0.000001   0.000034   0.000000  -0.000001   0.000000  -0.000000
    43  H    0.000339  -0.000080  -0.006408  -0.005731  -0.031301  -0.007308
    44  Fe   0.012874   0.021956  -0.001270  -0.002402  -0.001002   0.000061
              37         38         39         40         41         42
     1  O    0.000000  -0.000000   0.000000   0.007765   0.000000  -0.000212
     2  O   -0.000000   0.000000   0.000000   0.089341   0.000018  -0.000275
     3  O   -0.000021   0.000002   0.000001  -0.000049   0.000857  -0.000211
     4  N   -0.000000   0.000000  -0.000000  -0.002559  -0.000129  -0.005607
     5  C    0.000000   0.000000   0.000000   0.022109   0.000006  -0.029397
     6  C   -0.000000  -0.000000   0.000000  -0.004550  -0.000000   0.010791
     7  C    0.000001   0.000001   0.000000   0.001791   0.000173   0.006950
     8  C    0.000000   0.000000   0.000000   0.000121   0.000016  -0.005059
     9  H    0.000000   0.000000  -0.000000  -0.001915  -0.000001  -0.009494
    10  H    0.000000  -0.000000   0.000000   0.000039  -0.000002   0.000204
    11  H   -0.000000  -0.000000  -0.000000  -0.000014  -0.000002  -0.000262
    12  H   -0.000000  -0.000000  -0.000000   0.000016  -0.000000   0.009647
    13  C    0.000000   0.000000   0.000000   0.000519  -0.000000   0.345019
    14  C   -0.000000   0.000000   0.000000  -0.001502  -0.000000  -0.027684
    15  H    0.000000  -0.000000   0.000000   0.000055   0.000000  -0.009639
    16  H    0.000000   0.000000  -0.000001  -0.000122  -0.000001  -0.006542
    17  H    0.000000  -0.000000   0.000000   0.001278   0.000000   0.008759
    18  C   -0.000000   0.000000  -0.000000  -0.000350   0.000000  -0.017258
    19  H   -0.000000  -0.000000   0.000000   0.000004   0.000000  -0.008219
    20  H    0.000000   0.000000   0.000000  -0.000032  -0.000000  -0.009326
    21  H    0.000000   0.000000   0.000000   0.000208  -0.000000   0.008177
    22  C   -0.007763  -0.030895  -0.018504   0.031872   0.302486  -0.000000
    23  C   -0.012846   0.011961  -0.011436  -0.000601  -0.024942   0.000008
    24  C    0.001334   0.000977  -0.007529  -0.000635  -0.000799  -0.000001
    25  C   -0.027040   0.007008  -0.005141   0.000079  -0.006496  -0.000000
    26  C    0.341193  -0.007572  -0.027263  -0.000040  -0.010642   0.000000
    27  C   -0.008258   0.351898   0.356357  -0.002697  -0.008367  -0.000000
    28  C    0.000893   0.000372  -0.001948  -0.032165   0.005015  -0.000000
    29  O   -0.000005   0.006006  -0.000078   0.085849   0.004417  -0.000000
    30  O   -0.000003   0.000408   0.003078   0.074680   0.004963   0.000000
    31  H    0.000771  -0.000301   0.009055   0.000418   0.009176  -0.000001
    32  H    0.000095  -0.000055  -0.000022   0.002519  -0.002718   0.000034
    33  H    0.005828   0.000042   0.000351   0.000014   0.005425   0.000000
    34  H    0.000174   0.000044   0.000031   0.000044  -0.000222  -0.000001
    35  H    0.009909   0.000276   0.005072   0.000046   0.000475   0.000000
    36  H   -0.029083  -0.006522  -0.007115  -0.000019   0.000152  -0.000000
    37  H    0.734873  -0.008064   0.008983   0.000067   0.007388  -0.000000
    38  H   -0.008064   0.695071  -0.029452   0.000010  -0.008832  -0.000000
    39  H    0.008983  -0.029452   0.721342  -0.000022   0.010033   0.000000
    40  Na   0.000067   0.000010  -0.000022  10.155312  -0.002490   0.000225
    41  H    0.007388  -0.008832   0.010033  -0.002490   0.709935   0.000000
    42  H   -0.000000  -0.000000   0.000000   0.000225   0.000000   0.747228
    43  H   -0.005423  -0.000367   0.000259  -0.000004   0.000006  -0.000000
    44  Fe  -0.000625  -0.000381  -0.000630  -0.065191  -0.002696  -0.000830
              43         44
     1  O    0.000000   0.001949
     2  O    0.000000   0.163870
     3  O    0.000008  -0.025198
     4  N    0.000000   0.233361
     5  C   -0.000000  -0.048410
     6  C   -0.000000  -0.037274
     7  C    0.000000  -0.034311
     8  C    0.000000   0.000516
     9  H    0.000000   0.008044
    10  H   -0.000000  -0.000886
    11  H   -0.000000   0.000324
    12  H   -0.000000   0.000002
    13  C    0.000000  -0.004302
    14  C    0.000000   0.009990
    15  H    0.000000  -0.000978
    16  H   -0.000000   0.013483
    17  H    0.000000  -0.001938
    18  C    0.000000   0.000155
    19  H   -0.000000  -0.000116
    20  H    0.000000   0.000088
    21  H   -0.000000  -0.000188
    22  C    0.002218  -0.032821
    23  C    0.006250   0.176227
    24  C   -0.013630  -0.017806
    25  C    0.360380   0.003573
    26  C   -0.011910   0.000155
    27  C    0.006716   0.009369
    28  C    0.000014  -0.006595
    29  O   -0.000000  -0.001868
    30  O   -0.000000   0.151677
    31  H    0.000339   0.012874
    32  H   -0.000080   0.021956
    33  H   -0.006408  -0.001270
    34  H   -0.005731  -0.002402
    35  H   -0.031301  -0.001002
    36  H   -0.007308   0.000061
    37  H   -0.005423  -0.000625
    38  H   -0.000367  -0.000381
    39  H    0.000259  -0.000630
    40  Na  -0.000004  -0.065191
    41  H    0.000006  -0.002696
    42  H   -0.000000  -0.000830
    43  H    0.711462  -0.000145
    44  Fe  -0.000145  24.850300
          Atomic-Atomic Spin Densities.
               1          2          3          4          5          6
     1  O    0.016134  -0.001122   0.000000  -0.000132   0.000481  -0.003465
     2  O   -0.001122   0.087987  -0.000002  -0.007653  -0.002063   0.008766
     3  O    0.000000  -0.000002   0.036826   0.000397   0.000043   0.000010
     4  N   -0.000132  -0.007653   0.000397   0.041789   0.006569  -0.007156
     5  C    0.000481  -0.002063   0.000043   0.006569   0.005766  -0.006580
     6  C   -0.003465   0.008766   0.000010  -0.007156  -0.006580   0.014902
     7  C   -0.000003  -0.000230  -0.003945   0.010794  -0.000926  -0.000370
     8  C    0.000000  -0.000016  -0.001422  -0.001524  -0.001727  -0.000247
     9  H    0.000026  -0.000301  -0.000026   0.000047  -0.001722  -0.001677
    10  H   -0.000001   0.000001   0.000118  -0.000014  -0.000006   0.000059
    11  H    0.000000   0.000000   0.000294   0.000085   0.000124   0.000003
    12  H    0.000000   0.000000   0.000010  -0.000142   0.000086  -0.000006
    13  C   -0.000371   0.001178  -0.000023   0.000770   0.006523  -0.003417
    14  C    0.000080  -0.000813   0.000003  -0.000851  -0.000694  -0.000125
    15  H    0.000001  -0.000009   0.000000  -0.000017  -0.000001  -0.000016
    16  H    0.000007  -0.000070   0.000015  -0.000892  -0.000466   0.000457
    17  H    0.000012  -0.000038  -0.000000   0.000050  -0.000026  -0.000183
    18  C    0.000042  -0.000015  -0.000000   0.000190  -0.001417   0.000783
    19  H    0.000004  -0.000000  -0.000000  -0.000000  -0.000016   0.000020
    20  H    0.000002  -0.000000   0.000000  -0.000005   0.000110  -0.000065
    21  H    0.000006   0.000006  -0.000000  -0.000012   0.000533  -0.000282
    22  C    0.000000   0.000083  -0.000179  -0.000080  -0.000011   0.000018
    23  C    0.000000   0.000345   0.001320  -0.004946   0.000021   0.000118
    24  C   -0.000000  -0.000004   0.000618   0.000150  -0.000003  -0.000003
    25  C    0.000000   0.000000  -0.000030  -0.000002   0.000000   0.000000
    26  C    0.000000   0.000000  -0.000004  -0.000000  -0.000000   0.000000
    27  C   -0.000000   0.000001   0.000010  -0.000000   0.000000   0.000000
    28  C   -0.000000  -0.000156   0.000015   0.000343   0.000030  -0.000038
    29  O    0.000000   0.000001  -0.000000  -0.000001   0.000000  -0.000002
    30  O   -0.000000  -0.002238   0.000002   0.000263  -0.000007  -0.000030
    31  H    0.000000   0.000038  -0.000208  -0.000011   0.000022  -0.000005
    32  H    0.000000   0.000254  -0.002871  -0.004615   0.000042   0.000052
    33  H   -0.000000  -0.000000  -0.000124   0.000022   0.000001  -0.000000
    34  H   -0.000000  -0.000000   0.000134   0.000035  -0.000001  -0.000001
    35  H    0.000000   0.000000  -0.000000  -0.000000   0.000000  -0.000000
    36  H   -0.000000   0.000000   0.000000  -0.000000   0.000000   0.000000
    37  H   -0.000000  -0.000000   0.000000   0.000000   0.000000  -0.000000
    38  H   -0.000000  -0.000000  -0.000000   0.000000  -0.000000  -0.000000
    39  H   -0.000000   0.000000  -0.000000  -0.000000   0.000000  -0.000000
    40  Na   0.000001  -0.001871  -0.000098   0.000002  -0.000096  -0.000714
    41  H   -0.000000   0.000004  -0.000068   0.000001   0.000002  -0.000002
    42  H    0.000004  -0.000001  -0.000001   0.000048  -0.000035   0.000033
    43  H   -0.000000  -0.000000   0.000004   0.000000  -0.000000  -0.000000
    44  Fe  -0.000224  -0.032734  -0.003067  -0.007863  -0.000431   0.000426
               7          8          9         10         11         12
     1  O   -0.000003   0.000000   0.000026  -0.000001   0.000000   0.000000
     2  O   -0.000230  -0.000016  -0.000301   0.000001   0.000000   0.000000
     3  O   -0.003945  -0.001422  -0.000026   0.000118   0.000294   0.000010
     4  N    0.010794  -0.001524   0.000047  -0.000014   0.000085  -0.000142
     5  C   -0.000926  -0.001727  -0.001722  -0.000006   0.000124   0.000086
     6  C   -0.000370  -0.000247  -0.001677   0.000059   0.000003  -0.000006
     7  C    0.022628  -0.004037  -0.000221  -0.000382   0.000472  -0.000088
     8  C   -0.004037   0.011669   0.000708   0.000053  -0.001838   0.000294
     9  H   -0.000221   0.000708   0.003770  -0.000027  -0.000061  -0.000080
    10  H   -0.000382   0.000053  -0.000027   0.001354  -0.000098  -0.000173
    11  H    0.000472  -0.001838  -0.000061  -0.000098   0.001593   0.000108
    12  H   -0.000088   0.000294  -0.000080  -0.000173   0.000108   0.000242
[...]
 03523,0.00003795,-0.00007728,-0.00000050,-0.00011355,-0.00048956,-0.00
 718669,0.00915797,-0.00008072,-0.00000617,-0.00005461,-0.00022873,-0.0
 0018007,-0.00020063,0.00012280,0.00004901,-0.00015296,0.00002215,-0.00
 008780,-0.00016944,-0.00003200,-0.00001979,-0.00000200,0.00012091,0.00
 008233,0.00009238,-0.00023325,0.00000235,0.00009322,0.00000959,-0.0000
 1524,0.00000115,-0.00001114,-0.00001150,-0.00000389,-0.00001275,-0.000
 00831,-0.00000379,-0.00000004,-0.00000370,0.00000112,0.00000117,0.0000
 0353,-0.00000423,0.00000234,0.00000022,0.00000629,0.00001316,0.0000042
 7,0.00000200,-0.00000286,-0.00000290,-0.00000280,-0.00001324,-0.000001
 62,0.00000108,0.00000442,-0.00000118,-0.00000210,0.00000038,-0.0000007
 2,-0.00000632,-0.00000280,-0.00000222,-0.00000198,0.00000222,0.0000001
 3,-0.00000037,0.00000219,0.00000046,0.00000090,-0.04288398,0.00381448,
 0.01990883,-0.00087124,0.00046039,0.00356235,0.00031817,-0.00008252,-0
 .00073053,-0.00014664,0.00002092,0.00009750,0.00201032,-0.00004264,-0.
 00116115,-0.00005311,-0.00364010,-0.02778747,-0.00202344,0.00133235,0.
 02728510,0.00059931,-0.00233346,-0.00218434,-0.00620570,0.00222022,0.0
 0151074,0.00016606,-0.00039741,0.00056755,0.00011686,0.00013986,0.0002
 9782,0.00015209,0.00004252,0.00009889,-0.00002440,-0.00001674,0.000030
 96,-0.00000386,-0.00010039,0.00021796,0.00031564,-0.00023476,0.0003635
 9,-0.00025853,0.00018047,0.00089142,0.00096181,0.00022591,0.00058082,-
 0.00433231,-0.00231701,-0.00197544,0.00005398,-0.00006019,0.00024805,0
 .05157662,0.00005554,0.00001455,0.00002057,0.00021380,0.00020756,0.000
 03134,0.00006683,-0.00041737,-0.00029134,-0.00010351,-0.00006209,-0.00
 014414,0.00001296,-0.00003291,-0.00002543,-0.00011658,-0.00008969,-0.0
 0005771,-0.00016389,0.00007105,0.00007072,-0.00002052,-0.00000330,-0.0
 0002530,-0.00002196,0.00000198,-0.00000333,-0.00001451,-0.00000874,-0.
 00000658,-0.00000144,-0.00000402,0.00000580,0.00000125,-0.00000134,-0.
 00000285,-0.00000964,0.00000454,0.00001083,0.00004493,-0.00001160,0.00
 002374,-0.00001242,0.00000038,-0.00000326,-0.00003577,-0.00000640,-0.0
 0000683,-0.00000926,0.00000193,0.00000050,0.00000305,-0.00000348,-0.00
 000758,-0.00000334,-0.00000119,-0.00000143,0.00000127,0.00000170,0.000
 00006,-0.00000326,-0.00000054,0.00000228,0.00429105,-0.04728177,-0.017
 67993,-0.00321118,0.00122899,0.02679119,-0.00086231,0.00163794,0.00075
 183,-0.00003843,-0.00012805,-0.00005596,0.00075840,0.00016770,0.000677
 87,-0.00065235,-0.00232004,-0.01477746,-0.00276336,-0.00028946,-0.0186
 7612,0.00022705,0.00055092,0.00201479,0.00435415,0.00018251,-0.0010180
 6,-0.00061867,-0.00509710,0.00344412,0.00003869,0.00122520,0.00017759,
 0.00025261,-0.00018107,-0.00088883,-0.00023990,0.00011649,-0.00034428,
 -0.00009926,-0.00008252,-0.00012356,0.00010554,-0.00014516,0.00008947,
 -0.00014379,0.00026544,0.00025350,0.00040232,0.00019656,-0.00025815,-0
 .00278456,-0.00041010,-0.00102885,-0.00014728,0.00006593,-0.00011438,-
 0.00015373,0.05160914,0.00010449,-0.00001294,0.00006303,0.00025229,0.0
 0010205,0.00013555,0.00030558,0.00085841,0.00036632,0.00010195,0.00004
 652,0.00006238,-0.00002425,0.00002637,0.00001275,-0.00014725,-0.000075
 50,-0.00010180,-0.00012885,0.00004738,-0.00005210,0.00006067,-0.000002
 64,0.00004576,0.00002199,0.00000783,0.00000611,0.00002632,0.00001808,0
 .00001083,-0.00000172,0.00000046,-0.00000910,0.00000630,0.00000443,0.0
 0000694,0.00000500,-0.00000530,-0.00000087,-0.00001787,-0.00000154,-0.
 00000187,0.00000382,0.00000282,-0.00000052,0.00001269,-0.00000179,0.00
 000345,-0.00000164,-0.00000017,0.00000126,-0.00000143,0.00000137,0.000
 00056,0.00000264,0.00000235,0.00000375,0.00000138,0.00000110,-0.000002
 19,-0.00000211,-0.00000158,0.00000033,0.02229353,-0.02149986,-0.310946
 25,0.00172533,0.00036549,-0.00938676,0.00016315,-0.00082373,0.00030575
 ,-0.00016115,0.00011653,0.00003256,0.00122183,0.00026631,0.00066627,0.
 00018326,-0.00193473,-0.01151997,-0.00091375,0.00265032,-0.00822178,-0
 .00049787,0.00037318,0.00227773,0.00135632,-0.00148525,0.00054924,0.00
 051466,0.00188535,-0.00023044,-0.00029396,-0.00108825,-0.00031310,-0.0
 0055267,0.00053699,0.00013139,0.00001458,0.00003217,0.00035246,0.00014
 260,-0.00011793,0.00001349,0.00004712,-0.00008975,0.00036683,-0.000848
 59,0.00042142,0.00014812,-0.00011165,-0.00009101,0.00057456,-0.0018917
 6,-0.00106988,0.00039078,-0.00001705,0.00008415,-0.00014939,-0.0219013
 0,0.02082862,0.33475078,0.00122936,-0.00040198,-0.00042282,0.00014304,
 -0.00036427,-0.00074001,0.00039714,-0.00001963,-0.00015727,0.00171838,
 -0.00091385,-0.00133233,0.00195692,-0.01290624,0.00359122,-0.00213693,
 0.00026159,0.00241850,-0.00043449,0.00069150,0.00088215,-0.00002532,-0
 .00001500,0.00020268,0.00032594,0.00055468,-0.00039372,-0.00003547,-0.
 00004428,0.00001635,-0.00003108,-0.00001926,-0.00001612,0.00019231,0.0
 0002369,0.00006055,-0.08702443,0.09910837,-0.00139508,0.00280131,-0.00
 727392,-0.00072171,0.00017147,0.00044971,0.00043190,0.00038351,-0.0001
 7338,0.00056608,0.00034744,-0.00104703,-0.00141624,-0.01512033,0.02899
 432,-0.00091034,0.00107498,-0.00032740,-0.00026511,0.00112352,-0.00028
 119,0.00044694,-0.00617919,-0.00142722,-0.00041633,0.00000317,-0.00000
 896,0.00001291,0.00000916,0.00002810,0.00002437,-0.00000456,0.00000983
 ,0.00000261,-0.00000133,-0.00000296,-0.00000322,-0.00000047,-0.0000006
 8,0.00000286,-0.00000205,0.00000731,-0.00000469,0.00001986,-0.00002308
 ,0.00000761,-0.00001659,0.00001582,-0.00001086,-0.00003401,0.00002994,
 0.00000100,0.00000589,0.00000485,0.00000205,-0.00006319,-0.00013089,-0
 .00008147,0.00000010,-0.00000161,-0.00000051,-0.00000903,0.00000082,-0
 .00000334,-0.00000011,0.00000130,0.00000091,0.00000164,0.00000177,0.00
 000011,-0.00000050,-0.00000044,-0.00000091,0.00000370,0.00000305,0.000
 00001,0.00000004,-0.00000098,0.00000021,0.00002131,0.00003983,-0.00001
 824,0.00000095,0.00000298,-0.00000141,0.09895317,0.00086748,-0.0006297
 9,-0.00046246,-0.00094724,-0.00087453,-0.00082421,0.00017360,0.0004330
 9,0.00033240,0.00075797,0.00286749,-0.00115018,0.00533116,-0.01837219,
 0.00332859,-0.00167465,0.00274427,0.00315553,-0.00087353,-0.00076244,0
 .00021524,0.00012071,0.00008072,-0.00033523,-0.00012897,0.00043070,0.0
 0007875,0.00007888,0.00005971,-0.00011400,0.00007147,0.00006972,-0.000
 08318,0.00003815,0.00037989,0.00034677,0.09879960,-0.26296153,-0.00061
 774,0.00548836,-0.01312570,-0.00063034,-0.00009325,0.00090741,-0.00009
 752,-0.00022037,0.00009019,0.00000658,-0.00101747,-0.00015486,-0.00259
 783,-0.00260772,0.00431509,-0.00011564,0.00053009,0.00047378,0.0001957
 8,0.00050395,0.00047799,-0.00009121,-0.00114042,0.00101587,0.00001802,
 0.00000461,-0.00000137,0.00004290,-0.00000595,0.00016896,0.00007413,-0
 .00001960,-0.00003313,-0.00000387,-0.00001316,0.00000803,-0.00000117,0
 .00000276,-0.00000994,0.00000183,0.00000441,0.00003288,-0.00000852,0.0
 0019529,-0.00005899,-0.00012089,-0.00010590,0.00002460,0.00002164,-0.0
 0026760,0.00001283,0.00009682,0.00001903,0.00000606,0.00001760,-0.0001
 7656,-0.00041092,-0.00018846,-0.00000663,-0.00000273,0.00000447,-0.000
 01494,0.00001530,-0.00001322,0.00000316,0.00000018,0.00000174,-0.00000
 194,0.00000734,-0.00000054,-0.00000200,0.00000159,0.00000072,0.0000104
 0,0.00000895,-0.00000063,0.00000126,-0.00000306,0.00000323,0.00017430,
 0.00015957,-0.00005723,-0.00000280,0.00000515,0.00000123,-0.10462478,0
 .28334733,-0.00144630,0.00064623,0.00082957,0.00083454,0.00181337,0.00
 189463,-0.00024622,-0.00022328,-0.00035842,-0.00166106,-0.00181957,0.0
 0138191,-0.00743722,0.02762678,-0.00471198,0.00337495,-0.00225267,-0.0
 0520788,0.00046694,0.00037387,0.00047181,0.00007552,0.00022580,-0.0004
 0357,-0.00057379,-0.00061797,0.00090528,0.00000626,-0.00001212,-0.0000
 0128,-0.00010023,-0.00012323,0.00014276,0.00009607,-0.00046570,-0.0006
 4531,-0.00068733,0.00050239,-0.04395488,0.01153490,-0.02690546,-0.0021
 9030,0.00051565,0.00047257,0.00096637,-0.00037242,0.00055866,0.0008344
 8,-0.00164601,-0.00283659,-0.00470507,-0.00156400,0.00286844,-0.000317
 40,0.00003202,0.00049374,0.00009121,0.00021921,-0.00052603,0.00009690,
 -0.00072678,0.00002062,0.00063715,-0.00000673,-0.00000577,-0.00001236,
 0.00000454,-0.00008060,-0.00004497,0.00000899,0.00000458,0.00001227,0.
 00000484,-0.00000249,-0.00000418,0.00000077,0.00000261,0.00000192,-0.0
 0000333,-0.00001325,-0.00000301,-0.00006743,0.00002875,0.00001405,0.00
 005203,-0.00000934,0.00001603,0.00011238,0.00001408,0.00003636,-0.0000
 0387,-0.00000654,-0.00000443,0.00008161,0.00019779,0.00012699,0.000003
 22,0.00000417,-0.00000367,0.00000385,-0.00000104,0.00000546,-0.0000013
 3,-0.00000143,-0.00000054,0.00000192,-0.00000130,0.00000003,-0.0000000
 4,0.00000018,-0.00000024,-0.00000377,-0.00000186,-0.00000004,0.0000001
 8,0.00000065,0.00000130,-0.00009163,-0.00015246,-0.00005596,0.00000036
 ,-0.00000232,0.00000039,-0.00032029,-0.00020704,0.05439956,-0.00021741
 ,0.00003396,-0.00008068,-0.00040345,-0.00001900,-0.00010870,-0.0002022
 5,-0.00100029,-0.00039095,-0.00037375,-0.00024066,-0.00001649,0.000158
 32,-0.00006267,-0.00003812,0.00032686,0.00013313,0.00015556,0.00032375
 ,0.00023497,0.00013219,-0.00008088,-0.00001915,-0.00007751,-0.00004949
 ,-0.00000596,-0.00001079,-0.00001546,-0.00001787,-0.00000892,0.0000028
 4,-0.00000162,0.00000027,-0.00001538,-0.00001248,-0.00000490,-0.000013
 52,0.00002661,-0.00002689,0.00001828,-0.00001184,0.00001879,-0.0000188
 1,-0.00001068,0.00001289,-0.00001696,0.00000725,-0.00002659,0.00000465
 ,0.00000222,-0.00000602,0.00000099,-0.00000565,0.00001903,-0.00000002,
 0.00000001,-0.00000704,-0.00001357,-0.00000817,0.00001166,0.00000731,0
 .00000566,-0.00000708,0.00030193,-0.00055153,0.00040608,-0.00483693,-0
 .00312884,-0.00251732,-0.01914989,0.01500860,0.00601855,-0.22175550,0.
 12489763,0.04242130,0.00473619,-0.00397811,-0.00122722,0.00091415,-0.0
 0122208,0.00031963,0.00008031,-0.00031026,0.00040162,-0.00012198,0.000
 28110,-0.00020489,0.00004886,0.00048388,-0.00009361,0.00043217,-0.0002
 1992,-0.00012645,-0.00057974,0.00148549,0.00053558,0.00083132,0.000162
 88,-0.00033109,0.00064801,-0.00020164,0.00050731,-0.00121266,0.0003229
 4,-0.00009278,0.00056674,0.00041812,-0.00029440,0.00014854,0.00038202,
 -0.00027597,0.00016626,-0.00027907,0.00010963,-0.00006070,0.00000190,0
 .00002063,0.00009043,-0.00011105,0.00000490,-0.00000240,0.00006781,-0.
 00003182,0.00000515,-0.00000357,0.00000106,0.23825256,-0.00000365,0.00
 001376,-0.00000380,-0.00000822,0.00008469,-0.00001142,0.00015949,-0.00
 002563,0.00002461,-0.00006123,-0.00007148,-0.00003502,0.00002137,-0.00
 001602,-0.00001098,0.00000060,-0.00002186,0.00000094,-0.00007648,0.000
 05503,0.00005761,0.00000643,0.00000245,-0.00001156,-0.00001027,-0.0000
 0003,-0.00000072,-0.00000087,-0.00000282,-0.00000200,-0.00000200,-0.00
 000246,-0.00000263,0.00000164,0.00000114,0.00000071,-0.00000310,0.0000
 0137,-0.00000187,0.00000189,-0.00000263,0.00000336,-0.00000161,0.00000
 026,0.00000028,0.00000112,0.00000003,-0.00000345,-0.00000230,0.0000007
 7,-0.00000013,0.00000015,-0.00000098,0.00000186,0.00000032,0.00000022,
 0.00000066,-0.00000070,0.00000010,-0.00000025,-0.00000085,0.,0.0000002
 6,-0.00022413,-0.00020004,-0.00010664,-0.00325512,-0.00041967,-0.00104
 013,-0.01324879,0.00915442,0.00358242,0.12427645,-0.13271207,-0.029866
 43,0.02347573,-0.01534004,-0.00701663,-0.00241772,-0.00508864,0.003586
 34,-0.00050534,0.00011678,0.00045941,0.00018830,0.00005008,-0.00011042
 ,0.00035125,0.00031582,-0.00027842,0.00017314,-0.00015885,-0.00007702,
 -0.00042853,0.00008376,-0.00008319,0.00067042,0.00041725,0.00015355,0.
 00055225,0.00058319,0.00045076,0.00161035,-0.00186048,-0.00019072,-0.0
 0025294,0.00071707,-0.00068867,-0.00011927,0.00105605,0.00023890,0.001
 65805,-0.00088903,-0.00004622,-0.00035720,0.00030944,0.00002122,-0.000
 09298,-0.00003529,0.00000634,0.00004524,0.00003906,0.00002715,0.000000
 36,0.00000190,-0.00000025,-0.13225206,0.14411441,-0.00001341,-0.000006
 44,-0.00000748,-0.00004413,-0.00000191,-0.00001587,0.00023592,0.000146
 22,-0.00000386,-0.00000049,-0.00011511,-0.00007989,0.00000177,-0.00001
 386,-0.00000598,0.00002826,0.00002999,0.00001628,-0.00019079,0.0000762
 4,0.00007974,0.00001629,-0.00000362,0.00000016,-0.00000527,-0.00000099
 ,-0.00000080,-0.00000020,0.00000124,0.00000108,-0.00000273,-0.00000673
 ,-0.00000134,0.00000422,0.00000154,-0.00000065,0.00000234,0.,-0.000001
 75,-0.00000153,-0.00000056,0.00000205,-0.00000061,-0.00000083,-0.00000
 029,0.00000216,0.00000149,-0.00000216,0.00000075,-0.00000003,-0.000000
 96,-0.00000036,0.00000055,0.00000077,-0.00000005,-0.00000003,0.0000000
 8,0.00000034,-0.00000015,-0.00000016,0.00000057,0.00000006,-0.00000045
 ,0.00024184,-0.00020911,-0.00006860,-0.00165037,-0.00079805,0.00017723
 ,-0.00962227,0.00683445,0.00125021,0.04376391,-0.03100618,-0.05688191,
 -0.01206030,0.00828530,0.00189341,0.00089238,0.00213881,-0.00080942,0.
 00005325,-0.00002002,0.00001428,-0.00001828,-0.00001811,-0.00001744,0.
 00004923,0.00008345,0.00006163,-0.00028257,0.00009133,0.00032449,-0.00
 017872,-0.00017305,0.00011547,0.00022950,0.00053520,0.00040017,0.00056
 322,-0.00001693,0.00023580,0.02355764,-0.01651356,-0.00467587,0.000245
 37,-0.00061547,0.00028907,-0.00043087,-0.00046990,0.00049939,-0.000438
 02,0.00043462,0.00040871,-0.00025530,0.00027614,0.00030160,0.00001336,
 -0.00000458,-0.00000057,0.00001258,-0.00000927,-0.00001357,-0.00000022
 ,-0.00000087,0.00000133,-0.04480033,0.03106735,0.05654591,0.01306229,0
 .00070770,0.00476482,-0.04503859,0.02612861,-0.00338847,-0.02628362,-0
 .01526100,-0.00572396,-0.03322396,-0.02016016,-0.00882059,-0.00597403,
 -0.00577105,-0.00381743,-0.03568595,-0.01410439,-0.01464276,0.03411171
 ,-0.00841593,-0.01039689,-0.00225141,0.00067979,0.00094470,-0.00069173
 ,0.00075765,0.00028883,-0.00011358,0.00001647,-0.00016807,0.00011025,0
 .00070562,0.00043910,-0.00033795,-0.00044104,-0.00005094,-0.00169672,-
 0.00090687,0.00072915,-0.00062510,-0.00040844,-0.00061966,0.00037392,0
 .00056514,-0.00021192,0.00028317,-0.00080959,0.00101517,-0.00076507,0.
 00027856,0.00052525,0.00002983,-0.00012845,-0.00023080,0.00005022,0.00
 001515,0.00014903,0.00011102,0.00029110,-0.00023819,-0.00051462,-0.000
 16725,0.00035717,-0.00416602,-0.00539548,0.00213199,-0.01808033,-0.006
 00596,0.00367453,0.00037429,0.00306013,-0.00067514,0.00061480,-0.00127
 380,-0.00060860,-0.00019761,-0.00006410,0.00051142,-0.00101694,0.00041
 306,-0.00075008,0.00085764,-0.01655428,0.00947141,-0.00405345,0.005732
 13,-0.00421723,-0.01455181,-0.02416623,-0.00692727,-0.00573364,-0.0005
 4295,-0.00824273,0.00476178,0.02847245,0.01750510,0.00147658,-0.000526
 17,-0.00085394,0.00043547,-0.00048460,0.00045731,-0.00021853,0.0001340
 8,0.00005922,0.00041007,0.00016325,0.00005065,-0.00005710,-0.00007981,
 -0.00020477,0.00066986,0.00050655,0.00000829,0.00002181,-0.00022620,-0
 .00000326,0.00498415,0.00613479,-0.00115093,0.00085002,0.00133070,-0.0
 0101943,0.00022964,0.00077243,-0.00047204,0.00107515,0.00013081,0.0000
 8192,0.13638409,-0.00613037,-0.00468725,-0.00266486,0.01417954,-0.0275
 1604,0.00032072,-0.01230725,-0.00672731,-0.00087738,-0.03502896,-0.058
 22032,-0.02450524,-0.01274974,0.00008062,0.00025739,0.01279312,0.01891
 851,0.00635713,0.01093154,-0.01892686,-0.01593885,0.00027187,0.0017245
 4,0.00098934,0.00255347,-0.00043281,0.00038468,0.00004469,0.00024405,0
 .00019123,0.00013976,0.00047939,0.00014761,-0.00003578,0.00038176,0.00
 013755,0.00150172,-0.00065245,-0.00016588,-0.00296701,0.00066874,-0.00
 108390,0.00092608,-0.00016246,-0.00013364,0.00155033,0.00045232,0.0013
 3654,0.00086820,-0.00025480,-0.00028542,-0.00028231,0.00032681,-0.0004
 0715,0.00002201,0.00001732,0.00007048,0.00036795,-0.00003411,-0.000123
 65,0.00042941,0.00000121,-0.00018510,-0.00403476,0.00008947,-0.0031110
 9,0.00162332,-0.00203703,0.00062506,-0.00048191,-0.00157554,-0.0002847
 2,-0.00002482,0.00069268,0.00012563,0.00024378,0.00075797,0.00004246,-
 0.00017306,-0.00298023,0.00024342,-0.02687023,-0.01925323,0.03522516,0
 .00325247,0.00772103,-0.01061635,-0.01215000,-0.07028614,-0.02801959,-
 0.00160328,0.00099903,0.00055131,0.01141501,0.00798412,-0.00016899,0.0
 0025228,0.00022109,-0.00003359,0.00065572,-0.00050226,0.00035971,-0.00
 009596,-0.00002127,-0.00004068,0.00029420,-0.00037882,0.00005809,0.000
 09094,-0.00010210,-0.00000219,-0.00081281,-0.00050584,-0.00008350,-0.0
 0029628,0.00012031,-0.00022288,0.00614405,-0.00615841,0.00262255,0.001
 09832,-0.00101679,-0.00040624,-0.00022080,-0.00074539,0.00041299,-0.00
 028203,-0.00027104,0.00000134,0.04489757,0.18156750,0.00270779,-0.0012
 4008,0.00155745,-0.00651331,0.00428893,-0.01057509,-0.00659274,-0.0032
 2987,-0.00176720,-0.02007967,-0.02353316,-0.02349547,-0.00664871,-0.00
 138790,0.00117309,-0.00939753,-0.00117356,-0.00258725,0.00445706,-0.01
 331031,-0.00762916,0.00086276,-0.00037648,0.00164259,0.00042331,0.0000
 1357,-0.00016583,-0.00000577,0.00039706,0.00021856,-0.00007713,0.00001
 825,0.00003155,0.00000688,0.00015175,0.00004309,-0.00003306,0.00042559
 ,0.00139796,0.00468421,-0.00021906,0.00155674,-0.00133112,-0.00028602,
 -0.00049525,-0.00315689,0.00050463,-0.00115704,0.00007314,-0.00012928,
 0.00000328,0.00022067,-0.00029750,-0.00127010,-0.00041551,-0.00014514,
 -0.00014694,0.00035259,0.00018659,-0.00005831,-0.00006303,-0.00009120,
 0.00018847,0.00274977,0.00109001,-0.00336801,0.00638164,0.00097462,0.0
 0172009,-0.00048381,-0.00067341,-0.00285237,-0.00057637,0.00040103,0.0
 0046058,-0.00006454,0.00006868,-0.00021550,0.00015106,-0.00040531,0.00
 072956,-0.00212440,0.00329540,0.00980153,0.00038772,0.00436240,-0.0063
 2391,-0.00109946,-0.01033010,-0.01098803,-0.00521322,-0.00131126,-0.00
 525028,0.00925422,0.00089871,-0.00042900,0.00074968,-0.00014423,-0.000
 22866,-0.00008618,0.00021551,0.00033208,-0.00002117,-0.00002236,-0.000
 15989,-0.00003708,-0.00004160,0.00002657,0.00005477,-0.00000805,-0.000
 04073,-0.00032742,-0.00018552,-0.00010185,-0.00007899,-0.00007037,-0.0
 0022649,0.00049604,0.00237767,0.00203828,0.00047269,0.00035811,-0.0003
 2963,-0.00003877,-0.00022202,-0.00024227,-0.00029012,-0.00009517,-0.00
 002984,0.03027002,0.03890050,0.05721265\\0.00000006,0.00000379,-0.0000
 0301,0.00000831,0.00002759,-0.00000306,0.00175971,0.00487831,0.0024746
 5,0.00000284,-0.00004083,-0.00000568,0.00000763,0.00000757,0.00001325,
 -0.00000207,-0.00001241,-0.00000586,-0.00001060,0.00002432,-0.00001360
 ,-0.00000092,-0.00000749,0.00000827,-0.00000399,0.00000047,0.00000215,
 0.00000247,0.00000233,-0.00000023,-0.00000088,-0.00000339,-0.00000084,
 0.00000068,-0.00000104,-0.00000240,0.00000096,-0.00000029,-0.00000055,
 -0.00000339,0.00000239,-0.00000506,0.00000154,0.00000159,0.00000131,0.
 00000123,-0.00000079,0.00000241,-0.00000066,0.00000129,-0.00000025,-0.
 00000013,-0.00000303,0.00000197,-0.00000099,0.00000187,0.00000036,-0.0
 0000021,0.00000011,0.00000061,-0.00000157,-0.00000285,0.00000061,0.000
 01128,0.00001741,-0.00000718,0.01445041,0.01718999,0.01082085,0.000002
 87,-0.00000018,-0.00000328,-0.00000728,-0.00000261,0.00000152,0.000002
 56,0.00000429,-0.00000611,-0.00001304,-0.00001658,-0.00000271,-0.00003
 115,-0.00001091,0.00004434,0.00001442,0.00000270,-0.00001985,-0.000002
 45,0.00003442,-0.00002180,0.00000819,0.00001177,0.00000343,-0.01620999
 ,-0.02209360,-0.01329727,-0.00000274,-0.00000039,0.00000299,0.00000022
 ,-0.00000140,0.00000223,0.00000297,0.00000082,-0.00000019,0.00000016,-
 0.00000109,0.00000175,0.00000104,0.00000047,0.00000114,0.00000258,0.00
 000172,-0.00000094,0.00000134,0.00000149,-0.00000057,0.00001750,-0.000
 03149,0.00001201,-0.00000571,0.00000249,-0.00000067,0.00000030,0.00000
 041,0.00000011,-0.00000062,-0.00000059,-0.00000044,-0.00000291,0.00001
 131,0.00000561\\\@


 VIRTUE IS LEARNED AT YOUR MOTHER'S KNEE,
 VICES ARE PICKED UP AT SOME OTHER JOINT.
 Job cpu time:       0 days 11 hours 49 minutes 54.1 seconds.
 Elapsed time:       0 days  0 hours 11 minutes 10.3 seconds.
 File lengths (MBytes):  RWF=   1904 Int=      0 D2E=      0 Chk=     39 Scr=      1
 Normal termination of Gaussian 16 at Wed Sep  3 19:54:24 2025.
