 Entering Gaussian System, Link 0=/home/users/astar/bmsi/zhangx5/programs/g16/g16
 Input=/home/users/astar/bmsi/zhangx5/scratch/oxygen_openshell_singlet_ts_link/oxygen_openshell_singlet_ts_link.com
 Output=/home/users/astar/bmsi/zhangx5/scratch/oxygen_openshell_singlet_ts_link/oxygen_openshell_singlet_ts_link.log
 Initial command:
 /home/users/astar/bmsi/zhangx5/programs/g16/l1.exe "/scratch/users/astar/bmsi/zhangx5/oxygen_openshell_singlet_ts_link/Gau-2814130.inp" -scrdir="/scratch/users/astar/bmsi/zhangx5/oxygen_openshell_singlet_ts_link/"
 Entering Link 1 = /home/users/astar/bmsi/zhangx5/programs/g16/l1.exe PID=   2814131.
  
 Copyright (c) 1988-2017, Gaussian, Inc.  All Rights Reserved.
  
 This is part of the Gaussian(R) 16 program.  It is based on
 the Gaussian(R) 09 system (copyright 2009, Gaussian, Inc.),
 the Gaussian(R) 03 system (copyright 2003, Gaussian, Inc.),
 the Gaussian(R) 98 system (copyright 1998, Gaussian, Inc.),
 the Gaussian(R) 94 system (copyright 1995, Gaussian, Inc.),
 the Gaussian 92(TM) system (copyright 1992, Gaussian, Inc.),
 the Gaussian 90(TM) system (copyright 1990, Gaussian, Inc.),
 the Gaussian 88(TM) system (copyright 1988, Gaussian, Inc.),
 the Gaussian 86(TM) system (copyright 1986, Carnegie Mellon
 University), and the Gaussian 82(TM) system (copyright 1983,
 Carnegie Mellon University). Gaussian is a federally registered
 trademark of Gaussian, Inc.
  
 This software contains proprietary and confidential information,
 including trade secrets, belonging to Gaussian, Inc.
  
 This software is provided under written license and may be
 used, copied, transmitted, or stored only in accord with that
 written license.
  
 The following legend is applicable only to US Government
 contracts under FAR:
  
                    RESTRICTED RIGHTS LEGEND
  
 Use, reproduction and disclosure by the US Government is
 subject to restrictions as set forth in subparagraphs (a)
 and (c) of the Commercial Computer Software - Restricted
 Rights clause in FAR 52.227-19.
  
 Gaussian, Inc.
 340 Quinnipiac St., Bldg. 40, Wallingford CT 06492
  
  
 ---------------------------------------------------------------
 Warning -- This program may not be used in any manner that
 competes with the business of Gaussian, Inc. or will provide
 assistance to any competitor of Gaussian, Inc.  The licensee
 of this program is prohibited from giving any competitor of
 Gaussian, Inc. access to this program.  By using this program,
 the user acknowledges that Gaussian, Inc. is engaged in the
 business of creating and licensing software in the field of
 computational chemistry and represents and warrants to the
 licensee that it is not a competitor of Gaussian, Inc. and that
 it will not use this program in any manner prohibited above.
 ---------------------------------------------------------------
  

 Cite this work as:
 Gaussian 16, Revision B.01,
 M. J. Frisch, G. W. Trucks, H. B. Schlegel, G. E. Scuseria, 
 M. A. Robb, J. R. Cheeseman, G. Scalmani, V. Barone, 
 G. A. Petersson, H. Nakatsuji, X. Li, M. Caricato, A. V. Marenich, 
 J. Bloino, B. G. Janesko, R. Gomperts, B. Mennucci, H. P. Hratchian, 
 J. V. Ortiz, A. F. Izmaylov, J. L. Sonnenberg, D. Williams-Young, 
 F. Ding, F. Lipparini, F. Egidi, J. Goings, B. Peng, A. Petrone, 
 T. Henderson, D. Ranasinghe, V. G. Zakrzewski, J. Gao, N. Rega, 
 G. Zheng, W. Liang, M. Hada, M. Ehara, K. Toyota, R. Fukuda, 
 J. Hasegawa, M. Ishida, T. Nakajima, Y. Honda, O. Kitao, H. Nakai, 
 T. Vreven, K. Throssell, J. A. Montgomery, Jr., J. E. Peralta, 
 F. Ogliaro, M. J. Bearpark, J. J. Heyd, E. N. Brothers, K. N. Kudin, 
 V. N. Staroverov, T. A. Keith, R. Kobayashi, J. Normand, 
 K. Raghavachari, A. P. Rendell, J. C. Burant, S. S. Iyengar, 
 J. Tomasi, M. Cossi, J. M. Millam, M. Klene, C. Adamo, R. Cammi, 
 J. W. Ochterski, R. L. Martin, K. Morokuma, O. Farkas, 
 J. B. Foresman, and D. J. Fox, Gaussian, Inc., Wallingford CT, 2016.
 
 ******************************************
 Gaussian 16:  ES64L-G16RevB.01 20-Dec-2017
                25-Aug-2025 
 ******************************************
 %chk=oxygen_openshell_singlet_ts_link.chk
 %nprocshared=64
 Will use up to   64 processors via shared memory.
 %mem=400GB
 -------------------------------------
 # um062x def2svp stable=opt guess=mix
 -------------------------------------
 1/38=1,172=1/1;
 2/12=2,17=6,18=5,40=1/2;
 3/5=43,7=101,11=2,25=1,30=1,74=-55,116=2/1,2,3;
 4/13=-1/1;
 5/5=2,38=5/2;
 6/7=2,8=2,9=2,10=2,28=1/1;
 8/6=1,10=90,11=11/1;
 9/8=-3,42=1,46=1/14;
 5/5=2,8=3,17=40,38=5/8(-2);
 6/7=2,8=2,9=2,10=2,28=1/1;
 99/5=1,9=1/99;
 ----------------------------------
 Gaussian job with default settings
 ----------------------------------
 Symbolic Z-matrix:
 Charge =  0 Multiplicity = 1
 O                    -0.616     0.        0. 
 O                     0.616     0.        0. 
 
                          Input orientation:                          
 ---------------------------------------------------------------------
 Center     Atomic      Atomic             Coordinates (Angstroms)
 Number     Number       Type             X           Y           Z
 ---------------------------------------------------------------------
      1          8           0       -0.616000    0.000000    0.000000
      2          8           0        0.616000    0.000000    0.000000
 ---------------------------------------------------------------------
 Stoichiometry    O2
 Framework group  D*H[C*(O.O)]
 Deg. of freedom     1
 Full point group                 D*H     NOp   8
 Largest Abelian subgroup         D2H     NOp   8
 Largest concise Abelian subgroup C2      NOp   2
                         Standard orientation:                         
 ---------------------------------------------------------------------
 Center     Atomic      Atomic             Coordinates (Angstroms)
 Number     Number       Type             X           Y           Z
 ---------------------------------------------------------------------
      1          8           0        0.000000    0.000000    0.616000
      2          8           0        0.000000    0.000000   -0.616000
 ---------------------------------------------------------------------
 Rotational constants (GHZ):           0.0000000          41.6335892          41.6335892
 Standard basis: def2SVP (5D, 7F)
 There are     8 symmetry adapted cartesian basis functions of AG  symmetry.
 There are     1 symmetry adapted cartesian basis functions of B1G symmetry.
 There are     3 symmetry adapted cartesian basis functions of B2G symmetry.
 There are     3 symmetry adapted cartesian basis functions of B3G symmetry.
 There are     1 symmetry adapted cartesian basis functions of AU  symmetry.
 There are     8 symmetry adapted cartesian basis functions of B1U symmetry.
 There are     3 symmetry adapted cartesian basis functions of B2U symmetry.
 There are     3 symmetry adapted cartesian basis functions of B3U symmetry.
 There are     7 symmetry adapted basis functions of AG  symmetry.
 There are     1 symmetry adapted basis functions of B1G symmetry.
 There are     3 symmetry adapted basis functions of B2G symmetry.
 There are     3 symmetry adapted basis functions of B3G symmetry.
 There are     1 symmetry adapted basis functions of AU  symmetry.
 There are     7 symmetry adapted basis functions of B1U symmetry.
 There are     3 symmetry adapted basis functions of B2U symmetry.
 There are     3 symmetry adapted basis functions of B3U symmetry.
    28 basis functions,    50 primitive gaussians,    30 cartesian basis functions
     8 alpha electrons        8 beta electrons
       nuclear repulsion energy        27.4897252426 Hartrees.
 NAtoms=    2 NActive=    2 NUniq=    1 SFac= 4.00D+00 NAtFMM=   60 NAOKFM=F Big=F
 Integral buffers will be    131072 words long.
 Raffenetti 2 integral format.
 Two-electron integral symmetry is turned on.
 One-electron integrals computed using PRISM.
   8 Symmetry operations used in ECPInt.
 ECPInt:  NShTT=      78 NPrTT=     326 LenC2=      79 LenP2D=     304.
 LDataN:  DoStor=T MaxTD1= 4 Len=   56
 NBasis=    28 RedAO= T EigKep=  1.66D-02  NBF=     7     1     3     3     1     7     3     3
 NBsUse=    28 1.00D-06 EigRej= -1.00D+00 NBFU=     7     1     3     3     1     7     3     3
 ExpMin= 2.55D-01 ExpMax= 2.27D+03 ExpMxC= 3.41D+02 IAcc=3 IRadAn=         5 AccDes= 0.00D+00
 Harris functional with IExCor= 1009 and IRadAn=       5 diagonalized for initial guess.
 HarFok:  IExCor= 1009 AccDes= 0.00D+00 IRadAn=         5 IDoV= 1 UseB2=F ITyADJ=14
 ICtDFT=  3500011 ScaDFX=  1.000000  1.000000  1.000000  1.000000
 FoFCou: FMM=F IPFlag=           0 FMFlag=      100000 FMFlg1=           0
         NFxFlg=           0 DoJE=T BraDBF=F KetDBF=T FulRan=T
         wScrn=  0.000000 ICntrl=       500 IOpCl=  0 I1Cent=   200000004 NGrid=           0
         NMat0=    1 NMatS0=      1 NMatT0=    0 NMatD0=    1 NMtDS0=    0 NMtDT0=    0
 Petite list used in FoFCou.
 Mixing orbitals, IMix= 1 IMixAn=  0 NRI=1 NE=    8 Coef=  7.07106781D-01  7.07106781D-01
 Mixing orbitals, IMix= 1 IMixAn=  0 NRI=1 NE=    8 Coef= -7.07106781D-01  7.07106781D-01
 Initial guess orbital symmetries:
 Alpha Orbitals:
       Occupied  (SGU) (SGG) (SGG) (SGU) (SGG) (PIU) (PIU) (PIG)
       Virtual   (PIG) (SGU) (SGG) (SGU) (PIU) (PIU) (SGG) (PIG)
                 (PIG) (SGU) (PIU) (PIU) (DLTG) (DLTG) (DLTU) (DLTU)
                 (SGG) (PIG) (PIG) (SGU)
 Beta  Orbitals:
       Occupied  (SGU) (SGG) (SGG) (SGU) (SGG) (PIU) (PIU) (PIG)
       Virtual   (PIG) (SGU) (SGG) (SGU) (PIU) (PIU) (SGG) (PIG)
                 (PIG) (SGU) (PIU) (PIU) (DLTG) (DLTG) (DLTU) (DLTU)
                 (SGG) (PIG) (PIG) (SGU)
 Initial guess <Sx>= 0.0000 <Sy>= 0.0000 <Sz>= 0.0000 <S**2>= 1.0000 S= 0.6180
 Keep R1 and R2 ints in memory in symmetry-blocked form, NReq=55407025.
 Requested convergence on RMS density matrix=1.00D-08 within 128 cycles.
 Requested convergence on MAX density matrix=1.00D-06.
 Requested convergence on             energy=1.00D-06.
 No special actions if energy rises.
 Integral accuracy reduced to 1.0D-05 until final iterations.
 An orbital has undefined symmetry, so N**3 symmetry is turned off.
 Density matrix breaks symmetry, PCut= 1.00D-04
 Density matrix has no symmetry -- integrals replicated.
 Density matrix breaks symmetry, PCut= 1.00D-04
 Density matrix has no symmetry -- integrals replicated.
 Density matrix breaks symmetry, PCut= 1.00D-04
 Density matrix has no symmetry -- integrals replicated.
 Density matrix breaks symmetry, PCut= 1.00D-04
 Density matrix has no symmetry -- integrals replicated.
 Density matrix breaks symmetry, PCut= 1.00D-04
 Density matrix has no symmetry -- integrals replicated.
 Density matrix breaks symmetry, PCut= 1.00D-04
 Density matrix has no symmetry -- integrals replicated.
 Initial convergence to 1.0D-05 achieved.  Increase integral accuracy.
 Density matrix breaks symmetry, PCut= 1.00D-04
 Density matrix has no symmetry -- integrals replicated.
 Density matrix breaks symmetry, PCut= 1.00D-04
 Density matrix has no symmetry -- integrals replicated.
 Density matrix breaks symmetry, PCut= 1.00D-04
 Density matrix has no symmetry -- integrals replicated.
 Density matrix breaks symmetry, PCut= 1.00D-04
 Density matrix has no symmetry -- integrals replicated.
 Density matrix breaks symmetry, PCut= 1.00D-04
 Density matrix has no symmetry -- integrals replicated.
 Density matrix breaks symmetry, PCut= 1.00D-04
 Density matrix has no symmetry -- integrals replicated.
 SCF Done:  E(UM062X) =  -150.116584253     A.U. after   11 cycles
            NFock= 11  Conv=0.75D-08     -V/T= 2.0052
 <Sx>= 0.0000 <Sy>= 0.0000 <Sz>= 0.0000 <S**2>= 1.0037 S= 0.6197
 <L.S>= 0.000000000000E+00
 Annihilation of the first spin contaminant:
 S**2 before annihilation     1.0037,   after     0.0299
 SCF density gives NOpUse=  1 NOpAll=  8.

 **********************************************************************

            Population analysis using the SCF Density.

 **********************************************************************

 Orbital symmetries:
 Alpha Orbitals:
       Occupied  (SGG) (SGU) (SGG) (SGU) (PIU) (SGG) (PIU) (?A)
       Virtual   (?A) (SGU) (SGG) (PIU) (SGU) (PIU) (SGG) (?A)
                 (?A) (SGU) (PIU) (PIU) (DLTG) (DLTG) (DLTU) (DLTU)
                 (SGG) (PIG) (PIG) (SGU)
 Beta  Orbitals:
       Occupied  (SGG) (SGU) (SGG) (SGU) (PIU) (SGG) (PIU) (?A)
       Virtual   (?A) (SGU) (SGG) (PIU) (SGU) (PIU) (SGG) (?A)
                 (?A) (SGU) (PIU) (PIU) (DLTG) (DLTG) (DLTU) (DLTU)
                 (SGG) (PIG) (PIG) (SGU)
 Unable to determine electronic state:  an orbital has unidentified symmetry.
 Alpha  occ. eigenvalues --  -19.78334 -19.78321  -1.37898  -0.89563  -0.63968
 Alpha  occ. eigenvalues --   -0.60627  -0.54513  -0.38325
 Alpha virt. eigenvalues --   -0.08312   0.28207   0.80413   0.88920   0.90192
 Alpha virt. eigenvalues --    0.93601   0.98813   1.00347   1.04906   1.23578
 Alpha virt. eigenvalues --    2.16005   2.19083   2.44999   2.46722   2.72461
 Alpha virt. eigenvalues --    2.74285   2.79879   3.32074   3.34286   3.85967
  Beta  occ. eigenvalues --  -19.78334 -19.78321  -1.37898  -0.89563  -0.63968
  Beta  occ. eigenvalues --   -0.60627  -0.54513  -0.38325
  Beta virt. eigenvalues --   -0.08312   0.28207   0.80413   0.88920   0.90192
  Beta virt. eigenvalues --    0.93601   0.98813   1.00347   1.04906   1.23578
  Beta virt. eigenvalues --    2.16005   2.19083   2.44999   2.46722   2.72461
  Beta virt. eigenvalues --    2.74285   2.79879   3.32074   3.34286   3.85967
          Condensed to atoms (all electrons):
               1          2
     1  O    7.866732   0.133268
     2  O    0.133268   7.866732
          Atomic-Atomic Spin Densities.
               1          2
     1  O    0.000000  -0.000000
     2  O   -0.000000   0.000000
 Mulliken charges and spin densities:
               1          2
     1  O   -0.000000   0.000000
     2  O   -0.000000   0.000000
 Sum of Mulliken charges =  -0.00000   0.00000
 Mulliken charges and spin densities with hydrogens summed into heavy atoms:
               1          2
     1  O   -0.000000   0.000000
     2  O   -0.000000   0.000000
 Electronic spatial extent (au):  <R**2>=             44.1452
 Charge=             -0.0000 electrons
 Dipole moment (field-independent basis, Debye):
    X=              0.0000    Y=             -0.0000    Z=              0.0000  Tot=              0.0000
 Quadrupole moment (field-independent basis, Debye-Ang):
   XX=             -9.8511   YY=             -9.8511   ZZ=            -10.5128
   XY=             -0.0000   XZ=             -0.0000   YZ=             -0.0000
 Traceless Quadrupole moment (field-independent basis, Debye-Ang):
   XX=              0.2206   YY=              0.2206   ZZ=             -0.4411
   XY=             -0.0000   XZ=             -0.0000   YZ=             -0.0000
 Octapole moment (field-independent basis, Debye-Ang**2):
  XXX=             -0.0000  YYY=             -0.0000  ZZZ=              0.0000  XYY=              0.0000
  XXY=             -0.0000  XXZ=              0.0000  XZZ=             -0.0000  YZZ=             -0.0000
  YYZ=              0.0000  XYZ=              0.0000
 Hexadecapole moment (field-independent basis, Debye-Ang**3):
 XXXX=             -6.4102 YYYY=             -6.4102 ZZZZ=            -28.8199 XXXY=             -0.0000
 XXXZ=             -0.0000 YYYX=             -0.0000 YYYZ=             -0.0000 ZZZX=             -0.0000
 ZZZY=              0.0000 XXYY=             -2.1367 XXZZ=             -6.0812 YYZZ=             -6.0812
 XXYZ=              0.0000 YYXZ=              0.0000 ZZXY=             -0.0000
 N-N= 2.748972524260D+01 E-N=-4.098118834883D+02  KE= 1.493408572139D+02
 Symmetry AG   KE= 6.938904003404D+01
 Symmetry B1G  KE= 1.925473990054D-04
 Symmetry B2G  KE= 3.010564015117D+00
 Symmetry B3G  KE= 3.010564015117D+00
 Symmetry AU   KE= 3.962214956150D-04
 Symmetry B1U  KE= 6.488484288395D+01
 Symmetry B2U  KE= 4.522628748376D+00
 Symmetry B3U  KE= 4.522628748376D+00
 Symmetry AG   SP=-9.858881483021D-15
 Symmetry B1G  SP=-2.139686935764D-18
 Symmetry B2G  SP= 5.313624522630D-15
 Symmetry B3G  SP= 5.802180407536D-15
 Symmetry AU   SP=-1.446126490030D-18
 Symmetry B1U  SP= 7.190679288194D-15
 Symmetry B2U  SP= 9.006440414665D-17
 Symmetry B3U  SP=-6.785431756199D-17
                          Isotropic Fermi Contact Couplings
        Atom                 a.u.       MegaHertz       Gauss      10(-4) cm-1
     1  O(17)              0.00000      -0.00000      -0.00000      -0.00000
     2  O(17)              0.00000      -0.00000      -0.00000      -0.00000
 --------------------------------------------------------
       Center         ----  Spin Dipole Couplings  ----
                      3XX-RR        3YY-RR        3ZZ-RR
 --------------------------------------------------------
     1   Atom        0.000000      0.000000     -0.000000
     2   Atom        0.000000      0.000000     -0.000000
 --------------------------------------------------------
                        XY            XZ            YZ
 --------------------------------------------------------
     1   Atom        3.581967      0.000000      0.000000
     2   Atom        3.581967     -0.000000     -0.000000
 --------------------------------------------------------


 ---------------------------------------------------------------------------------
              Anisotropic Spin Dipole Couplings in Principal Axis System
 ---------------------------------------------------------------------------------

       Atom             a.u.   MegaHertz   Gauss  10(-4) cm-1        Axes

              Baa    -3.5820   259.189    92.485    86.456  0.7071 -0.7071 -0.0000
     1 O(17)  Bbb    -0.0000     0.000     0.000     0.000 -0.0000 -0.0000  1.0000
              Bcc     3.5820  -259.189   -92.485   -86.456  0.7071  0.7071  0.0000
 
              Baa    -3.5820   259.189    92.485    86.456  0.7071 -0.7071  0.0000
     2 O(17)  Bbb    -0.0000     0.000     0.000     0.000  0.0000  0.0000  1.0000
              Bcc     3.5820  -259.189   -92.485   -86.456  0.7071  0.7071 -0.0000
 

 ---------------------------------------------------------------------------------

 DoSCS=F DFT=T ScalE2(SS,OS)=  1.000000  1.000000
 Range of M.O.s used for correlation:     1    28
 NBasis=    28 NAE=     8 NBE=     8 NFC=     0 NFV=     0
 NROrb=     28 NOA=     8 NOB=     8 NVA=    20 NVB=    20
 Keep R1 and R2 ints in memory in symmetry-blocked form, NReq=66889093.
 Orbital symmetries:
 Alpha Orbitals:
       Occupied  (SGG) (SGU) (SGG) (SGU) (PIU) (SGG) (PIU) (?A)
       Virtual   (?A) (SGU) (SGG) (PIU) (SGU) (PIU) (SGG) (?A)
                 (?A) (SGU) (PIU) (PIU) (DLTG) (DLTG) (DLTU) (DLTU)
                 (SGG) (PIG) (PIG) (SGU)
 Beta  Orbitals:
       Occupied  (SGG) (SGU) (SGG) (SGU) (PIU) (SGG) (PIU) (?A)
       Virtual   (?A) (SGU) (SGG) (PIU) (SGU) (PIU) (SGG) (?A)
                 (?A) (SGU) (PIU) (PIU) (DLTG) (DLTG) (DLTU) (DLTU)
                 (SGG) (PIG) (PIG) (SGU)
    24 initial guesses have been made.
 Convergence on wavefunction:    0.001000000000000
 Iteration     1 Dimension    24 NMult     0 NNew     24
 CISAX will form    24 AO SS matrices at one time.
 Iteration     2 Dimension    48 NMult    24 NNew     24
 Iteration     3 Dimension    51 NMult    48 NNew      3
 Iteration     4 Dimension    54 NMult    51 NNew      3
 ***********************************************************************
 Stability analysis using <AA,BB:AA,BB> singles matrix:
 ***********************************************************************
 Ground to excited state transition densities written to RWF  633

 Eigenvectors of the stability matrix:
 
 Excited state symmetry could not be determined.
 Eigenvector   1:  1.029-?Sym  Eigenvalue= 0.0000060  <S**2>=0.015
      8A ->  9A       -0.70457
      8B ->  9B        0.70457
 The wavefunction is stable under the perturbations considered.
 The wavefunction is already stable.
 SCF density gives NOpUse=  1 NOpAll=  8.

 **********************************************************************

            Population analysis using the SCF Density.

 **********************************************************************

 Orbital symmetries:
 Alpha Orbitals:
       Occupied  (SGG) (SGU) (SGG) (SGU) (PIU) (SGG) (PIU) (?A)
       Virtual   (?A) (SGU) (SGG) (PIU) (SGU) (PIU) (SGG) (?A)
                 (?A) (SGU) (PIU) (PIU) (DLTG) (DLTG) (DLTU) (DLTU)
                 (SGG) (PIG) (PIG) (SGU)
 Beta  Orbitals:
       Occupied  (SGG) (SGU) (SGG) (SGU) (PIU) (SGG) (PIU) (?A)
       Virtual   (?A) (SGU) (SGG) (PIU) (SGU) (PIU) (SGG) (?A)
                 (?A) (SGU) (PIU) (PIU) (DLTG) (DLTG) (DLTU) (DLTU)
                 (SGG) (PIG) (PIG) (SGU)
 Unable to determine electronic state:  an orbital has unidentified symmetry.
 Alpha  occ. eigenvalues --  -19.78334 -19.78321  -1.37898  -0.89563  -0.63968
 Alpha  occ. eigenvalues --   -0.60627  -0.54513  -0.38325
 Alpha virt. eigenvalues --   -0.08312   0.28207   0.80413   0.88920   0.90192
 Alpha virt. eigenvalues --    0.93601   0.98813   1.00347   1.04906   1.23578
 Alpha virt. eigenvalues --    2.16005   2.19083   2.44999   2.46722   2.72461
 Alpha virt. eigenvalues --    2.74285   2.79879   3.32074   3.34286   3.85967
  Beta  occ. eigenvalues --  -19.78334 -19.78321  -1.37898  -0.89563  -0.63968
  Beta  occ. eigenvalues --   -0.60627  -0.54513  -0.38325
  Beta virt. eigenvalues --   -0.08312   0.28207   0.80413   0.88920   0.90192
  Beta virt. eigenvalues --    0.93601   0.98813   1.00347   1.04906   1.23578
  Beta virt. eigenvalues --    2.16005   2.19083   2.44999   2.46722   2.72461
  Beta virt. eigenvalues --    2.74285   2.79879   3.32074   3.34286   3.85967
          Condensed to atoms (all electrons):
               1          2
     1  O    7.866732   0.133268
     2  O    0.133268   7.866732
          Atomic-Atomic Spin Densities.
               1          2
     1  O    0.000000  -0.000000
     2  O   -0.000000   0.000000
 Mulliken charges and spin densities:
               1          2
     1  O   -0.000000   0.000000
     2  O   -0.000000   0.000000
 Sum of Mulliken charges =  -0.00000   0.00000
 Mulliken charges and spin densities with hydrogens summed into heavy atoms:
               1          2
     1  O   -0.000000   0.000000
     2  O   -0.000000   0.000000
 Electronic spatial extent (au):  <R**2>=             44.1452
 Charge=             -0.0000 electrons
 Dipole moment (field-independent basis, Debye):
    X=              0.0000    Y=             -0.0000    Z=              0.0000  Tot=              0.0000
 Quadrupole moment (field-independent basis, Debye-Ang):
   XX=             -9.8511   YY=             -9.8511   ZZ=            -10.5128
   XY=             -0.0000   XZ=             -0.0000   YZ=             -0.0000
 Traceless Quadrupole moment (field-independent basis, Debye-Ang):
   XX=              0.2206   YY=              0.2206   ZZ=             -0.4411
   XY=             -0.0000   XZ=             -0.0000   YZ=             -0.0000
 Octapole moment (field-independent basis, Debye-Ang**2):
  XXX=             -0.0000  YYY=             -0.0000  ZZZ=              0.0000  XYY=              0.0000
  XXY=             -0.0000  XXZ=              0.0000  XZZ=             -0.0000  YZZ=             -0.0000
  YYZ=              0.0000  XYZ=              0.0000
 Hexadecapole moment (field-independent basis, Debye-Ang**3):
 XXXX=             -6.4102 YYYY=             -6.4102 ZZZZ=            -28.8199 XXXY=             -0.0000
 XXXZ=             -0.0000 YYYX=             -0.0000 YYYZ=             -0.0000 ZZZX=             -0.0000
 ZZZY=              0.0000 XXYY=             -2.1367 XXZZ=             -6.0812 YYZZ=             -6.0812
 XXYZ=              0.0000 YYXZ=              0.0000 ZZXY=             -0.0000
 N-N= 2.748972524260D+01 E-N=-4.098118834883D+02  KE= 1.493408572139D+02
 Symmetry AG   KE= 6.938904003404D+01
 Symmetry B1G  KE= 1.925473990054D-04
 Symmetry B2G  KE= 3.010564015117D+00
 Symmetry B3G  KE= 3.010564015117D+00
 Symmetry AU   KE= 3.962214956150D-04
 Symmetry B1U  KE= 6.488484288395D+01
 Symmetry B2U  KE= 4.522628748376D+00
 Symmetry B3U  KE= 4.522628748376D+00
 Symmetry AG   SP=-9.858881483021D-15
 Symmetry B1G  SP=-2.139686935764D-18
 Symmetry B2G  SP= 5.313624522630D-15
 Symmetry B3G  SP= 5.802180407536D-15
 Symmetry AU   SP=-1.446126490030D-18
 Symmetry B1U  SP= 7.190679288194D-15
 Symmetry B2U  SP= 9.006440414665D-17
 Symmetry B3U  SP=-6.785431756199D-17
                          Isotropic Fermi Contact Couplings
        Atom                 a.u.       MegaHertz       Gauss      10(-4) cm-1
     1  O(17)              0.00000      -0.00000      -0.00000      -0.00000
     2  O(17)              0.00000      -0.00000      -0.00000      -0.00000
 --------------------------------------------------------
       Center         ----  Spin Dipole Couplings  ----
                      3XX-RR        3YY-RR        3ZZ-RR
 --------------------------------------------------------
     1   Atom        0.000000      0.000000     -0.000000
     2   Atom        0.000000      0.000000     -0.000000
 --------------------------------------------------------
                        XY            XZ            YZ
 --------------------------------------------------------
     1   Atom        3.581967      0.000000      0.000000
     2   Atom        3.581967     -0.000000     -0.000000
 --------------------------------------------------------


 ---------------------------------------------------------------------------------
              Anisotropic Spin Dipole Couplings in Principal Axis System
 ---------------------------------------------------------------------------------

       Atom             a.u.   MegaHertz   Gauss  10(-4) cm-1        Axes

              Baa    -3.5820   259.189    92.485    86.456  0.7071 -0.7071 -0.0000
     1 O(17)  Bbb    -0.0000     0.000     0.000     0.000 -0.0000 -0.0000  1.0000
              Bcc     3.5820  -259.189   -92.485   -86.456  0.7071  0.7071  0.0000
 
              Baa    -3.5820   259.189    92.485    86.456  0.7071 -0.7071  0.0000
     2 O(17)  Bbb    -0.0000     0.000     0.000     0.000  0.0000  0.0000  1.0000
              Bcc     3.5820  -259.189   -92.485   -86.456  0.7071  0.7071 -0.0000
 

 ---------------------------------------------------------------------------------

 1\1\GINC-X1002C3S5B0N1\Stability\UM062X\def2SVP\O2\ZHANGX5\25-Aug-2025
 \0\\# um062x def2svp stable=opt guess=mix\\Gaussian job with default s
 ettings\\0,1\O,0,-0.616,0.,0.\O,0,0.616,0.,0.\\Version=ES64L-G16RevB.0
 1\HF=-150.1165843\S2=1.003743\S2-1=0.\S2A=0.029933\RMSD=7.543e-09\Dipo
 le=0.,0.,0.\Quadrupole=-0.3279599,0.16398,0.16398,0.,0.,0.\PG=D*H [C*(
 O1.O1)]\\@


 Fatherhood is pretending the present you love most is soap-on-a-rope.
 -- Bill Cosby
 Job cpu time:       0 days  0 hours  3 minutes 57.7 seconds.
 Elapsed time:       0 days  0 hours  0 minutes  4.8 seconds.
 File lengths (MBytes):  RWF=      9 Int=      0 D2E=      0 Chk=      1 Scr=      1
 Normal termination of Gaussian 16 at Mon Aug 25 19:40:09 2025.
 Initial command:
 /home/users/astar/bmsi/zhangx5/programs/g16/l1.exe "/scratch/users/astar/bmsi/zhangx5/oxygen_openshell_singlet_ts_link/Gau-2814130.inp" -scrdir="/scratch/users/astar/bmsi/zhangx5/oxygen_openshell_singlet_ts_link/"
 Entering Link 1 = /home/users/astar/bmsi/zhangx5/programs/g16/l1.exe PID=   2815023.
  
 Copyright (c) 1988-2017, Gaussian, Inc.  All Rights Reserved.
  
 This is part of the Gaussian(R) 16 program.  It is based on
 the Gaussian(R) 09 system (copyright 2009, Gaussian, Inc.),
 the Gaussian(R) 03 system (copyright 2003, Gaussian, Inc.),
 the Gaussian(R) 98 system (copyright 1998, Gaussian, Inc.),
 the Gaussian(R) 94 system (copyright 1995, Gaussian, Inc.),
 the Gaussian 92(TM) system (copyright 1992, Gaussian, Inc.),
 the Gaussian 90(TM) system (copyright 1990, Gaussian, Inc.),
 the Gaussian 88(TM) system (copyright 1988, Gaussian, Inc.),
 the Gaussian 86(TM) system (copyright 1986, Carnegie Mellon
 University), and the Gaussian 82(TM) system (copyright 1983,
 Carnegie Mellon University). Gaussian is a federally registered
 trademark of Gaussian, Inc.
  
 This software contains proprietary and confidential information,
 including trade secrets, belonging to Gaussian, Inc.
  
 This software is provided under written license and may be
 used, copied, transmitted, or stored only in accord with that
 written license.
  
 The following legend is applicable only to US Government
 contracts under FAR:
  
                    RESTRICTED RIGHTS LEGEND
  
 Use, reproduction and disclosure by the US Government is
 subject to restrictions as set forth in subparagraphs (a)
 and (c) of the Commercial Computer Software - Restricted
 Rights clause in FAR 52.227-19.
  
 Gaussian, Inc.
 340 Quinnipiac St., Bldg. 40, Wallingford CT 06492
  
  
 ---------------------------------------------------------------
 Warning -- This program may not be used in any manner that
 competes with the business of Gaussian, Inc. or will provide
 assistance to any competitor of Gaussian, Inc.  The licensee
 of this program is prohibited from giving any competitor of
 Gaussian, Inc. access to this program.  By using this program,
 the user acknowledges that Gaussian, Inc. is engaged in the
 business of creating and licensing software in the field of
 computational chemistry and represents and warrants to the
 licensee that it is not a competitor of Gaussian, Inc. and that
 it will not use this program in any manner prohibited above.
 ---------------------------------------------------------------
  

 Cite this work as:
 Gaussian 16, Revision B.01,
 M. J. Frisch, G. W. Trucks, H. B. Schlegel, G. E. Scuseria, 
 M. A. Robb, J. R. Cheeseman, G. Scalmani, V. Barone, 
 G. A. Petersson, H. Nakatsuji, X. Li, M. Caricato, A. V. Marenich, 
 J. Bloino, B. G. Janesko, R. Gomperts, B. Mennucci, H. P. Hratchian, 
 J. V. Ortiz, A. F. Izmaylov, J. L. Sonnenberg, D. Williams-Young, 
 F. Ding, F. Lipparini, F. Egidi, J. Goings, B. Peng, A. Petrone, 
 T. Henderson, D. Ranasinghe, V. G. Zakrzewski, J. Gao, N. Rega, 
 G. Zheng, W. Liang, M. Hada, M. Ehara, K. Toyota, R. Fukuda, 
 J. Hasegawa, M. Ishida, T. Nakajima, Y. Honda, O. Kitao, H. Nakai, 
 T. Vreven, K. Throssell, J. A. Montgomery, Jr., J. E. Peralta, 
 F. Ogliaro, M. J. Bearpark, J. J. Heyd, E. N. Brothers, K. N. Kudin, 
 V. N. Staroverov, T. A. Keith, R. Kobayashi, J. Normand, 
 K. Raghavachari, A. P. Rendell, J. C. Burant, S. S. Iyengar, 
 J. Tomasi, M. Cossi, J. M. Millam, M. Klene, C. Adamo, R. Cammi, 
 J. W. Ochterski, R. L. Martin, K. Morokuma, O. Farkas, 
 J. B. Foresman, and D. J. Fox, Gaussian, Inc., Wallingford CT, 2016.
 
 ******************************************
 Gaussian 16:  ES64L-G16RevB.01 20-Dec-2017
                25-Aug-2025 
 ******************************************
 %chk=oxygen_openshell_singlet_ts_link.chk
 %nprocshared=64
 Will use up to   64 processors via shared memory.
 %mem=400GB
 ----------------------------------------------------------------------
 # opt=(ts,calcfc,noeigentest,maxstep=10) freq um062x def2svp geom=chec
 k guess=read
 ----------------------------------------------------------------------
 1/5=1,8=10,10=4,11=1,18=20,26=3,29=2,38=1/1,3;
 2/9=110,12=2,40=1/2;
 3/5=43,7=101,11=2,14=-4,25=1,30=1,71=2,74=-55,116=2,140=1/1,2,3;
 4/5=1/1;
 5/5=2,38=6/2;
 8/6=4,10=90,11=11/1;
 11/6=1,8=1,9=11,15=111,16=1/1,2,10;
 10/6=1,13=1/2;
 6/7=2,8=2,9=2,10=2,28=1/1;
 7/10=1,18=20,25=1/1,2,3,16;
 1/5=1,8=10,10=4,11=1,18=20,26=3/3(2);
 2/9=110/2;
 99//99;
 2/9=110/2;
 3/5=43,7=101,11=2,14=-2,25=1,30=1,71=1,74=-55,116=2/1,2,3;
 4/5=5,16=3,69=1/1;
 5/5=2,38=5/2;
 7//1,2,3,16;
 1/5=1,8=10,11=1,18=20,26=3/3(-5);
 2/9=110/2;
 6/7=2,8=2,9=2,10=2,19=2,28=1/1;
 99/9=1/99;
 ----------------------------------
 Gaussian job with default settings
 ----------------------------------
 Structure from the checkpoint file:  "oxygen_openshell_singlet_ts_link.chk"
 Charge =  0 Multiplicity = 1
 Z-Matrix found in chk file.
 O,0,-0.616,0.,0.
 O,0,0.616,0.,0.
 Recover connectivity data from disk.

 GradGradGradGradGradGradGradGradGradGradGradGradGradGradGradGradGradGrad
 Berny optimization.
 Initialization pass.
                           ----------------------------
                           !    Initial Parameters    !
                           ! (Angstroms and Degrees)  !
 --------------------------                            --------------------------
 ! Name  Definition              Value          Derivative Info.                !
 --------------------------------------------------------------------------------
 ! R1    R(1,2)                  1.232          calculate D2E/DX2 analytically  !
 --------------------------------------------------------------------------------
 Trust Radius=1.00D-01 FncErr=1.00D-07 GrdErr=1.00D-06 EigMax=2.50D+02 EigMin=1.00D-04
 Number of steps in this run=     20 maximum allowed number of steps=    100.
 Search for a saddle point of order  1.
 GradGradGradGradGradGradGradGradGradGradGradGradGradGradGradGradGradGrad

                          Input orientation:                          
 ---------------------------------------------------------------------
 Center     Atomic      Atomic             Coordinates (Angstroms)
 Number     Number       Type             X           Y           Z
 ---------------------------------------------------------------------
      1          8           0       -0.616000    0.000000    0.000000
      2          8           0        0.616000    0.000000    0.000000
 ---------------------------------------------------------------------
 Stoichiometry    O2
 Framework group  D*H[C*(O.O)]
 Deg. of freedom     1
 Full point group                 D*H     NOp   8
 Largest Abelian subgroup         D2H     NOp   8
 Largest concise Abelian subgroup C2      NOp   2
                         Standard orientation:                         
 ---------------------------------------------------------------------
 Center     Atomic      Atomic             Coordinates (Angstroms)
 Number     Number       Type             X           Y           Z
 ---------------------------------------------------------------------
      1          8           0        0.000000    0.000000    0.616000
      2          8           0        0.000000    0.000000   -0.616000
 ---------------------------------------------------------------------
 Rotational constants (GHZ):           0.0000000          41.6335892          41.6335892
 Standard basis: def2SVP (5D, 7F)
 There are     8 symmetry adapted cartesian basis functions of AG  symmetry.
 There are     1 symmetry adapted cartesian basis functions of B1G symmetry.
 There are     3 symmetry adapted cartesian basis functions of B2G symmetry.
 There are     3 symmetry adapted cartesian basis functions of B3G symmetry.
 There are     1 symmetry adapted cartesian basis functions of AU  symmetry.
 There are     8 symmetry adapted cartesian basis functions of B1U symmetry.
 There are     3 symmetry adapted cartesian basis functions of B2U symmetry.
 There are     3 symmetry adapted cartesian basis functions of B3U symmetry.
 There are     7 symmetry adapted basis functions of AG  symmetry.
 There are     1 symmetry adapted basis functions of B1G symmetry.
 There are     3 symmetry adapted basis functions of B2G symmetry.
 There are     3 symmetry adapted basis functions of B3G symmetry.
 There are     1 symmetry adapted basis functions of AU  symmetry.
 There are     7 symmetry adapted basis functions of B1U symmetry.
 There are     3 symmetry adapted basis functions of B2U symmetry.
 There are     3 symmetry adapted basis functions of B3U symmetry.
    28 basis functions,    50 primitive gaussians,    30 cartesian basis functions
     8 alpha electrons        8 beta electrons
       nuclear repulsion energy        27.4897252426 Hartrees.
 NAtoms=    2 NActive=    2 NUniq=    1 SFac= 4.00D+00 NAtFMM=   60 NAOKFM=F Big=F
 Integral buffers will be    131072 words long.
 Raffenetti 2 integral format.
 Two-electron integral symmetry is turned on.
 One-electron integrals computed using PRISM.
   8 Symmetry operations used in ECPInt.
 ECPInt:  NShTT=      78 NPrTT=     326 LenC2=      79 LenP2D=     304.
 LDataN:  DoStor=T MaxTD1= 4 Len=   56
 NBasis=    28 RedAO= T EigKep=  1.66D-02  NBF=     7     1     3     3     1     7     3     3
 NBsUse=    28 1.00D-06 EigRej= -1.00D+00 NBFU=     7     1     3     3     1     7     3     3
 Initial guess from the checkpoint file:  "oxygen_openshell_singlet_ts_link.chk"
 B after Tr=     0.000000    0.000000    0.000000
         Rot=    1.000000    0.000000    0.000000    0.000000 Ang=   0.00 deg.
 Initial guess orbital symmetries:
 Alpha Orbitals:
       Occupied  (SGG) (SGU) (SGG) (SGU) (PIU) (SGG) (PIU) (?A)
       Virtual   (?A) (SGU) (SGG) (PIU) (SGU) (PIU) (SGG) (?A)
                 (?A) (SGU) (PIU) (PIU) (DLTG) (DLTG) (DLTU) (DLTU)
                 (SGG) (PIG) (PIG) (SGU)
 Beta  Orbitals:
       Occupied  (SGG) (SGU) (SGG) (SGU) (PIU) (SGG) (PIU) (?A)
       Virtual   (?A) (SGU) (SGG) (PIU) (SGU) (PIU) (SGG) (?A)
                 (?A) (SGU) (PIU) (PIU) (DLTG) (DLTG) (DLTU) (DLTU)
                 (SGG) (PIG) (PIG) (SGU)
 Initial guess <Sx>= 0.0000 <Sy>= 0.0000 <Sz>= 0.0000 <S**2>= 1.0037 S= 0.6197
 Keep R1 and R2 ints in memory in symmetry-blocked form, NReq=55407025.
 Requested convergence on RMS density matrix=1.00D-08 within 128 cycles.
 Requested convergence on MAX density matrix=1.00D-06.
 Requested convergence on             energy=1.00D-06.
 No special actions if energy rises.
 An orbital has undefined symmetry, so N**3 symmetry is turned off.
 Density matrix breaks symmetry, PCut= 1.00D-04
 Density matrix has no symmetry -- integrals replicated.
 Density matrix breaks symmetry, PCut= 1.00D-04
 Density matrix has no symmetry -- integrals replicated.
 SCF Done:  E(UM062X) =  -150.116584253     A.U. after    1 cycles
            NFock=  1  Conv=0.44D-09     -V/T= 2.0052
 <Sx>= 0.0000 <Sy>= 0.0000 <Sz>= 0.0000 <S**2>= 1.0037 S= 0.6197
 <L.S>= 0.000000000000E+00
 Annihilation of the first spin contaminant:
 S**2 before annihilation     1.0037,   after     0.0299
 DoSCS=F DFT=T ScalE2(SS,OS)=  1.000000  1.000000
 Range of M.O.s used for correlation:     1    28
 NBasis=    28 NAE=     8 NBE=     8 NFC=     0 NFV=     0
 NROrb=     28 NOA=     8 NOB=     8 NVA=    20 NVB=    20
   8 Symmetry operations used in ECPInt.
 ECPInt:  NShTT=      78 NPrTT=     326 LenC2=      79 LenP2D=     304.
 LDataN:  DoStor=T MaxTD1= 5 Len=  102
 Symmetrizing basis deriv contribution to polar:
 IMax=3 JMax=2 DiffMx= 0.00D+00
 G2DrvN: will do     3 centers at a time, making    1 passes.
 Calling FoFCou, ICntrl=  3107 FMM=F I1Cent=   0 AccDes= 0.00D+00.
 End of G2Drv F.D. properties file   721 does not exist.
 End of G2Drv F.D. properties file   722 does not exist.
 End of G2Drv F.D. properties file   788 does not exist.
          IDoAtm=11
          Differentiating once with respect to nuclear coordinates.
 Keep R1 and R2 ints in memory in symmetry-blocked form, NReq=55184386.
          There are     9 degrees of freedom in the 1st order CPHF.  IDoFFX=6 NUNeed=     0.
      3 vectors produced by pass  0 Test12= 3.56D-15 1.11D-08 XBig12= 1.19D-01 1.30D-01.
 AX will form     3 AO Fock derivatives at one time.
      3 vectors produced by pass  1 Test12= 3.56D-15 1.11D-08 XBig12= 8.69D-03 3.47D-02.
      3 vectors produced by pass  2 Test12= 3.56D-15 1.11D-08 XBig12= 1.05D-04 3.20D-03.
      3 vectors produced by pass  3 Test12= 3.56D-15 1.11D-08 XBig12= 2.19D-07 1.70D-04.
      3 vectors produced by pass  4 Test12= 3.56D-15 1.11D-08 XBig12= 4.97D-09 2.21D-05.
      3 vectors produced by pass  5 Test12= 3.56D-15 1.11D-08 XBig12= 1.41D-10 4.40D-06.
      3 vectors produced by pass  6 Test12= 3.56D-15 1.11D-08 XBig12= 4.51D-13 1.86D-07.
 InvSVY:  IOpt=1 It=  1 EMax= 2.22D-16
 Solved reduced A of dimension    21 with     3 vectors.
 End of Minotr F.D. properties file   721 does not exist.
 End of Minotr F.D. properties file   722 does not exist.
 End of Minotr F.D. properties file   788 does not exist.
 SCF density gives NOpUse=  1 NOpAll=  8.

 **********************************************************************

            Population analysis using the SCF Density.

 **********************************************************************

 Orbital symmetries:
 Alpha Orbitals:
       Occupied  (SGG) (SGU) (SGG) (SGU) (PIU) (SGG) (PIU) (?A)
       Virtual   (?A) (SGU) (SGG) (PIU) (SGU) (PIU) (SGG) (?A)
                 (?A) (SGU) (PIU) (PIU) (DLTG) (DLTG) (DLTU) (DLTU)
                 (SGG) (PIG) (PIG) (SGU)
 Beta  Orbitals:
       Occupied  (SGG) (SGU) (SGG) (SGU) (PIU) (SGG) (PIU) (?A)
       Virtual   (?A) (SGU) (SGG) (PIU) (SGU) (PIU) (SGG) (?A)
                 (?A) (SGU) (PIU) (PIU) (DLTG) (DLTG) (DLTU) (DLTU)
                 (SGG) (PIG) (PIG) (SGU)
 Unable to determine electronic state:  an orbital has unidentified symmetry.
 Alpha  occ. eigenvalues --  -19.78334 -19.78321  -1.37898  -0.89563  -0.63968
 Alpha  occ. eigenvalues --   -0.60627  -0.54513  -0.38325
 Alpha virt. eigenvalues --   -0.08312   0.28207   0.80413   0.88920   0.90192
 Alpha virt. eigenvalues --    0.93601   0.98813   1.00347   1.04906   1.23578
 Alpha virt. eigenvalues --    2.16005   2.19083   2.44999   2.46722   2.72461
 Alpha virt. eigenvalues --    2.74285   2.79879   3.32074   3.34286   3.85967
  Beta  occ. eigenvalues --  -19.78334 -19.78321  -1.37898  -0.89563  -0.63968
  Beta  occ. eigenvalues --   -0.60627  -0.54513  -0.38325
  Beta virt. eigenvalues --   -0.08312   0.28207   0.80413   0.88920   0.90192
  Beta virt. eigenvalues --    0.93601   0.98813   1.00347   1.04906   1.23578
  Beta virt. eigenvalues --    2.16005   2.19083   2.44999   2.46722   2.72461
  Beta virt. eigenvalues --    2.74285   2.79879   3.32074   3.34286   3.85967
          Condensed to atoms (all electrons):
               1          2
     1  O    7.866732   0.133268
     2  O    0.133268   7.866732
          Atomic-Atomic Spin Densities.
               1          2
     1  O   -0.000000   0.000000
     2  O    0.000000  -0.000000
 Mulliken charges and spin densities:
               1          2
     1  O   -0.000000  -0.000000
     2  O   -0.000000  -0.000000
 Sum of Mulliken charges =  -0.00000  -0.00000
 Mulliken charges and spin densities with hydrogens summed into heavy atoms:
               1          2
     1  O   -0.000000  -0.000000
     2  O   -0.000000  -0.000000
 APT charges:
               1
     1  O   -0.000000
     2  O   -0.000000
 Sum of APT charges =  -0.00000
 APT charges with hydrogens summed into heavy atoms:
               1
     1  O   -0.000000
     2  O   -0.000000
 Electronic spatial extent (au):  <R**2>=             44.1452
 Charge=              0.0000 electrons
 Dipole moment (field-independent basis, Debye):
    X=              0.0000    Y=              0.0000    Z=              0.0000  Tot=              0.0000
 Quadrupole moment (field-independent basis, Debye-Ang):
   XX=             -9.8511   YY=             -9.8511   ZZ=            -10.5128
   XY=             -0.0000   XZ=              0.0000   YZ=             -0.0000
 Traceless Quadrupole moment (field-independent basis, Debye-Ang):
   XX=              0.2206   YY=              0.2206   ZZ=             -0.4411
   XY=             -0.0000   XZ=              0.0000   YZ=             -0.0000
 Octapole moment (field-independent basis, Debye-Ang**2):
  XXX=             -0.0000  YYY=              0.0000  ZZZ=              0.0000  XYY=             -0.0000
  XXY=              0.0000  XXZ=              0.0000  XZZ=              0.0000  YZZ=             -0.0000
  YYZ=              0.0000  XYZ=             -0.0000
 Hexadecapole moment (field-independent basis, Debye-Ang**3):
 XXXX=             -6.4102 YYYY=             -6.4102 ZZZZ=            -28.8199 XXXY=             -0.0000
 XXXZ=              0.0000 YYYX=             -0.0000 YYYZ=             -0.0000 ZZZX=              0.0000
 ZZZY=             -0.0000 XXYY=             -2.1367 XXZZ=             -6.0812 YYZZ=             -6.0812
 XXYZ=             -0.0000 YYXZ=              0.0000 ZZXY=             -0.0000
 N-N= 2.748972524260D+01 E-N=-4.098118833961D+02  KE= 1.493408571554D+02
 Symmetry AG   KE= 6.938904000170D+01
 Symmetry B1G  KE= 1.925473888461D-04
 Symmetry B2G  KE= 3.010564023648D+00
 Symmetry B3G  KE= 3.010564023648D+00
 Symmetry AU   KE= 3.962214888578D-04
 Symmetry B1U  KE= 6.488484286157D+01
 Symmetry B2U  KE= 4.522628737993D+00
 Symmetry B3U  KE= 4.522628737993D+00
 Symmetry AG   SP=-1.668956217062D-15
 Symmetry B1G  SP=-3.114511411432D-18
 Symmetry B2G  SP= 1.503057740442D-16
 Symmetry B3G  SP= 4.021378998824D-16
 Symmetry AU   SP=-2.706601606341D-18
 Symmetry B1U  SP=-1.934588924502D-15
 Symmetry B2U  SP=-1.548203523027D-15
 Symmetry B3U  SP=-1.338720824690D-16
  Exact polarizability:   0.000   0.000   0.000   0.000   0.000   0.000
 Approx polarizability:   3.716   0.000   3.716  -0.000   0.000  19.289
                          Isotropic Fermi Contact Couplings
        Atom                 a.u.       MegaHertz       Gauss      10(-4) cm-1
     1  O(17)             -0.00000       0.00000       0.00000       0.00000
     2  O(17)             -0.00000       0.00000       0.00000       0.00000
 --------------------------------------------------------
       Center         ----  Spin Dipole Couplings  ----
                      3XX-RR        3YY-RR        3ZZ-RR
 --------------------------------------------------------
     1   Atom        0.000000      0.000000      0.000000
     2   Atom        0.000000      0.000000      0.000000
 --------------------------------------------------------
                        XY            XZ            YZ
 --------------------------------------------------------
     1   Atom        3.581967      0.000000     -0.000000
     2   Atom        3.581967      0.000000     -0.000000
 --------------------------------------------------------


 ---------------------------------------------------------------------------------
              Anisotropic Spin Dipole Couplings in Principal Axis System
 ---------------------------------------------------------------------------------

       Atom             a.u.   MegaHertz   Gauss  10(-4) cm-1        Axes

              Baa    -3.5820   259.189    92.485    86.456  0.7071 -0.7071 -0.0000
     1 O(17)  Bbb     0.0000    -0.000    -0.000    -0.000  0.0000 -0.0000  1.0000
              Bcc     3.5820  -259.189   -92.485   -86.456  0.7071  0.7071 -0.0000
 
              Baa    -3.5820   259.189    92.485    86.456  0.7071 -0.7071 -0.0000
     2 O(17)  Bbb     0.0000    -0.000    -0.000    -0.000  0.0000 -0.0000  1.0000
              Bcc     3.5820  -259.189   -92.485   -86.456  0.7071  0.7071 -0.0000
 

 ---------------------------------------------------------------------------------

   8 Symmetry operations used in ECPInt.
 ECPInt:  NShTT=      78 NPrTT=     326 LenC2=      79 LenP2D=     304.
 LDataN:  DoStor=T MaxTD1= 6 Len=  172
 Density matrix is not symmetric, so symmetry will not be used here.
 Calling FoFJK, ICntrl=    100147 FMM=F ISym2X=0 I1Cent= 0 IOpClX= 1 NMat=1 NMatS=1 NMatT=0.
 ***** Axes restored to original set *****
 -------------------------------------------------------------------
 Center     Atomic                   Forces (Hartrees/Bohr)
 Number     Number              X              Y              Z
 -------------------------------------------------------------------
      1        8           0.078081584    0.000000000    0.000000000
      2        8          -0.078081584   -0.000000000   -0.000000000
 -------------------------------------------------------------------
 Cartesian Forces:  Max     0.078081584 RMS     0.045080423
 FormGI is forming the generalized inverse of G from B-inverse, IUseBI=4.

 GradGradGradGradGradGradGradGradGradGradGradGradGradGradGradGradGradGrad
 Berny optimization.
 Internal  Forces:  Max     0.078081584 RMS     0.078081584
 Search for a saddle point.
 Step number   1 out of a maximum of   20
 All quantities printed in internal units (Hartrees-Bohrs-Radians)
 Swapping is turned off.
 Second derivative matrix not updated -- analytic derivatives used.
 The second derivative matrix:
                          R1
           R1           0.69784
 ITU=  0
     Eigenvalues ---    0.69784
 Eigenvectors required to have negative eigenvalues:
                          R1
   1                    1.00000
 RFO step:  Lambda0=7.064717578D-01 Lambda= 7.06471758D-01.
 Linear search not attempted -- option 19 set.
 Iteration  1 RMS(Cart)=  0.00000000 RMS(Int)=  0.00000000
 Variable       Old X    -DE/DX   Delta X   Delta X   Delta X     New X
                                 (Linear)    (Quad)   (Total)
    R1        2.32814  -0.07808   0.00000   0.00000   0.00000   2.32814
         Item               Value     Threshold  Converged?
 Maximum Force            0.078082     0.000450     NO 
 RMS     Force            0.078082     0.000300     NO 
 Maximum Displacement     0.000000     0.001800     YES
 RMS     Displacement     0.000000     0.001200     YES
 Predicted change in Energy= 0.000000D+00
 GradGradGradGradGradGradGradGradGradGradGradGradGradGradGradGradGradGrad

                          Input orientation:                          
 ---------------------------------------------------------------------
 Center     Atomic      Atomic             Coordinates (Angstroms)
 Number     Number       Type             X           Y           Z
 ---------------------------------------------------------------------
      1          8           0       -0.616000    0.000000   -0.000000
      2          8           0        0.616000    0.000000    0.000000
 ---------------------------------------------------------------------
 Stoichiometry    O2
 Framework group  D*H[C*(O.O)]
 Deg. of freedom     1
 Full point group                 D*H     NOp   8
 Largest Abelian subgroup         D2H     NOp   8
 Largest concise Abelian subgroup C2      NOp   2
                         Standard orientation:                         
 ---------------------------------------------------------------------
 Center     Atomic      Atomic             Coordinates (Angstroms)
 Number     Number       Type             X           Y           Z
 ---------------------------------------------------------------------
      1          8           0        0.000000    0.000000    0.616000
      2          8           0        0.000000    0.000000   -0.616000
 ---------------------------------------------------------------------
 Rotational constants (GHZ):           0.0000000          41.6335892          41.6335892
 Standard basis: def2SVP (5D, 7F)
 There are     8 symmetry adapted cartesian basis functions of AG  symmetry.
 There are     1 symmetry adapted cartesian basis functions of B1G symmetry.
 There are     3 symmetry adapted cartesian basis functions of B2G symmetry.
 There are     3 symmetry adapted cartesian basis functions of B3G symmetry.
 There are     1 symmetry adapted cartesian basis functions of AU  symmetry.
 There are     8 symmetry adapted cartesian basis functions of B1U symmetry.
 There are     3 symmetry adapted cartesian basis functions of B2U symmetry.
 There are     3 symmetry adapted cartesian basis functions of B3U symmetry.
 There are     7 symmetry adapted basis functions of AG  symmetry.
 There are     1 symmetry adapted basis functions of B1G symmetry.
 There are     3 symmetry adapted basis functions of B2G symmetry.
 There are     3 symmetry adapted basis functions of B3G symmetry.
 There are     1 symmetry adapted basis functions of AU  symmetry.
 There are     7 symmetry adapted basis functions of B1U symmetry.
 There are     3 symmetry adapted basis functions of B2U symmetry.
 There are     3 symmetry adapted basis functions of B3U symmetry.
    28 basis functions,    50 primitive gaussians,    30 cartesian basis functions
     8 alpha electrons        8 beta electrons
       nuclear repulsion energy        27.4897252426 Hartrees.
 NAtoms=    2 NActive=    2 NUniq=    1 SFac= 4.00D+00 NAtFMM=   60 NAOKFM=F Big=F
 Integral buffers will be    131072 words long.
 Raffenetti 2 integral format.
 Two-electron integral symmetry is turned on.
 One-electron integrals computed using PRISM.
   8 Symmetry operations used in ECPInt.
 ECPInt:  NShTT=      78 NPrTT=     326 LenC2=      79 LenP2D=     304.
 LDataN:  DoStor=T MaxTD1= 4 Len=   56
 NBasis=    28 RedAO= T EigKep=  1.66D-02  NBF=     7     1     3     3     1     7     3     3
 NBsUse=    28 1.00D-06 EigRej= -1.00D+00 NBFU=     7     1     3     3     1     7     3     3
 Initial guess from the checkpoint file:  "oxygen_openshell_singlet_ts_link.chk"
 B after Tr=     0.000000    0.000000    0.000000
         Rot=    1.000000    0.000000    0.000000    0.000000 Ang=   0.00 deg.
 Initial guess orbital symmetries:
 Alpha Orbitals:
       Occupied  (SGG) (SGU) (SGG) (SGU) (PIU) (SGG) (PIU) (?A)
       Virtual   (?A) (SGU) (SGG) (PIU) (SGU) (PIU) (SGG) (?A)
                 (?A) (SGU) (PIU) (PIU) (DLTG) (DLTG) (DLTU) (DLTU)
                 (SGG) (PIG) (PIG) (SGU)
 Beta  Orbitals:
       Occupied  (SGG) (SGU) (SGG) (SGU) (PIU) (SGG) (PIU) (?A)
       Virtual   (?A) (SGU) (SGG) (PIU) (SGU) (PIU) (SGG) (?A)
                 (?A) (SGU) (PIU) (PIU) (DLTG) (DLTG) (DLTU) (DLTU)
                 (SGG) (PIG) (PIG) (SGU)
 Initial guess <Sx>= 0.0000 <Sy>= 0.0000 <Sz>= 0.0000 <S**2>= 1.0037 S= 0.6197
 Keep R1 and R2 ints in memory in symmetry-blocked form, NReq=55407025.
 Requested convergence on RMS density matrix=1.00D-08 within 128 cycles.
 Requested convergence on MAX density matrix=1.00D-06.
 Requested convergence on             energy=1.00D-06.
 No special actions if energy rises.
 An orbital has undefined symmetry, so N**3 symmetry is turned off.
 Density matrix breaks symmetry, PCut= 1.00D-04
 Density matrix has no symmetry -- integrals replicated.
 Density matrix breaks symmetry, PCut= 1.00D-04
 Density matrix has no symmetry -- integrals replicated.
 SCF Done:  E(UM062X) =  -150.116584253     A.U. after    1 cycles
            NFock=  1  Conv=0.12D-09     -V/T= 2.0052
 <Sx>= 0.0000 <Sy>= 0.0000 <Sz>= 0.0000 <S**2>= 1.0037 S= 0.6197
 <L.S>= 0.000000000000E+00
 Annihilation of the first spin contaminant:
 S**2 before annihilation     1.0037,   after     0.0299
   8 Symmetry operations used in ECPInt.
 ECPInt:  NShTT=      78 NPrTT=     326 LenC2=      79 LenP2D=     304.
 LDataN:  DoStor=T MaxTD1= 5 Len=  102
 Density matrix is not symmetric, so symmetry will not be used here.
 Calling FoFJK, ICntrl=      2127 FMM=F ISym2X=0 I1Cent= 0 IOpClX= 1 NMat=1 NMatS=1 NMatT=0.
 ***** Axes restored to original set *****
 -------------------------------------------------------------------
 Center     Atomic                   Forces (Hartrees/Bohr)
 Number     Number              X              Y              Z
 -------------------------------------------------------------------
      1        8           0.078081583   -0.000000000   -0.000000000
      2        8          -0.078081583    0.000000000    0.000000000
 -------------------------------------------------------------------
 Cartesian Forces:  Max     0.078081583 RMS     0.045080423

 GradGradGradGradGradGradGradGradGradGradGradGradGradGradGradGradGradGrad
 Berny optimization.
 Internal  Forces:  Max     0.078081583 RMS     0.078081583
 Search for a saddle point.
 Step number   2 out of a maximum of   20
 All quantities printed in internal units (Hartrees-Bohrs-Radians)
 Swapping is turned off.
 Update second derivatives using D2CorX and points    2
 The second derivative matrix:
                          R1
           R1           0.69784
 ITU=  0  0
     Eigenvalues ---    0.69784
 Eigenvectors required to have negative eigenvalues:
                          R1
   1                    1.00000
 RFO step:  Lambda0=7.064717578D-01 Lambda= 7.06471758D-01.
 Linear search not attempted -- option 19 set.
 Iteration  1 RMS(Cart)=  0.00000000 RMS(Int)=  0.00000000
 ClnCor:  largest displacement from symmetrization is 0.00D+00 for atom     0.
 Variable       Old X    -DE/DX   Delta X   Delta X   Delta X     New X
                                 (Linear)    (Quad)   (Total)
    R1        2.32814  -0.07808   0.00000   0.00000   0.00000   2.32814
         Item               Value     Threshold  Converged?
 Maximum Force            0.078082     0.000450     NO 
 RMS     Force            0.078082     0.000300     NO 
 Maximum Displacement     0.000000     0.001800     YES
 RMS     Displacement     0.000000     0.001200     YES
 Predicted change in Energy= 0.000000D+00
 GradGradGradGradGradGradGradGradGradGradGradGradGradGradGradGradGradGrad

                          Input orientation:                          
 ---------------------------------------------------------------------
 Center     Atomic      Atomic             Coordinates (Angstroms)
 Number     Number       Type             X           Y           Z
 ---------------------------------------------------------------------
      1          8           0       -0.616000    0.000000   -0.000000
      2          8           0        0.616000    0.000000    0.000000
 ---------------------------------------------------------------------
 Stoichiometry    O2
 Framework group  D*H[C*(O.O)]
 Deg. of freedom     1
 Full point group                 D*H     NOp   8
 Largest Abelian subgroup         D2H     NOp   8
 Largest concise Abelian subgroup C2      NOp   2
                         Standard orientation:                         
 ---------------------------------------------------------------------
 Center     Atomic      Atomic             Coordinates (Angstroms)
 Number     Number       Type             X           Y           Z
 ---------------------------------------------------------------------
      1          8           0        0.000000    0.000000    0.616000
      2          8           0        0.000000    0.000000   -0.616000
 ---------------------------------------------------------------------
 Rotational constants (GHZ):           0.0000000          41.6335892          41.6335892
 Standard basis: def2SVP (5D, 7F)
 There are     8 symmetry adapted cartesian basis functions of AG  symmetry.
 There are     1 symmetry adapted cartesian basis functions of B1G symmetry.
 There are     3 symmetry adapted cartesian basis functions of B2G symmetry.
 There are     3 symmetry adapted cartesian basis functions of B3G symmetry.
 There are     1 symmetry adapted cartesian basis functions of AU  symmetry.
 There are     8 symmetry adapted cartesian basis functions of B1U symmetry.
 There are     3 symmetry adapted cartesian basis functions of B2U symmetry.
 There are     3 symmetry adapted cartesian basis functions of B3U symmetry.
 There are     7 symmetry adapted basis functions of AG  symmetry.
 There are     1 symmetry adapted basis functions of B1G symmetry.
 There are     3 symmetry adapted basis functions of B2G symmetry.
 There are     3 symmetry adapted basis functions of B3G symmetry.
 There are     1 symmetry adapted basis functions of AU  symmetry.
 There are     7 symmetry adapted basis functions of B1U symmetry.
 There are     3 symmetry adapted basis functions of B2U symmetry.
 There are     3 symmetry adapted basis functions of B3U symmetry.
    28 basis functions,    50 primitive gaussians,    30 cartesian basis functions
     8 alpha electrons        8 beta electrons
       nuclear repulsion energy        27.4897252426 Hartrees.
 NAtoms=    2 NActive=    2 NUniq=    1 SFac= 4.00D+00 NAtFMM=   60 NAOKFM=F Big=F
 Integral buffers will be    131072 words long.
 Raffenetti 2 integral format.
 Two-electron integral symmetry is turned on.
 One-electron integrals computed using PRISM.
   8 Symmetry operations used in ECPInt.
 ECPInt:  NShTT=      78 NPrTT=     326 LenC2=      79 LenP2D=     304.
 LDataN:  DoStor=T MaxTD1= 4 Len=   56
 NBasis=    28 RedAO= T EigKep=  1.66D-02  NBF=     7     1     3     3     1     7     3     3
 NBsUse=    28 1.00D-06 EigRej= -1.00D+00 NBFU=     7     1     3     3     1     7     3     3
 Initial guess from the checkpoint file:  "oxygen_openshell_singlet_ts_link.chk"
 B after Tr=     0.000000    0.000000    0.000000
         Rot=    1.000000    0.000000    0.000000    0.000000 Ang=   0.00 deg.
 Initial guess orbital symmetries:
 Alpha Orbitals:
       Occupied  (SGG) (SGU) (SGG) (SGU) (PIU) (SGG) (PIU) (?A)
       Virtual   (?A) (SGU) (SGG) (PIU) (SGU) (PIU) (SGG) (?A)
                 (?A) (SGU) (PIU) (PIU) (DLTG) (DLTG) (DLTU) (DLTU)
                 (SGG) (PIG) (PIG) (SGU)
 Beta  Orbitals:
       Occupied  (SGG) (SGU) (SGG) (SGU) (PIU) (SGG) (PIU) (?A)
       Virtual   (?A) (SGU) (SGG) (PIU) (SGU) (PIU) (SGG) (?A)
                 (?A) (SGU) (PIU) (PIU) (DLTG) (DLTG) (DLTU) (DLTU)
                 (SGG) (PIG) (PIG) (SGU)
 Initial guess <Sx>= 0.0000 <Sy>= 0.0000 <Sz>= 0.0000 <S**2>= 1.0037 S= 0.6197
 Keep R1 and R2 ints in memory in symmetry-blocked form, NReq=55407025.
 Requested convergence on RMS density matrix=1.00D-08 within 128 cycles.
 Requested convergence on MAX density matrix=1.00D-06.
 Requested convergence on             energy=1.00D-06.
 No special actions if energy rises.
 An orbital has undefined symmetry, so N**3 symmetry is turned off.
 Density matrix breaks symmetry, PCut= 1.00D-04
 Density matrix has no symmetry -- integrals replicated.
 Skip diagonalization as Alpha Fock matrix is already diagonal.
 Skip diagonalization as Beta Fock matrix is already diagonal.
 Density matrix breaks symmetry, PCut= 1.00D-04
 Density matrix has no symmetry -- integrals replicated.
 SCF Done:  E(UM062X) =  -150.116584253     A.U. after    1 cycles
            NFock=  1  Conv=0.00D+00     -V/T= 2.0052
 <Sx>= 0.0000 <Sy>= 0.0000 <Sz>= 0.0000 <S**2>= 1.0037 S= 0.6197
 <L.S>= 0.000000000000E+00
 Annihilation of the first spin contaminant:
 S**2 before annihilation     1.0037,   after     0.0299
   8 Symmetry operations used in ECPInt.
 ECPInt:  NShTT=      78 NPrTT=     326 LenC2=      79 LenP2D=     304.
 LDataN:  DoStor=T MaxTD1= 5 Len=  102
 Density matrix is not symmetric, so symmetry will not be used here.
 Calling FoFJK, ICntrl=      2127 FMM=F ISym2X=0 I1Cent= 0 IOpClX= 1 NMat=1 NMatS=1 NMatT=0.
 ***** Axes restored to original set *****
 -------------------------------------------------------------------
 Center     Atomic                   Forces (Hartrees/Bohr)
 Number     Number              X              Y              Z
 -------------------------------------------------------------------
      1        8           0.078081584   -0.000000000   -0.000000000
      2        8          -0.078081584    0.000000000    0.000000000
 -------------------------------------------------------------------
 Cartesian Forces:  Max     0.078081584 RMS     0.045080423

 GradGradGradGradGradGradGradGradGradGradGradGradGradGradGradGradGradGrad
 Berny optimization.
 Internal  Forces:  Max     0.078081584 RMS     0.078081584
 Search for a saddle point.
 Step number   3 out of a maximum of   20
 All quantities printed in internal units (Hartrees-Bohrs-Radians)
 Swapping is turned off.
 Update second derivatives using D2CorX and points    3
 The second derivative matrix:
                          R1
           R1           0.69784
 ITU=  0  0
     Eigenvalues ---    0.69784
 Eigenvectors required to have negative eigenvalues:
                          R1
   1                    1.00000
 RFO step:  Lambda0=7.064717579D-01 Lambda= 7.06471758D-01.
 Linear search not attempted -- option 19 set.
 Iteration  1 RMS(Cart)=  0.00000000 RMS(Int)=  0.00000000
 ClnCor:  largest displacement from symmetrization is 0.00D+00 for atom     0.
 Variable       Old X    -DE/DX   Delta X   Delta X   Delta X     New X
                                 (Linear)    (Quad)   (Total)
    R1        2.32814  -0.07808   0.00000   0.00000   0.00000   2.32814
         Item               Value     Threshold  Converged?
 Maximum Force            0.078082     0.000450     NO 
 RMS     Force            0.078082     0.000300     NO 
 Maximum Displacement     0.000000     0.001800     YES
 RMS     Displacement     0.000000     0.001200     YES
 Predicted change in Energy= 0.000000D+00
 GradGradGradGradGradGradGradGradGradGradGradGradGradGradGradGradGradGrad

                          Input orientation:                          
 ---------------------------------------------------------------------
 Center     Atomic      Atomic             Coordinates (Angstroms)
 Number     Number       Type             X           Y           Z
 ---------------------------------------------------------------------
      1          8           0       -0.616000    0.000000   -0.000000
      2          8           0        0.616000    0.000000    0.000000
 ---------------------------------------------------------------------
 Stoichiometry    O2
 Framework group  D*H[C*(O.O)]
 Deg. of freedom     1
 Full point group                 D*H     NOp   8
 Largest Abelian subgroup         D2H     NOp   8
 Largest concise Abelian subgroup C2      NOp   2
                         Standard orientation:                         
 ---------------------------------------------------------------------
 Center     Atomic      Atomic             Coordinates (Angstroms)
 Number     Number       Type             X           Y           Z
 ---------------------------------------------------------------------
      1          8           0        0.000000    0.000000    0.616000
      2          8           0        0.000000    0.000000   -0.616000
 ---------------------------------------------------------------------
 Rotational constants (GHZ):           0.0000000          41.6335892          41.6335892
 Standard basis: def2SVP (5D, 7F)
 There are     8 symmetry adapted cartesian basis functions of AG  symmetry.
 There are     1 symmetry adapted cartesian basis functions of B1G symmetry.
 There are     3 symmetry adapted cartesian basis functions of B2G symmetry.
 There are     3 symmetry adapted cartesian basis functions of B3G symmetry.
 There are     1 symmetry adapted cartesian basis functions of AU  symmetry.
 There are     8 symmetry adapted cartesian basis functions of B1U symmetry.
 There are     3 symmetry adapted cartesian basis functions of B2U symmetry.
 There are     3 symmetry adapted cartesian basis functions of B3U symmetry.
 There are     7 symmetry adapted basis functions of AG  symmetry.
 There are     1 symmetry adapted basis functions of B1G symmetry.
 There are     3 symmetry adapted basis functions of B2G symmetry.
 There are     3 symmetry adapted basis functions of B3G symmetry.
 There are     1 symmetry adapted basis functions of AU  symmetry.
 There are     7 symmetry adapted basis functions of B1U symmetry.
 There are     3 symmetry adapted basis functions of B2U symmetry.
 There are     3 symmetry adapted basis functions of B3U symmetry.
    28 basis functions,    50 primitive gaussians,    30 cartesian basis functions
     8 alpha electrons        8 beta electrons
       nuclear repulsion energy        27.4897252426 Hartrees.
 NAtoms=    2 NActive=    2 NUniq=    1 SFac= 4.00D+00 NAtFMM=   60 NAOKFM=F Big=F
 Integral buffers will be    131072 words long.
 Raffenetti 2 integral format.
 Two-electron integral symmetry is turned on.
 One-electron integrals computed using PRISM.
   8 Symmetry operations used in ECPInt.
 ECPInt:  NShTT=      78 NPrTT=     326 LenC2=      79 LenP2D=     304.
 LDataN:  DoStor=T MaxTD1= 4 Len=   56
 NBasis=    28 RedAO= T EigKep=  1.66D-02  NBF=     7     1     3     3     1     7     3     3
 NBsUse=    28 1.00D-06 EigRej= -1.00D+00 NBFU=     7     1     3     3     1     7     3     3
 Initial guess from the checkpoint file:  "oxygen_openshell_singlet_ts_link.chk"
 B after Tr=    -0.000000    0.000000    0.000000
         Rot=    1.000000    0.000000    0.000000    0.000000 Ang=   0.00 deg.
 Initial guess orbital symmetries:
 Alpha Orbitals:
       Occupied  (SGG) (SGU) (SGG) (SGU) (PIU) (SGG) (PIU) (?A)
       Virtual   (?A) (SGU) (SGG) (PIU) (SGU) (PIU) (SGG) (?A)
                 (?A) (SGU) (PIU) (PIU) (DLTG) (DLTG) (DLTU) (DLTU)
                 (SGG) (PIG) (PIG) (SGU)
 Beta  Orbitals:
       Occupied  (SGG) (SGU) (SGG) (SGU) (PIU) (SGG) (PIU) (?A)
       Virtual   (?A) (SGU) (SGG) (PIU) (SGU) (PIU) (SGG) (?A)
                 (?A) (SGU) (PIU) (PIU) (DLTG) (DLTG) (DLTU) (DLTU)
                 (SGG) (PIG) (PIG) (SGU)
 Initial guess <Sx>= 0.0000 <Sy>= 0.0000 <Sz>= 0.0000 <S**2>= 1.0037 S= 0.6197
 Keep R1 and R2 ints in memory in symmetry-blocked form, NReq=55407025.
 Requested convergence on RMS density matrix=1.00D-08 within 128 cycles.
 Requested convergence on MAX density matrix=1.00D-06.
 Requested convergence on             energy=1.00D-06.
 No special actions if energy rises.
 An orbital has undefined symmetry, so N**3 symmetry is turned off.
 Density matrix breaks symmetry, PCut= 1.00D-04
 Density matrix has no symmetry -- integrals replicated.
 Skip diagonalization as Alpha Fock matrix is already diagonal.
 Skip diagonalization as Beta Fock matrix is already diagonal.
 Density matrix breaks symmetry, PCut= 1.00D-04
 Density matrix has no symmetry -- integrals replicated.
 SCF Done:  E(UM062X) =  -150.116584253     A.U. after    1 cycles
            NFock=  1  Conv=0.00D+00     -V/T= 2.0052
 <Sx>= 0.0000 <Sy>= 0.0000 <Sz>= 0.0000 <S**2>= 1.0037 S= 0.6197
 <L.S>= 0.000000000000E+00
 Annihilation of the first spin contaminant:
 S**2 before annihilation     1.0037,   after     0.0299
   8 Symmetry operations used in ECPInt.
 ECPInt:  NShTT=      78 NPrTT=     326 LenC2=      79 LenP2D=     304.
 LDataN:  DoStor=T MaxTD1= 5 Len=  102
 Density matrix is not symmetric, so symmetry will not be used here.
 Calling FoFJK, ICntrl=      2127 FMM=F ISym2X=0 I1Cent= 0 IOpClX= 1 NMat=1 NMatS=1 NMatT=0.
 ***** Axes restored to original set *****
 -------------------------------------------------------------------
 Center     Atomic                   Forces (Hartrees/Bohr)
 Number     Number              X              Y              Z
 -------------------------------------------------------------------
      1        8           0.078081584   -0.000000000    0.000000000
      2        8          -0.078081584    0.000000000   -0.000000000
 -------------------------------------------------------------------
 Cartesian Forces:  Max     0.078081584 RMS     0.045080423

 GradGradGradGradGradGradGradGradGradGradGradGradGradGradGradGradGradGrad
 Berny optimization.
 Internal  Forces:  Max     0.078081584 RMS     0.078081584
 Search for a saddle point.
 Step number   4 out of a maximum of   20
 All quantities printed in internal units (Hartrees-Bohrs-Radians)
 Swapping is turned off.
 Update second derivatives using D2CorX and points    4
 The second derivative matrix:
                          R1
           R1           0.69784
 ITU=  0  0
     Eigenvalues ---    0.69784
 Eigenvectors required to have negative eigenvalues:
                          R1
   1                    1.00000
 RFO step:  Lambda0=7.064717579D-01 Lambda= 7.06471758D-01.
 Linear search not attempted -- option 19 set.
 Iteration  1 RMS(Cart)=  0.00000000 RMS(Int)=  0.00000000
 ClnCor:  largest displacement from symmetrization is 0.00D+00 for atom     0.
 Variable       Old X    -DE/DX   Delta X   Delta X   Delta X     New X
                                 (Linear)    (Quad)   (Total)
    R1        2.32814  -0.07808   0.00000   0.00000   0.00000   2.32814
         Item               Value     Threshold  Converged?
 Maximum Force            0.078082     0.000450     NO 
 RMS     Force            0.078082     0.000300     NO 
 Maximum Displacement     0.000000     0.001800     YES
 RMS     Displacement     0.000000     0.001200     YES
 Predicted change in Energy= 0.000000D+00
 GradGradGradGradGradGradGradGradGradGradGradGradGradGradGradGradGradGrad

                          Input orientation:                          
 ---------------------------------------------------------------------
 Center     Atomic      Atomic             Coordinates (Angstroms)
 Number     Number       Type             X           Y           Z
 ---------------------------------------------------------------------
      1          8           0       -0.616000    0.000000    0.000000
      2          8           0        0.616000    0.000000    0.000000
 ---------------------------------------------------------------------
 Stoichiometry    O2
 Framework group  D*H[C*(O.O)]
 Deg. of freedom     1
 Full point group                 D*H     NOp   8
 Largest Abelian subgroup         D2H     NOp   8
 Largest concise Abelian subgroup C2      NOp   2
                         Standard orientation:                         
 ---------------------------------------------------------------------
 Center     Atomic      Atomic             Coordinates (Angstroms)
 Number     Number       Type             X           Y           Z
 ---------------------------------------------------------------------
      1          8           0        0.000000    0.000000    0.616000
      2          8           0        0.000000    0.000000   -0.616000
 ---------------------------------------------------------------------
 Rotational constants (GHZ):           0.0000000          41.6335892          41.6335892
 Standard basis: def2SVP (5D, 7F)
 There are     8 symmetry adapted cartesian basis functions of AG  symmetry.
 There are     1 symmetry adapted cartesian basis functions of B1G symmetry.
 There are     3 symmetry adapted cartesian basis functions of B2G symmetry.
 There are     3 symmetry adapted cartesian basis functions of B3G symmetry.
 There are     1 symmetry adapted cartesian basis functions of AU  symmetry.
 There are     8 symmetry adapted cartesian basis functions of B1U symmetry.
 There are     3 symmetry adapted cartesian basis functions of B2U symmetry.
 There are     3 symmetry adapted cartesian basis functions of B3U symmetry.
 There are     7 symmetry adapted basis functions of AG  symmetry.
 There are     1 symmetry adapted basis functions of B1G symmetry.
 There are     3 symmetry adapted basis functions of B2G symmetry.
 There are     3 symmetry adapted basis functions of B3G symmetry.
 There are     1 symmetry adapted basis functions of AU  symmetry.
 There are     7 symmetry adapted basis functions of B1U symmetry.
 There are     3 symmetry adapted basis functions of B2U symmetry.
 There are     3 symmetry adapted basis functions of B3U symmetry.
    28 basis functions,    50 primitive gaussians,    30 cartesian basis functions
     8 alpha electrons        8 beta electrons
       nuclear repulsion energy        27.4897252426 Hartrees.
 NAtoms=    2 NActive=    2 NUniq=    1 SFac= 4.00D+00 NAtFMM=   60 NAOKFM=F Big=F
 Integral buffers will be    131072 words long.
 Raffenetti 2 integral format.
 Two-electron integral symmetry is turned on.
 One-electron integrals computed using PRISM.
   8 Symmetry operations used in ECPInt.
 ECPInt:  NShTT=      78 NPrTT=     326 LenC2=      79 LenP2D=     304.
 LDataN:  DoStor=T MaxTD1= 4 Len=   56
 NBasis=    28 RedAO= T EigKep=  1.66D-02  NBF=     7     1     3     3     1     7     3     3
 NBsUse=    28 1.00D-06 EigRej= -1.00D+00 NBFU=     7     1     3     3     1     7     3     3
 Initial guess from the checkpoint file:  "oxygen_openshell_singlet_ts_link.chk"
 B after Tr=     0.000000    0.000000    0.000000
         Rot=    1.000000    0.000000    0.000000    0.000000 Ang=   0.00 deg.
 Initial guess orbital symmetries:
 Alpha Orbitals:
       Occupied  (SGG) (SGU) (SGG) (SGU) (PIU) (SGG) (PIU) (?A)
       Virtual   (?A) (SGU) (SGG) (PIU) (SGU) (PIU) (SGG) (?A)
                 (?A) (SGU) (PIU) (PIU) (DLTG) (DLTG) (DLTU) (DLTU)
                 (SGG) (PIG) (PIG) (SGU)
 Beta  Orbitals:
       Occupied  (SGG) (SGU) (SGG) (SGU) (PIU) (SGG) (PIU) (?A)
       Virtual   (?A) (SGU) (SGG) (PIU) (SGU) (PIU) (SGG) (?A)
                 (?A) (SGU) (PIU) (PIU) (DLTG) (DLTG) (DLTU) (DLTU)
                 (SGG) (PIG) (PIG) (SGU)
 Initial guess <Sx>= 0.0000 <Sy>= 0.0000 <Sz>= 0.0000 <S**2>= 1.0037 S= 0.6197
 Keep R1 and R2 ints in memory in symmetry-blocked form, NReq=55407025.
 Requested convergence on RMS density matrix=1.00D-08 within 128 cycles.
 Requested convergence on MAX density matrix=1.00D-06.
 Requested convergence on             energy=1.00D-06.
 No special actions if energy rises.
 An orbital has undefined symmetry, so N**3 symmetry is turned off.
 Density matrix breaks symmetry, PCut= 1.00D-04
 Density matrix has no symmetry -- integrals replicated.
 Skip diagonalization as Alpha Fock matrix is already diagonal.
 Skip diagonalization as Beta Fock matrix is already diagonal.
 Density matrix breaks symmetry, PCut= 1.00D-04
 Density matrix has no symmetry -- integrals replicated.
 SCF Done:  E(UM062X) =  -150.116584253     A.U. after    1 cycles
            NFock=  1  Conv=0.00D+00     -V/T= 2.0052
 <Sx>= 0.0000 <Sy>= 0.0000 <Sz>= 0.0000 <S**2>= 1.0037 S= 0.6197
 <L.S>= 0.000000000000E+00
 Annihilation of the first spin contaminant:
 S**2 before annihilation     1.0037,   after     0.0299
   8 Symmetry operations used in ECPInt.
 ECPInt:  NShTT=      78 NPrTT=     326 LenC2=      79 LenP2D=     304.
 LDataN:  DoStor=T MaxTD1= 5 Len=  102
 Density matrix is not symmetric, so symmetry will not be used here.
 Calling FoFJK, ICntrl=      2127 FMM=F ISym2X=0 I1Cent= 0 IOpClX= 1 NMat=1 NMatS=1 NMatT=0.
 ***** Axes restored to original set *****
 -------------------------------------------------------------------
 Center     Atomic                   Forces (Hartrees/Bohr)
 Number     Number              X              Y              Z
 -------------------------------------------------------------------
      1        8           0.078081584   -0.000000000    0.000000000
      2        8          -0.078081584    0.000000000   -0.000000000
 -------------------------------------------------------------------
 Cartesian Forces:  Max     0.078081584 RMS     0.045080423

 GradGradGradGradGradGradGradGradGradGradGradGradGradGradGradGradGradGrad
 Berny optimization.
 Internal  Forces:  Max     0.078081584 RMS     0.078081584
 Search for a saddle point.
 Step number   5 out of a maximum of   20
 All quantities printed in internal units (Hartrees-Bohrs-Radians)
 Swapping is turned off.
 Update second derivatives using D2CorX and points    5
 The second derivative matrix:
                          R1
           R1           0.69784
 ITU=  0  0
     Eigenvalues ---    0.69784
 Eigenvectors required to have negative eigenvalues:
                          R1
   1                    1.00000
 RFO step:  Lambda0=7.064717579D-01 Lambda= 7.06471758D-01.
 Linear search not attempted -- option 19 set.
 Iteration  1 RMS(Cart)=  0.00000000 RMS(Int)=  0.00000000
 ClnCor:  largest displacement from symmetrization is 0.00D+00 for atom     0.
 Variable       Old X    -DE/DX   Delta X   Delta X   Delta X     New X
                                 (Linear)    (Quad)   (Total)
    R1        2.32814  -0.07808   0.00000   0.00000   0.00000   2.32814
         Item               Value     Threshold  Converged?
 Maximum Force            0.078082     0.000450     NO 
 RMS     Force            0.078082     0.000300     NO 
 Maximum Displacement     0.000000     0.001800     YES
 RMS     Displacement     0.000000     0.001200     YES
 Predicted change in Energy= 0.000000D+00
 GradGradGradGradGradGradGradGradGradGradGradGradGradGradGradGradGradGrad

                          Input orientation:                          
 ---------------------------------------------------------------------
 Center     Atomic      Atomic             Coordinates (Angstroms)
[...]
 Keep R1 and R2 ints in memory in symmetry-blocked form, NReq=55407025.
 Requested convergence on RMS density matrix=1.00D-08 within 128 cycles.
 Requested convergence on MAX density matrix=1.00D-06.
 Requested convergence on             energy=1.00D-06.
 No special actions if energy rises.
 An orbital has undefined symmetry, so N**3 symmetry is turned off.
 Density matrix breaks symmetry, PCut= 1.00D-04
 Density matrix has no symmetry -- integrals replicated.
 Skip diagonalization as Alpha Fock matrix is already diagonal.
 Skip diagonalization as Beta Fock matrix is already diagonal.
 Density matrix breaks symmetry, PCut= 1.00D-04
 Density matrix has no symmetry -- integrals replicated.
 SCF Done:  E(UM062X) =  -150.116584253     A.U. after    1 cycles
            NFock=  1  Conv=0.00D+00     -V/T= 2.0052
 <Sx>= 0.0000 <Sy>= 0.0000 <Sz>= 0.0000 <S**2>= 1.0037 S= 0.6197
 <L.S>= 0.000000000000E+00
 Annihilation of the first spin contaminant:
 S**2 before annihilation     1.0037,   after     0.0299
   8 Symmetry operations used in ECPInt.
 ECPInt:  NShTT=      78 NPrTT=     326 LenC2=      79 LenP2D=     304.
 LDataN:  DoStor=T MaxTD1= 5 Len=  102
 Density matrix is not symmetric, so symmetry will not be used here.
 Calling FoFJK, ICntrl=      2127 FMM=F ISym2X=0 I1Cent= 0 IOpClX= 1 NMat=1 NMatS=1 NMatT=0.
 ***** Axes restored to original set *****
 -------------------------------------------------------------------
 Center     Atomic                   Forces (Hartrees/Bohr)
 Number     Number              X              Y              Z
 -------------------------------------------------------------------
      1        8           0.078081584   -0.000000000    0.000000000
      2        8          -0.078081584    0.000000000   -0.000000000
 -------------------------------------------------------------------
 Cartesian Forces:  Max     0.078081584 RMS     0.045080423

 GradGradGradGradGradGradGradGradGradGradGradGradGradGradGradGradGradGrad
 Berny optimization.
 Internal  Forces:  Max     0.078081584 RMS     0.078081584
 Search for a saddle point.
 Step number  19 out of a maximum of   20
 All quantities printed in internal units (Hartrees-Bohrs-Radians)
 Swapping is turned off.
 Update second derivatives using D2CorX and points   19
 The second derivative matrix:
                          R1
           R1           0.69784
 ITU=  0  0
     Eigenvalues ---    0.69784
 Eigenvectors required to have negative eigenvalues:
                          R1
   1                    1.00000
 RFO step:  Lambda0=7.064717579D-01 Lambda= 7.06471758D-01.
 Linear search not attempted -- option 19 set.
 Iteration  1 RMS(Cart)=  0.00000000 RMS(Int)=  0.00000000
 ClnCor:  largest displacement from symmetrization is 0.00D+00 for atom     0.
 Variable       Old X    -DE/DX   Delta X   Delta X   Delta X     New X
                                 (Linear)    (Quad)   (Total)
    R1        2.32814  -0.07808   0.00000   0.00000   0.00000   2.32814
         Item               Value     Threshold  Converged?
 Maximum Force            0.078082     0.000450     NO 
 RMS     Force            0.078082     0.000300     NO 
 Maximum Displacement     0.000000     0.001800     YES
 RMS     Displacement     0.000000     0.001200     YES
 Predicted change in Energy= 0.000000D+00
 GradGradGradGradGradGradGradGradGradGradGradGradGradGradGradGradGradGrad

                          Input orientation:                          
 ---------------------------------------------------------------------
 Center     Atomic      Atomic             Coordinates (Angstroms)
 Number     Number       Type             X           Y           Z
 ---------------------------------------------------------------------
      1          8           0       -0.616000    0.000000   -0.000000
      2          8           0        0.616000    0.000000    0.000000
 ---------------------------------------------------------------------
 Stoichiometry    O2
 Framework group  D*H[C*(O.O)]
 Deg. of freedom     1
 Full point group                 D*H     NOp   8
 Largest Abelian subgroup         D2H     NOp   8
 Largest concise Abelian subgroup C2      NOp   2
                         Standard orientation:                         
 ---------------------------------------------------------------------
 Center     Atomic      Atomic             Coordinates (Angstroms)
 Number     Number       Type             X           Y           Z
 ---------------------------------------------------------------------
      1          8           0        0.000000    0.000000    0.616000
      2          8           0        0.000000    0.000000   -0.616000
 ---------------------------------------------------------------------
 Rotational constants (GHZ):           0.0000000          41.6335892          41.6335892
 Standard basis: def2SVP (5D, 7F)
 There are     8 symmetry adapted cartesian basis functions of AG  symmetry.
 There are     1 symmetry adapted cartesian basis functions of B1G symmetry.
 There are     3 symmetry adapted cartesian basis functions of B2G symmetry.
 There are     3 symmetry adapted cartesian basis functions of B3G symmetry.
 There are     1 symmetry adapted cartesian basis functions of AU  symmetry.
 There are     8 symmetry adapted cartesian basis functions of B1U symmetry.
 There are     3 symmetry adapted cartesian basis functions of B2U symmetry.
 There are     3 symmetry adapted cartesian basis functions of B3U symmetry.
 There are     7 symmetry adapted basis functions of AG  symmetry.
 There are     1 symmetry adapted basis functions of B1G symmetry.
 There are     3 symmetry adapted basis functions of B2G symmetry.
 There are     3 symmetry adapted basis functions of B3G symmetry.
 There are     1 symmetry adapted basis functions of AU  symmetry.
 There are     7 symmetry adapted basis functions of B1U symmetry.
 There are     3 symmetry adapted basis functions of B2U symmetry.
 There are     3 symmetry adapted basis functions of B3U symmetry.
    28 basis functions,    50 primitive gaussians,    30 cartesian basis functions
     8 alpha electrons        8 beta electrons
       nuclear repulsion energy        27.4897252426 Hartrees.
 NAtoms=    2 NActive=    2 NUniq=    1 SFac= 4.00D+00 NAtFMM=   60 NAOKFM=F Big=F
 Integral buffers will be    131072 words long.
 Raffenetti 2 integral format.
 Two-electron integral symmetry is turned on.
 One-electron integrals computed using PRISM.
   8 Symmetry operations used in ECPInt.
 ECPInt:  NShTT=      78 NPrTT=     326 LenC2=      79 LenP2D=     304.
 LDataN:  DoStor=T MaxTD1= 4 Len=   56
 NBasis=    28 RedAO= T EigKep=  1.66D-02  NBF=     7     1     3     3     1     7     3     3
 NBsUse=    28 1.00D-06 EigRej= -1.00D+00 NBFU=     7     1     3     3     1     7     3     3
 Initial guess from the checkpoint file:  "oxygen_openshell_singlet_ts_link.chk"
 B after Tr=     0.000000    0.000000    0.000000
         Rot=    1.000000    0.000000    0.000000    0.000000 Ang=   0.00 deg.
 Initial guess orbital symmetries:
 Alpha Orbitals:
       Occupied  (SGG) (SGU) (SGG) (SGU) (PIU) (SGG) (PIU) (?A)
       Virtual   (?A) (SGU) (SGG) (PIU) (SGU) (PIU) (SGG) (?A)
                 (?A) (SGU) (PIU) (PIU) (DLTG) (DLTG) (DLTU) (DLTU)
                 (SGG) (PIG) (PIG) (SGU)
 Beta  Orbitals:
       Occupied  (SGG) (SGU) (SGG) (SGU) (PIU) (SGG) (PIU) (?A)
       Virtual   (?A) (SGU) (SGG) (PIU) (SGU) (PIU) (SGG) (?A)
                 (?A) (SGU) (PIU) (PIU) (DLTG) (DLTG) (DLTU) (DLTU)
                 (SGG) (PIG) (PIG) (SGU)
 Initial guess <Sx>= 0.0000 <Sy>= 0.0000 <Sz>= 0.0000 <S**2>= 1.0037 S= 0.6197
 Keep R1 and R2 ints in memory in symmetry-blocked form, NReq=55407025.
 Requested convergence on RMS density matrix=1.00D-08 within 128 cycles.
 Requested convergence on MAX density matrix=1.00D-06.
 Requested convergence on             energy=1.00D-06.
 No special actions if energy rises.
 An orbital has undefined symmetry, so N**3 symmetry is turned off.
 Density matrix breaks symmetry, PCut= 1.00D-04
 Density matrix has no symmetry -- integrals replicated.
 Skip diagonalization as Alpha Fock matrix is already diagonal.
 Skip diagonalization as Beta Fock matrix is already diagonal.
 Density matrix breaks symmetry, PCut= 1.00D-04
 Density matrix has no symmetry -- integrals replicated.
 SCF Done:  E(UM062X) =  -150.116584253     A.U. after    1 cycles
            NFock=  1  Conv=0.00D+00     -V/T= 2.0052
 <Sx>= 0.0000 <Sy>= 0.0000 <Sz>= 0.0000 <S**2>= 1.0037 S= 0.6197
 <L.S>= 0.000000000000E+00
 Annihilation of the first spin contaminant:
 S**2 before annihilation     1.0037,   after     0.0299
   8 Symmetry operations used in ECPInt.
 ECPInt:  NShTT=      78 NPrTT=     326 LenC2=      79 LenP2D=     304.
 LDataN:  DoStor=T MaxTD1= 5 Len=  102
 Density matrix is not symmetric, so symmetry will not be used here.
 Calling FoFJK, ICntrl=      2127 FMM=F ISym2X=0 I1Cent= 0 IOpClX= 1 NMat=1 NMatS=1 NMatT=0.
 ***** Axes restored to original set *****
 -------------------------------------------------------------------
 Center     Atomic                   Forces (Hartrees/Bohr)
 Number     Number              X              Y              Z
 -------------------------------------------------------------------
      1        8           0.078081584   -0.000000000    0.000000000
      2        8          -0.078081584    0.000000000   -0.000000000
 -------------------------------------------------------------------
 Cartesian Forces:  Max     0.078081584 RMS     0.045080423

 GradGradGradGradGradGradGradGradGradGradGradGradGradGradGradGradGradGrad
 Berny optimization.
 Internal  Forces:  Max     0.078081584 RMS     0.078081584
 Search for a saddle point.
 Step number  20 out of a maximum of   20
 All quantities printed in internal units (Hartrees-Bohrs-Radians)
 Swapping is turned off.
 Update second derivatives using D2CorX and points   20
 The second derivative matrix:
                          R1
           R1           0.69784
 ITU=  0  0
     Eigenvalues ---    0.69784
 Eigenvectors required to have negative eigenvalues:
                          R1
   1                    1.00000
 RFO step:  Lambda0=7.064717579D-01 Lambda= 7.06471758D-01.
 Linear search not attempted -- option 19 set.
 Iteration  1 RMS(Cart)=  0.00000000 RMS(Int)=  0.00000000
 ClnCor:  largest displacement from symmetrization is 0.00D+00 for atom     0.
 Variable       Old X    -DE/DX   Delta X   Delta X   Delta X     New X
                                 (Linear)    (Quad)   (Total)
    R1        2.32814  -0.07808   0.00000   0.00000   0.00000   2.32814
         Item               Value     Threshold  Converged?
 Maximum Force            0.078082     0.000450     NO 
 RMS     Force            0.078082     0.000300     NO 
 Maximum Displacement     0.000000     0.001800     YES
 RMS     Displacement     0.000000     0.001200     YES
 Predicted change in Energy= 0.000000D+00
 Optimization stopped.
    -- Number of steps exceeded,  NStep=  20
    -- Flag reset to prevent archiving.
                           ----------------------------
                           ! Non-Optimized Parameters !
                           ! (Angstroms and Degrees)  !
 --------------------------                            --------------------------
 ! Name  Definition              Value          Derivative Info.                !
 --------------------------------------------------------------------------------
 ! R1    R(1,2)                  1.232          -DE/DX =   -0.0781              !
 --------------------------------------------------------------------------------
 GradGradGradGradGradGradGradGradGradGradGradGradGradGradGradGradGradGrad

                          Input orientation:                          
 ---------------------------------------------------------------------
 Center     Atomic      Atomic             Coordinates (Angstroms)
 Number     Number       Type             X           Y           Z
 ---------------------------------------------------------------------
      1          8           0       -0.616000    0.000000   -0.000000
      2          8           0        0.616000    0.000000    0.000000
 ---------------------------------------------------------------------
 Stoichiometry    O2
 Framework group  D*H[C*(O.O)]
 Deg. of freedom     1
 Full point group                 D*H     NOp   8
 Largest Abelian subgroup         D2H     NOp   8
 Largest concise Abelian subgroup C2      NOp   2
                         Standard orientation:                         
 ---------------------------------------------------------------------
 Center     Atomic      Atomic             Coordinates (Angstroms)
 Number     Number       Type             X           Y           Z
 ---------------------------------------------------------------------
      1          8           0        0.000000    0.000000    0.616000
      2          8           0        0.000000    0.000000   -0.616000
 ---------------------------------------------------------------------
 Rotational constants (GHZ):           0.0000000          41.6335892          41.6335892
 SCF density gives NOpUse=  1 NOpAll=  8.

 **********************************************************************

            Population analysis using the SCF Density.

 **********************************************************************

 Orbital symmetries:
 Alpha Orbitals:
       Occupied  (SGG) (SGU) (SGG) (SGU) (PIU) (SGG) (PIU) (?A)
       Virtual   (?A) (SGU) (SGG) (PIU) (SGU) (PIU) (SGG) (?A)
                 (?A) (SGU) (PIU) (PIU) (DLTG) (DLTG) (DLTU) (DLTU)
                 (SGG) (PIG) (PIG) (SGU)
 Beta  Orbitals:
       Occupied  (SGG) (SGU) (SGG) (SGU) (PIU) (SGG) (PIU) (?A)
       Virtual   (?A) (SGU) (SGG) (PIU) (SGU) (PIU) (SGG) (?A)
                 (?A) (SGU) (PIU) (PIU) (DLTG) (DLTG) (DLTU) (DLTU)
                 (SGG) (PIG) (PIG) (SGU)
 Unable to determine electronic state:  an orbital has unidentified symmetry.
 Alpha  occ. eigenvalues --  -19.78334 -19.78321  -1.37898  -0.89563  -0.63968
 Alpha  occ. eigenvalues --   -0.60627  -0.54513  -0.38325
 Alpha virt. eigenvalues --   -0.08312   0.28207   0.80413   0.88920   0.90192
 Alpha virt. eigenvalues --    0.93601   0.98813   1.00347   1.04906   1.23578
 Alpha virt. eigenvalues --    2.16005   2.19083   2.44999   2.46722   2.72461
 Alpha virt. eigenvalues --    2.74285   2.79879   3.32074   3.34286   3.85967
  Beta  occ. eigenvalues --  -19.78334 -19.78321  -1.37898  -0.89563  -0.63968
  Beta  occ. eigenvalues --   -0.60627  -0.54513  -0.38325
  Beta virt. eigenvalues --   -0.08312   0.28207   0.80413   0.88920   0.90192
  Beta virt. eigenvalues --    0.93601   0.98813   1.00347   1.04906   1.23578
  Beta virt. eigenvalues --    2.16005   2.19083   2.44999   2.46722   2.72461
  Beta virt. eigenvalues --    2.74285   2.79879   3.32074   3.34286   3.85967
          Condensed to atoms (all electrons):
               1          2
     1  O    7.866732   0.133268
     2  O    0.133268   7.866732
          Atomic-Atomic Spin Densities.
               1          2
     1  O    0.000000  -0.000000
     2  O   -0.000000   0.000000
 Mulliken charges and spin densities:
               1          2
     1  O    0.000000  -0.000000
     2  O   -0.000000   0.000000
 Sum of Mulliken charges =  -0.00000  -0.00000
 Mulliken charges and spin densities with hydrogens summed into heavy atoms:
               1          2
     1  O    0.000000  -0.000000
     2  O   -0.000000   0.000000
 Electronic spatial extent (au):  <R**2>=             44.1452
 Charge=             -0.0000 electrons
 Dipole moment (field-independent basis, Debye):
    X=             -0.0000    Y=             -0.0000    Z=              0.0000  Tot=              0.0000
 Quadrupole moment (field-independent basis, Debye-Ang):
   XX=             -9.8511   YY=             -9.8511   ZZ=            -10.5128
   XY=              0.0000   XZ=              0.0000   YZ=             -0.0000
 Traceless Quadrupole moment (field-independent basis, Debye-Ang):
   XX=              0.2206   YY=              0.2206   ZZ=             -0.4411
   XY=              0.0000   XZ=              0.0000   YZ=             -0.0000
 Octapole moment (field-independent basis, Debye-Ang**2):
  XXX=             -0.0000  YYY=             -0.0000  ZZZ=              0.0000  XYY=             -0.0000
  XXY=             -0.0000  XXZ=              0.0000  XZZ=             -0.0000  YZZ=             -0.0000
  YYZ=              0.0000  XYZ=             -0.0000
 Hexadecapole moment (field-independent basis, Debye-Ang**3):
 XXXX=             -6.4102 YYYY=             -6.4102 ZZZZ=            -28.8199 XXXY=              0.0000
 XXXZ=              0.0000 YYYX=              0.0000 YYYZ=             -0.0000 ZZZX=             -0.0000
 ZZZY=              0.0000 XXYY=             -2.1367 XXZZ=             -6.0812 YYZZ=             -6.0812
 XXYZ=             -0.0000 YYXZ=              0.0000 ZZXY=              0.0000
 N-N= 2.748972524260D+01 E-N=-4.098118834432D+02  KE= 1.493408571797D+02
 Symmetry AG   KE= 6.938904000557D+01
 Symmetry B1G  KE= 1.925473876563D-04
 Symmetry B2G  KE= 3.010564028910D+00
 Symmetry B3G  KE= 3.010564028910D+00
 Symmetry AU   KE= 3.962214881859D-04
 Symmetry B1U  KE= 6.488484286374D+01
 Symmetry B2U  KE= 4.522628741855D+00
 Symmetry B3U  KE= 4.522628741855D+00
 Symmetry AG   SP= 7.541494552890D-16
 Symmetry B1G  SP= 5.067679584704D-19
 Symmetry B2G  SP=-5.641037533082D-16
 Symmetry B3G  SP= 7.459578852251D-16
 Symmetry AU   SP=-1.706689821567D-18
 Symmetry B1U  SP=-2.520144604208D-16
 Symmetry B2U  SP= 4.551931798623D-17
 Symmetry B3U  SP= 7.833549151501D-17
                          Isotropic Fermi Contact Couplings
        Atom                 a.u.       MegaHertz       Gauss      10(-4) cm-1
     1  O(17)             -0.00000       0.00000       0.00000       0.00000
     2  O(17)              0.00000      -0.00000      -0.00000      -0.00000
 --------------------------------------------------------
       Center         ----  Spin Dipole Couplings  ----
                      3XX-RR        3YY-RR        3ZZ-RR
 --------------------------------------------------------
     1   Atom        0.000000      0.000000     -0.000000
     2   Atom       -0.000000     -0.000000      0.000000
 --------------------------------------------------------
                        XY            XZ            YZ
 --------------------------------------------------------
     1   Atom        3.581967     -0.000000     -0.000000
     2   Atom        3.581967      0.000000      0.000000
 --------------------------------------------------------


 ---------------------------------------------------------------------------------
              Anisotropic Spin Dipole Couplings in Principal Axis System
 ---------------------------------------------------------------------------------

       Atom             a.u.   MegaHertz   Gauss  10(-4) cm-1        Axes

              Baa    -3.5820   259.189    92.485    86.456  0.7071 -0.7071 -0.0000
     1 O(17)  Bbb    -0.0000     0.000     0.000     0.000  0.0000  0.0000  1.0000
              Bcc     3.5820  -259.189   -92.485   -86.456  0.7071  0.7071 -0.0000
 
              Baa    -3.5820   259.189    92.485    86.456  0.7071 -0.7071  0.0000
     2 O(17)  Bbb     0.0000    -0.000    -0.000    -0.000 -0.0000 -0.0000  1.0000
              Bcc     3.5820  -259.189   -92.485   -86.456  0.7071  0.7071  0.0000
 

 ---------------------------------------------------------------------------------



 YOU CAN WIPE THE SLATE CLEAN, BUT YOU'LL STILL
 HAVE TO EAT A LITTLE CHALK DUST.
 Error termination request processed by link 9999.
 Error termination via Lnk1e in /home/users/astar/bmsi/zhangx5/programs/g16/l9999.exe at Mon Aug 25 19:40:34 2025.
 Job cpu time:       0 days  0 hours 18 minutes 53.7 seconds.
 Elapsed time:       0 days  0 hours  0 minutes 22.1 seconds.
 File lengths (MBytes):  RWF=      6 Int=      0 D2E=      0 Chk=      1 Scr=      1
