 Entering Gaussian System, Link 0=g09
 Initial command:
 /usr/local/gaussian/g09/l1.exe "/scratch/779812.1.multiway.q/Gau-24692.inp" -scrdir="/scratch/779812.1.multiway.q/"
 Entering Link 1 = /usr/local/gaussian/g09/l1.exe PID=     24693.
  
 Copyright (c) 1988,1990,1992,1993,1995,1998,2003,2009,2013,
            Gaussian, Inc.  All Rights Reserved.
  
 This is part of the Gaussian(R) 09 program.  It is based on
 the Gaussian(R) 03 system (copyright 2003, Gaussian, Inc.),
 the Gaussian(R) 98 system (copyright 1998, Gaussian, Inc.),
 the Gaussian(R) 94 system (copyright 1995, Gaussian, Inc.),
 the Gaussian 92(TM) system (copyright 1992, Gaussian, Inc.),
 the Gaussian 90(TM) system (copyright 1990, Gaussian, Inc.),
 the Gaussian 88(TM) system (copyright 1988, Gaussian, Inc.),
 the Gaussian 86(TM) system (copyright 1986, Carnegie Mellon
 University), and the Gaussian 82(TM) system (copyright 1983,
 Carnegie Mellon University). Gaussian is a federally registered
 trademark of Gaussian, Inc.
  
 This software contains proprietary and confidential information,
 including trade secrets, belonging to Gaussian, Inc.
  
 This software is provided under written license and may be
 used, copied, transmitted, or stored only in accord with that
 written license.
  
 The following legend is applicable only to US Government
 contracts under FAR:
  
                    RESTRICTED RIGHTS LEGEND
  
 Use, reproduction and disclosure by the US Government is
 subject to restrictions as set forth in subparagraphs (a)
 and (c) of the Commercial Computer Software - Restricted
 Rights clause in FAR 52.227-19.
  
 Gaussian, Inc.
 340 Quinnipiac St., Bldg. 40, Wallingford CT 06492
  
  
 ---------------------------------------------------------------
 Warning -- This program may not be used in any manner that
 competes with the business of Gaussian, Inc. or will provide
 assistance to any competitor of Gaussian, Inc.  The licensee
 of this program is prohibited from giving any competitor of
 Gaussian, Inc. access to this program.  By using this program,
 the user acknowledges that Gaussian, Inc. is engaged in the
 business of creating and licensing software in the field of
 computational chemistry and represents and warrants to the
 licensee that it is not a competitor of Gaussian, Inc. and that
 it will not use this program in any manner prohibited above.
 ---------------------------------------------------------------
  

 Cite this work as:
 Gaussian 09, Revision D.01,
 M. J. Frisch, G. W. Trucks, H. B. Schlegel, G. E. Scuseria, 
 M. A. Robb, J. R. Cheeseman, G. Scalmani, V. Barone, B. Mennucci, 
 G. A. Petersson, H. Nakatsuji, M. Caricato, X. Li, H. P. Hratchian, 
 A. F. Izmaylov, J. Bloino, G. Zheng, J. L. Sonnenberg, M. Hada, 
 M. Ehara, K. Toyota, R. Fukuda, J. Hasegawa, M. Ishida, T. Nakajima, 
 Y. Honda, O. Kitao, H. Nakai, T. Vreven, J. A. Montgomery, Jr., 
 J. E. Peralta, F. Ogliaro, M. Bearpark, J. J. Heyd, E. Brothers, 
 K. N. Kudin, V. N. Staroverov, T. Keith, R. Kobayashi, J. Normand, 
 K. Raghavachari, A. Rendell, J. C. Burant, S. S. Iyengar, J. Tomasi, 
 M. Cossi, N. Rega, J. M. Millam, M. Klene, J. E. Knox, J. B. Cross, 
 V. Bakken, C. Adamo, J. Jaramillo, R. Gomperts, R. E. Stratmann, 
 O. Yazyev, A. J. Austin, R. Cammi, C. Pomelli, J. W. Ochterski, 
 R. L. Martin, K. Morokuma, V. G. Zakrzewski, G. A. Voth, 
 P. Salvador, J. J. Dannenberg, S. Dapprich, A. D. Daniels, 
 O. Farkas, J. B. Foresman, J. V. Ortiz, J. Cioslowski, 
 and D. J. Fox, Gaussian, Inc., Wallingford CT, 2013.
 
 ******************************************
 Gaussian 09:  ES64L-G09RevD.01 24-Apr-2013
                 6-Jul-2017 
 ******************************************
 %chk=pida_m062x_opt_n_LanL2DZ_vol.chk
 %mem=2GB
 %nprocshared=16
 Will use up to   16 processors via shared memory.
 ----------------------
 # um062x/genecp volume
 ----------------------
 1/38=1/1;
 2/12=2,17=6,18=5,40=1/2;
 3/5=7,11=2,16=1,17=8,25=1,30=1,74=-55,116=2/1,2,3;
 4//1;
 5/5=2,38=5/2;
 6/7=2,8=2,9=2,10=2,28=1,44=1/1,4;
 99/5=1,9=1/99;
 ------------------------
 pida_m062x_opt_n_LanL2DZ
 ------------------------
 Symbolic Z-matrix:
 Charge =  0 Multiplicity = 1
 I                    -0.00216   0.63163  -0.00055 
 O                     2.10933   0.30868   0.09834 
 O                     2.14032   2.53393   0.10598 
 O                    -2.11177   0.2954   -0.09948 
 O                    -2.15602   2.52036  -0.10408 
 C                     0.00478  -1.49495  -0.00038 
 C                     0.97641  -2.16172  -0.73358 
 H                     1.73313  -1.61089  -1.27855 
 C                     0.97286  -3.55472  -0.72741 
 H                     1.72587  -4.09044  -1.29624 
 C                     0.01408  -4.25301   0.00073 
 H                     0.01782  -5.33823   0.00122 
 C                    -0.94945  -3.56064   0.72825 
 H                    -1.69876  -4.10097   1.29762 
 C                    -0.96238  -2.16768   0.73327 
 H                    -1.72284  -1.62142   1.27765 
 C                     2.73278   1.46941   0.12712 
 C                     4.23672   1.34136   0.18476 
 H                     4.68594   2.33227   0.23684 
 H                     4.59144   0.81348  -0.70419 
 H                     4.52087   0.74877   1.05744 
 C                    -2.74217   1.45236  -0.12635 
 C                    -4.24534   1.31531  -0.18347 
 H                    -4.52641   0.72439  -1.05829 
 H                    -4.70072   2.30363  -0.23152 
 H                    -4.59623   0.78171   0.70358 
 
                          Input orientation:                          
 ---------------------------------------------------------------------
 Center     Atomic      Atomic             Coordinates (Angstroms)
 Number     Number       Type             X           Y           Z
 ---------------------------------------------------------------------
      1         53           0       -0.002164    0.631628   -0.000554
      2          8           0        2.109332    0.308679    0.098339
      3          8           0        2.140315    2.533932    0.105978
      4          8           0       -2.111773    0.295404   -0.099480
      5          8           0       -2.156018    2.520357   -0.104076
      6          6           0        0.004779   -1.494947   -0.000380
      7          6           0        0.976406   -2.161715   -0.733582
      8          1           0        1.733129   -1.610889   -1.278554
      9          6           0        0.972860   -3.554717   -0.727405
     10          1           0        1.725872   -4.090444   -1.296240
     11          6           0        0.014082   -4.253010    0.000731
     12          1           0        0.017820   -5.338228    0.001223
     13          6           0       -0.949449   -3.560635    0.728251
     14          1           0       -1.698755   -4.100972    1.297624
     15          6           0       -0.962377   -2.167679    0.733272
     16          1           0       -1.722840   -1.621419    1.277652
     17          6           0        2.732775    1.469414    0.127119
     18          6           0        4.236717    1.341355    0.184759
     19          1           0        4.685938    2.332274    0.236842
     20          1           0        4.591440    0.813477   -0.704193
     21          1           0        4.520872    0.748771    1.057442
     22          6           0       -2.742169    1.452360   -0.126351
     23          6           0       -4.245343    1.315310   -0.183466
     24          1           0       -4.526405    0.724392   -1.058293
     25          1           0       -4.700716    2.303634   -0.231520
     26          1           0       -4.596227    0.781708    0.703578
 ---------------------------------------------------------------------
                    Distance matrix (angstroms):
                    1          2          3          4          5
     1  I    0.000000
     2  O    2.138338   0.000000
     3  O    2.867111   2.225482   0.000000
     4  O    2.138524   4.225759   4.809727   0.000000
     5  O    2.866549   4.808919   4.301486   2.225398   0.000000
     6  C    2.126586   2.773437   4.561106   2.773981   4.560972
     7  C    3.049212   2.842263   4.910056   3.997045   5.668347
     8  H    3.110210   2.392092   4.388880   4.450555   5.794140
     9  C    4.359412   4.110870   6.255328   4.973196   6.861847
    10  H    5.192579   4.630786   6.783829   5.949405   7.758416
    11  C    4.884665   5.020817   7.112983   5.021690   7.113285
    12  H    5.969890   6.022575   8.153948   6.023547   8.154386
    13  C    4.359309   4.972376   6.861313   4.111590   6.255161
    14  H    5.192417   5.948515   7.757605   4.631480   6.783498
    15  C    3.049037   3.996359   5.667922   2.842774   4.909543
    16  H    3.109784   4.449899   5.793421   2.392064   4.387610
    17  C    2.863228   1.317883   1.218464   4.989919   5.005820
    18  C    4.301879   2.366359   2.413161   6.440352   6.506960
    19  H    4.992680   3.279180   2.556949   7.104282   6.853026
    20  H    4.650739   2.657017   3.102315   6.750344   6.985826
    21  H    4.646604   2.632315   3.123961   6.748036   7.004891
    22  C    2.863050   4.989544   5.006239   1.317827   1.218477
    23  C    4.301796   6.440079   6.507338   2.366302   2.413238
    24  H    4.647168   6.748601   7.005363   2.633211   3.123260
    25  H    4.992528   7.103901   6.853222   3.279184   2.557088
    26  H    4.650133   6.749414   6.986302   2.655919   3.103196
                    6          7          8          9         10
     6  C    0.000000
     7  C    1.387885   0.000000
     8  H    2.152758   1.083067   0.000000
     9  C    2.389226   1.393020   2.158759   0.000000
    10  H    3.373132   2.144360   2.479629   1.085175   0.000000
    11  C    2.758079   2.416360   3.401837   1.391780   2.153784
    12  H    3.843303   3.398391   4.298043   2.150328   2.481495
    13  C    2.389251   2.793358   3.876210   2.411274   3.396558
    14  H    3.373160   3.878531   4.961354   3.396566   4.296081
    15  C    1.387878   2.431168   3.409283   2.793312   3.878483
    16  H    2.152679   3.409239   4.298607   3.876170   4.961312
    17  C    4.030590   4.124407   3.530365   5.391605   5.826819
    18  C    5.097861   4.872831   4.138234   5.954522   6.164588
    19  H    6.051210   5.907477   5.154031   7.026620   7.236272
    20  H    5.182821   4.681998   3.791752   5.672370   5.710555
    21  H    5.152509   4.923610   4.335480   5.856114   6.063814
    22  C    4.030907   5.220926   5.544309   6.263667   7.214895
    23  C    5.098490   6.297539   6.745664   7.158399   8.131165
    24  H    5.155218   6.222217   6.684596   6.975828   7.894950
    25  H    6.051804   7.240243   7.603560   8.170413   9.127918
    26  H    5.181503   6.464009   7.050824   7.201876   8.228370
                   11         12         13         14         15
    11  C    0.000000
    12  H    1.085225   0.000000
    13  C    1.391783   2.150353   0.000000
    14  H    2.153801   2.481549   1.085177   0.000000
    15  C    2.416339   3.398391   1.393025   2.144380   0.000000
    16  H    3.401867   4.298120   2.158827   2.479750   1.083076
    17  C    6.336671   7.330131   6.262709   7.213719   5.220155
    18  C    7.011521   7.902506   7.156899   8.129405   6.296409
    19  H    8.077620   8.982396   8.168564   9.125580   7.238749
    20  H    6.864285   7.697992   7.203208   8.229559   6.465174
    21  H    6.815101   7.644909   6.971640   7.890593   6.219066
    22  C    6.337532   7.331160   5.392060   5.827170   4.124475
    23  C    7.013046   7.904318   5.955584   6.165618   4.873345
    24  H    6.819977   7.650354   5.860700   6.068780   4.927076
    25  H    8.079161   8.984253   7.027291   7.236645   5.907507
    26  H    6.862749   7.696515   5.670586   5.708660   4.680238
                   16         17         18         19         20
    16  H    0.000000
    17  C    5.543418   0.000000
    18  C    6.744536   1.510484   0.000000
    19  H    7.601803   2.138086   1.089235   0.000000
    20  H    7.051706   2.139151   1.093032   1.789196   0.000000
    21  H    6.682083   2.140588   1.092463   1.791121   1.764235
    22  C    3.529642   5.480835   6.986699   7.488854   7.384030
    23  C    4.137906   6.986726   8.490089   8.998814   8.866325
    24  H    4.338138   7.392966   8.872324   9.440865   9.125153
    25  H    5.152804   7.488747   8.998721   9.398375   9.422746
    26  H    3.789582   7.383733   8.865849   9.422350   9.294948
                   21         22         23         24         25
    21  H    0.000000
    22  C    7.392440   0.000000
    23  C    8.871716   1.510489   0.000000
    24  H    9.291402   2.140549   1.092475   0.000000
    25  H    9.440165   2.138138   1.089247   1.791073   0.000000
    26  H    9.124023   2.139179   1.093022   1.764185   1.789297
                   26
    26  H    0.000000
 Stoichiometry    C10H11IO4
 Framework group  C1[X(C10H11IO4)]
 Deg. of freedom    72
 Full point group                 C1      NOp   1
 Largest Abelian subgroup         C1      NOp   1
 Largest concise Abelian subgroup C1      NOp   1
                         Standard orientation:                         
 ---------------------------------------------------------------------
 Center     Atomic      Atomic             Coordinates (Angstroms)
 Number     Number       Type             X           Y           Z
 ---------------------------------------------------------------------
      1         53           0        0.002165   -0.631628   -0.000554
      2          8           0       -2.109332   -0.308683    0.098339
      3          8           0       -2.140310   -2.533936    0.105978
      4          8           0        2.111773   -0.295400   -0.099480
      5          8           0        2.156023   -2.520353   -0.104076
      6          6           0       -0.004782    1.494947   -0.000380
      7          6           0       -0.976410    2.161713   -0.733582
      8          1           0       -1.733132    1.610886   -1.278554
      9          6           0       -0.972867    3.554715   -0.727405
     10          1           0       -1.725880    4.090441   -1.296240
     11          6           0       -0.014090    4.253010    0.000731
     12          1           0       -0.017830    5.338228    0.001223
     13          6           0        0.949442    3.560637    0.728251
     14          1           0        1.698747    4.100975    1.297624
     15          6           0        0.962373    2.167681    0.733272
     16          1           0        1.722837    1.621422    1.277652
     17          6           0       -2.732772   -1.469419    0.127119
     18          6           0       -4.236715   -1.341363    0.184759
     19          1           0       -4.685934   -2.332283    0.236842
     20          1           0       -4.591439   -0.813486   -0.704193
     21          1           0       -4.520871   -0.748780    1.057442
     22          6           0        2.742172   -1.452355   -0.126351
     23          6           0        4.245345   -1.315302   -0.183466
     24          1           0        4.526406   -0.724384   -1.058293
     25          1           0        4.700720   -2.303625   -0.231520
     26          1           0        4.596228   -0.781699    0.703578
 ---------------------------------------------------------------------
 Rotational constants (GHZ):      0.4496188      0.4478158      0.2320904
 General basis read from cards:  (5D, 7F)
 ======================================================================================================
                                       Pseudopotential Parameters
 ======================================================================================================
  Center     Atomic      Valence      Angular      Power
  Number     Number     Electrons     Momentum     of R      Exponent        Coefficient   SO-Coeffient
 ======================================================================================================
    1         53            7
                                      F and up 
                                                     0        1.0715702       -0.07476210    0.00000000
                                                     1       44.1936028      -30.08112240    0.00000000
                                                     2       12.9367609      -75.37227210    0.00000000
                                                     2        3.1956412      -22.05637580    0.00000000
                                                     2        0.8589806       -1.69795850    0.00000000
                                      S - F
                                                     0      127.9202670        2.93800360    0.00000000
                                                     1       78.6211465       41.24712670    0.00000000
                                                     2       36.5146237      287.86800950    0.00000000
                                                     2        9.9065681      114.37585060    0.00000000
                                                     2        1.9420086       37.65477140    0.00000000
                                      P - F
                                                     0       13.0035304        2.22226300    0.00000000
                                                     1       76.0331404       39.40908310    0.00000000
                                                     2       24.1961684      177.40750020    0.00000000
                                                     2        6.4053433       77.98894620    0.00000000
                                                     2        1.5851786       25.75476410    0.00000000
                                      D - F
                                                     0       40.4278108        7.05243600    0.00000000
                                                     1       28.9084375       33.30416350    0.00000000
                                                     2       15.6268936      186.94538750    0.00000000
                                                     2        4.1442856       71.96883610    0.00000000
                                                     2        0.9377235        9.36306570    0.00000000
    2          8
                                   No pseudopotential on this center.
    3          8
                                   No pseudopotential on this center.
    4          8
                                   No pseudopotential on this center.
    5          8
                                   No pseudopotential on this center.
    6          6
                                   No pseudopotential on this center.
    7          6
                                   No pseudopotential on this center.
    8          1
                                   No pseudopotential on this center.
    9          6
                                   No pseudopotential on this center.
   10          1
                                   No pseudopotential on this center.
   11          6
                                   No pseudopotential on this center.
   12          1
                                   No pseudopotential on this center.
   13          6
                                   No pseudopotential on this center.
   14          1
                                   No pseudopotential on this center.
   15          6
                                   No pseudopotential on this center.
   16          1
                                   No pseudopotential on this center.
   17          6
                                   No pseudopotential on this center.
   18          6
                                   No pseudopotential on this center.
   19          1
                                   No pseudopotential on this center.
   20          1
                                   No pseudopotential on this center.
   21          1
                                   No pseudopotential on this center.
   22          6
                                   No pseudopotential on this center.
   23          6
                                   No pseudopotential on this center.
   24          1
                                   No pseudopotential on this center.
   25          1
                                   No pseudopotential on this center.
   26          1
                                   No pseudopotential on this center.
 ======================================================================================================
 There are   240 symmetry adapted cartesian basis functions of A   symmetry.
 There are   226 symmetry adapted basis functions of A   symmetry.
   226 basis functions,   448 primitive gaussians,   240 cartesian basis functions
    55 alpha electrons       55 beta electrons
       nuclear repulsion energy       898.7150314894 Hartrees.



 Warning!  I  atom    1 may be hypervalent but has no d functions.



 NAtoms=   26 NActive=   26 NUniq=   26 SFac= 1.00D+00 NAtFMM=   60 NAOKFM=F Big=F
 Integral buffers will be    131072 words long.
 Raffenetti 2 integral format.
 Two-electron integral symmetry is turned on.
 One-electron integrals computed using PRISM.
   1 Symmetry operations used in ECPInt.
 ECPInt:  NShTT=    3403 NPrTT=   21197 LenC2=    2943 LenP2D=   11019.
 LDataN:  DoStor=T MaxTD1= 5 Len=  102
 NBasis=   226 RedAO= T EigKep=  5.16D-04  NBF=   226
 NBsUse=   226 1.00D-06 EigRej= -1.00D+00 NBFU=   226
 Defaulting to unpruned grid for atomic number  53.
 ExpMin= 1.05D-01 ExpMax= 5.48D+03 ExpMxC= 8.25D+02 IAcc=1 IRadAn=         1 AccDes= 0.00D+00
 Harris functional with IExCor= 1009 and IRadAn=       1 diagonalized for initial guess.
 HarFok:  IExCor= 1009 AccDes= 0.00D+00 IRadAn=         1 IDoV= 1 UseB2=F ITyADJ=14
 ICtDFT=  3500011 ScaDFX=  1.000000  1.000000  1.000000  1.000000
 Defaulting to unpruned grid for atomic number  53.
 Defaulting to unpruned grid for atomic number  53.
 Defaulting to unpruned grid for atomic number  53.
 Defaulting to unpruned grid for atomic number  53.
 Defaulting to unpruned grid for atomic number  53.
 Defaulting to unpruned grid for atomic number  53.
 Defaulting to unpruned grid for atomic number  53.
 Defaulting to unpruned grid for atomic number  53.
 Defaulting to unpruned grid for atomic number  53.
 Defaulting to unpruned grid for atomic number  53.
 Defaulting to unpruned grid for atomic number  53.
 Defaulting to unpruned grid for atomic number  53.
 Defaulting to unpruned grid for atomic number  53.
 Defaulting to unpruned grid for atomic number  53.
 Defaulting to unpruned grid for atomic number  53.
 Defaulting to unpruned grid for atomic number  53.
 FoFCou: FMM=F IPFlag=           0 FMFlag=      100000 FMFlg1=           0
         NFxFlg=           0 DoJE=T BraDBF=F KetDBF=T FulRan=T
         wScrn=  0.000000 ICntrl=     500 IOpCl=  0 I1Cent=   200000004 NGrid=           0
         NMat0=    1 NMatS0=      1 NMatT0=    0 NMatD0=    1 NMtDS0=    0 NMtDT0=    0
 Petite list used in FoFCou.
 Initial guess <Sx>= 0.0000 <Sy>= 0.0000 <Sz>= 0.0000 <S**2>= 0.0000 S= 0.0000
 Requested convergence on RMS density matrix=1.00D-08 within 128 cycles.
 Requested convergence on MAX density matrix=1.00D-06.
 Requested convergence on             energy=1.00D-06.
 No special actions if energy rises.
 Integral accuracy reduced to 1.0D-05 until final iterations.
 Defaulting to unpruned grid for atomic number  53.
 Defaulting to unpruned grid for atomic number  53.
 Defaulting to unpruned grid for atomic number  53.
 Defaulting to unpruned grid for atomic number  53.
 Defaulting to unpruned grid for atomic number  53.
 Defaulting to unpruned grid for atomic number  53.
 Defaulting to unpruned grid for atomic number  53.
 Defaulting to unpruned grid for atomic number  53.
 Defaulting to unpruned grid for atomic number  53.
 Defaulting to unpruned grid for atomic number  53.
 Defaulting to unpruned grid for atomic number  53.
 Defaulting to unpruned grid for atomic number  53.
 Defaulting to unpruned grid for atomic number  53.
 Defaulting to unpruned grid for atomic number  53.
 Defaulting to unpruned grid for atomic number  53.
 Defaulting to unpruned grid for atomic number  53.
 Initial convergence to 1.0D-05 achieved.  Increase integral accuracy.
 SCF Done:  E(UM062X) =  -699.559041180     A.U. after   17 cycles
            NFock= 17  Conv=0.55D-08     -V/T= 2.0179
 <Sx>= 0.0000 <Sy>= 0.0000 <Sz>= 0.0000 <S**2>= 0.0000 S= 0.0000
 <L.S>= 0.000000000000E+00
 Annihilation of the first spin contaminant:
 S**2 before annihilation     0.0000,   after     0.0000

 **********************************************************************

            Population analysis using the SCF density.

 **********************************************************************

 Orbital symmetries:
 Alpha Orbitals:
       Occupied  (A) (A) (A) (A) (A) (A) (A) (A) (A) (A) (A) (A)
                 (A) (A) (A) (A) (A) (A) (A) (A) (A) (A) (A) (A)
                 (A) (A) (A) (A) (A) (A) (A) (A) (A) (A) (A) (A)
                 (A) (A) (A) (A) (A) (A) (A) (A) (A) (A) (A) (A)
                 (A) (A) (A) (A) (A) (A) (A)
       Virtual   (A) (A) (A) (A) (A) (A) (A) (A) (A) (A) (A) (A)
                 (A) (A) (A) (A) (A) (A) (A) (A) (A) (A) (A) (A)
                 (A) (A) (A) (A) (A) (A) (A) (A) (A) (A) (A) (A)
                 (A) (A) (A) (A) (A) (A) (A) (A) (A) (A) (A) (A)
                 (A) (A) (A) (A) (A) (A) (A) (A) (A) (A) (A) (A)
                 (A) (A) (A) (A) (A) (A) (A) (A) (A) (A) (A) (A)
                 (A) (A) (A) (A) (A) (A) (A) (A) (A) (A) (A) (A)
                 (A) (A) (A) (A) (A) (A) (A) (A) (A) (A) (A) (A)
                 (A) (A) (A) (A) (A) (A) (A) (A) (A) (A) (A) (A)
                 (A) (A) (A) (A) (A) (A) (A) (A) (A) (A) (A) (A)
                 (A) (A) (A) (A) (A) (A) (A) (A) (A) (A) (A) (A)
                 (A) (A) (A) (A) (A) (A) (A) (A) (A) (A) (A) (A)
                 (A) (A) (A) (A) (A) (A) (A) (A) (A) (A) (A) (A)
                 (A) (A) (A) (A) (A) (A) (A) (A) (A) (A) (A) (A)
                 (A) (A) (A)
 Beta  Orbitals:
       Occupied  (A) (A) (A) (A) (A) (A) (A) (A) (A) (A) (A) (A)
                 (A) (A) (A) (A) (A) (A) (A) (A) (A) (A) (A) (A)
                 (A) (A) (A) (A) (A) (A) (A) (A) (A) (A) (A) (A)
                 (A) (A) (A) (A) (A) (A) (A) (A) (A) (A) (A) (A)
                 (A) (A) (A) (A) (A) (A) (A)
       Virtual   (A) (A) (A) (A) (A) (A) (A) (A) (A) (A) (A) (A)
                 (A) (A) (A) (A) (A) (A) (A) (A) (A) (A) (A) (A)
                 (A) (A) (A) (A) (A) (A) (A) (A) (A) (A) (A) (A)
                 (A) (A) (A) (A) (A) (A) (A) (A) (A) (A) (A) (A)
                 (A) (A) (A) (A) (A) (A) (A) (A) (A) (A) (A) (A)
                 (A) (A) (A) (A) (A) (A) (A) (A) (A) (A) (A) (A)
                 (A) (A) (A) (A) (A) (A) (A) (A) (A) (A) (A) (A)
                 (A) (A) (A) (A) (A) (A) (A) (A) (A) (A) (A) (A)
                 (A) (A) (A) (A) (A) (A) (A) (A) (A) (A) (A) (A)
                 (A) (A) (A) (A) (A) (A) (A) (A) (A) (A) (A) (A)
                 (A) (A) (A) (A) (A) (A) (A) (A) (A) (A) (A) (A)
                 (A) (A) (A) (A) (A) (A) (A) (A) (A) (A) (A) (A)
                 (A) (A) (A) (A) (A) (A) (A) (A) (A) (A) (A) (A)
                 (A) (A) (A) (A) (A) (A) (A) (A) (A) (A) (A) (A)
                 (A) (A) (A)
 The electronic state is 1-A.
 Alpha  occ. eigenvalues --  -19.65527 -19.65526 -19.61429 -19.61429 -10.66640
 Alpha  occ. eigenvalues --  -10.66640 -10.61126 -10.57373 -10.57372 -10.56825
 Alpha  occ. eigenvalues --  -10.56798 -10.56713 -10.54044 -10.54044  -1.20244
 Alpha  occ. eigenvalues --   -1.20066  -1.10175  -1.09936  -0.98530  -0.88930
 Alpha  occ. eigenvalues --   -0.86505  -0.84101  -0.83450  -0.80020  -0.71356
 Alpha  occ. eigenvalues --   -0.69085  -0.64757  -0.61628  -0.60532  -0.55479
 Alpha  occ. eigenvalues --   -0.55204  -0.54730  -0.54247  -0.54030  -0.53459
 Alpha  occ. eigenvalues --   -0.53227  -0.52132  -0.50790  -0.48440  -0.47070
 Alpha  occ. eigenvalues --   -0.46231  -0.46194  -0.45371  -0.44883  -0.43993
 Alpha  occ. eigenvalues --   -0.42500  -0.40966  -0.39157  -0.36535  -0.35272
 Alpha  occ. eigenvalues --   -0.34776  -0.33740  -0.32479  -0.32077  -0.31582
 Alpha virt. eigenvalues --   -0.01519   0.00058   0.01598   0.01725   0.07596
 Alpha virt. eigenvalues --    0.07781   0.13738   0.16287   0.16469   0.18197
 Alpha virt. eigenvalues --    0.19048   0.19987   0.21305   0.21321   0.22204
 Alpha virt. eigenvalues --    0.22246   0.23102   0.23167   0.27373   0.27419
 Alpha virt. eigenvalues --    0.30591   0.31439   0.32868   0.33455   0.35786
 Alpha virt. eigenvalues --    0.36805   0.39389   0.39403   0.40164   0.46022
 Alpha virt. eigenvalues --    0.50436   0.51980   0.55546   0.56606   0.58104
 Alpha virt. eigenvalues --    0.58906   0.60272   0.61241   0.61802   0.61888
 Alpha virt. eigenvalues --    0.62845   0.63427   0.63833   0.64657   0.65076
 Alpha virt. eigenvalues --    0.65836   0.65981   0.65993   0.66899   0.67555
 Alpha virt. eigenvalues --    0.69129   0.69768   0.70124   0.71862   0.73132
 Alpha virt. eigenvalues --    0.75131   0.76968   0.84137   0.85873   0.89143
 Alpha virt. eigenvalues --    0.89374   0.90213   0.90218   0.91724   0.91843
 Alpha virt. eigenvalues --    0.93875   0.94002   0.95363   0.96265   0.97536
 Alpha virt. eigenvalues --    0.98096   0.99124   1.00395   1.00613   1.02060
 Alpha virt. eigenvalues --    1.02122   1.03708   1.06953   1.09180   1.10917
 Alpha virt. eigenvalues --    1.11734   1.13913   1.14181   1.15739   1.17944
 Alpha virt. eigenvalues --    1.18980   1.19802   1.22129   1.23590   1.26493
 Alpha virt. eigenvalues --    1.26699   1.28146   1.33615   1.37168   1.41862
 Alpha virt. eigenvalues --    1.43958   1.45013   1.46284   1.48426   1.49463
 Alpha virt. eigenvalues --    1.50591   1.50624   1.52485   1.54183   1.54331
 Alpha virt. eigenvalues --    1.65808   1.66214   1.70525   1.73044   1.73793
 Alpha virt. eigenvalues --    1.78610   1.80849   1.81365   1.81520   1.82363
 Alpha virt. eigenvalues --    1.82423   1.84879   1.87037   1.87348   1.87500
 Alpha virt. eigenvalues --    1.90598   1.92183   1.94105   1.94248   1.94809
 Alpha virt. eigenvalues --    1.99031   2.01903   2.02102   2.03336   2.05288
 Alpha virt. eigenvalues --    2.05540   2.09667   2.11543   2.13558   2.15239
 Alpha virt. eigenvalues --    2.15628   2.16798   2.16830   2.16995   2.26741
 Alpha virt. eigenvalues --    2.26909   2.29033   2.29265   2.30867   2.31607
 Alpha virt. eigenvalues --    2.34124   2.46871   2.47354   2.51461   2.51822
 Alpha virt. eigenvalues --    2.53391   2.57047   2.65530   2.66583   2.70609
 Alpha virt. eigenvalues --    2.70812   2.71035   2.74667   2.75353   2.76755
 Alpha virt. eigenvalues --    2.81715   2.82049   2.90070   2.91280   3.01583
 Alpha virt. eigenvalues --    3.01641   3.02678   3.12881   3.13639   3.37092
 Alpha virt. eigenvalues --   11.11415
  Beta  occ. eigenvalues --  -19.65527 -19.65526 -19.61429 -19.61429 -10.66640
  Beta  occ. eigenvalues --  -10.66640 -10.61126 -10.57373 -10.57372 -10.56825
  Beta  occ. eigenvalues --  -10.56798 -10.56713 -10.54044 -10.54044  -1.20244
  Beta  occ. eigenvalues --   -1.20066  -1.10175  -1.09936  -0.98530  -0.88930
  Beta  occ. eigenvalues --   -0.86505  -0.84101  -0.83450  -0.80020  -0.71356
  Beta  occ. eigenvalues --   -0.69085  -0.64757  -0.61628  -0.60532  -0.55479
  Beta  occ. eigenvalues --   -0.55204  -0.54730  -0.54247  -0.54030  -0.53459
  Beta  occ. eigenvalues --   -0.53227  -0.52132  -0.50790  -0.48440  -0.47070
  Beta  occ. eigenvalues --   -0.46231  -0.46194  -0.45371  -0.44883  -0.43993
  Beta  occ. eigenvalues --   -0.42500  -0.40966  -0.39157  -0.36535  -0.35272
  Beta  occ. eigenvalues --   -0.34776  -0.33740  -0.32479  -0.32077  -0.31582
  Beta virt. eigenvalues --   -0.01519   0.00058   0.01598   0.01725   0.07596
  Beta virt. eigenvalues --    0.07781   0.13738   0.16287   0.16469   0.18197
  Beta virt. eigenvalues --    0.19048   0.19987   0.21305   0.21321   0.22204
  Beta virt. eigenvalues --    0.22246   0.23102   0.23167   0.27373   0.27419
  Beta virt. eigenvalues --    0.30591   0.31439   0.32868   0.33455   0.35786
  Beta virt. eigenvalues --    0.36805   0.39389   0.39403   0.40164   0.46022
  Beta virt. eigenvalues --    0.50436   0.51980   0.55546   0.56606   0.58104
  Beta virt. eigenvalues --    0.58906   0.60272   0.61241   0.61802   0.61888
  Beta virt. eigenvalues --    0.62845   0.63427   0.63833   0.64657   0.65076
  Beta virt. eigenvalues --    0.65836   0.65981   0.65993   0.66899   0.67555
  Beta virt. eigenvalues --    0.69129   0.69768   0.70124   0.71862   0.73132
  Beta virt. eigenvalues --    0.75131   0.76968   0.84137   0.85873   0.89143
  Beta virt. eigenvalues --    0.89374   0.90213   0.90218   0.91724   0.91843
  Beta virt. eigenvalues --    0.93875   0.94002   0.95363   0.96265   0.97536
  Beta virt. eigenvalues --    0.98096   0.99124   1.00395   1.00613   1.02060
  Beta virt. eigenvalues --    1.02122   1.03708   1.06953   1.09180   1.10917
  Beta virt. eigenvalues --    1.11734   1.13913   1.14181   1.15739   1.17944
  Beta virt. eigenvalues --    1.18980   1.19802   1.22129   1.23590   1.26493
  Beta virt. eigenvalues --    1.26699   1.28146   1.33615   1.37168   1.41862
  Beta virt. eigenvalues --    1.43958   1.45013   1.46284   1.48426   1.49463
  Beta virt. eigenvalues --    1.50591   1.50624   1.52485   1.54183   1.54331
  Beta virt. eigenvalues --    1.65808   1.66214   1.70525   1.73044   1.73793
  Beta virt. eigenvalues --    1.78610   1.80849   1.81365   1.81520   1.82363
  Beta virt. eigenvalues --    1.82423   1.84879   1.87037   1.87348   1.87500
  Beta virt. eigenvalues --    1.90598   1.92183   1.94105   1.94248   1.94809
  Beta virt. eigenvalues --    1.99031   2.01903   2.02102   2.03336   2.05288
  Beta virt. eigenvalues --    2.05540   2.09667   2.11543   2.13558   2.15239
  Beta virt. eigenvalues --    2.15628   2.16798   2.16830   2.16995   2.26741
  Beta virt. eigenvalues --    2.26909   2.29033   2.29265   2.30867   2.31607
  Beta virt. eigenvalues --    2.34124   2.46871   2.47354   2.51461   2.51822
  Beta virt. eigenvalues --    2.53391   2.57047   2.65530   2.66583   2.70609
  Beta virt. eigenvalues --    2.70812   2.71035   2.74667   2.75353   2.76755
  Beta virt. eigenvalues --    2.81715   2.82049   2.90070   2.91280   3.01583
  Beta virt. eigenvalues --    3.01641   3.02678   3.12881   3.13639   3.37092
  Beta virt. eigenvalues --   11.11415
          Condensed to atoms (all electrons):
               1          2          3          4          5          6
     1  I    5.678848  -0.023227   0.021193  -0.023136   0.021189   0.190086
     2  O   -0.023227   8.655019  -0.093453   0.000554   0.000016  -0.026880
     3  O    0.021193  -0.093453   8.046749   0.000016   0.000002   0.000439
     4  O   -0.023136   0.000554   0.000016   8.654823  -0.093477  -0.026871
     5  O    0.021189   0.000016   0.000002  -0.093477   8.046858   0.000439
     6  C    0.190086  -0.026880   0.000439  -0.026871   0.000439   5.556611
     7  C   -0.049054  -0.009158  -0.000009   0.000314   0.000000   0.446239
     8  H   -0.006408   0.010672   0.000019  -0.000055   0.000000  -0.042520
     9  C    0.001027   0.000241   0.000000   0.000014   0.000000  -0.000783
    10  H   -0.000157  -0.000005   0.000000   0.000000   0.000000   0.006650
    11  C    0.000655  -0.000009   0.000000  -0.000009   0.000000  -0.078889
    12  H    0.000020   0.000000   0.000000   0.000000   0.000000  -0.000115
    13  C    0.001028   0.000014   0.000000   0.000242   0.000000  -0.000776
    14  H   -0.000157   0.000000   0.000000  -0.000005   0.000000   0.006650
    15  C   -0.049134   0.000315   0.000000  -0.009137  -0.000009   0.446216
    16  H   -0.006423  -0.000055   0.000000   0.010685   0.000019  -0.042528
    17  C   -0.031988   0.305044   0.590265   0.000049  -0.000018   0.001060
    18  C    0.005244  -0.103924  -0.082559   0.000000   0.000000  -0.000065
    19  H   -0.000108   0.003510   0.003081   0.000000   0.000000   0.000000
    20  H   -0.000202   0.001797   0.001169   0.000000   0.000000  -0.000003
    21  H   -0.000182   0.001921   0.001332   0.000000   0.000000  -0.000007
    22  C   -0.032036   0.000049  -0.000018   0.305067   0.590239   0.001057
    23  C    0.005244   0.000000   0.000000  -0.103933  -0.082536  -0.000064
    24  H   -0.000182   0.000000   0.000000   0.001912   0.001324  -0.000007
    25  H   -0.000108   0.000000   0.000000   0.003510   0.003079   0.000000
    26  H   -0.000202   0.000000   0.000000   0.001804   0.001176  -0.000003
               7          8          9         10         11         12
     1  I   -0.049054  -0.006408   0.001027  -0.000157   0.000655   0.000020
     2  O   -0.009158   0.010672   0.000241  -0.000005  -0.000009   0.000000
     3  O   -0.000009   0.000019   0.000000   0.000000   0.000000   0.000000
     4  O    0.000314  -0.000055   0.000014   0.000000  -0.000009   0.000000
     5  O    0.000000   0.000000   0.000000   0.000000   0.000000   0.000000
     6  C    0.446239  -0.042520  -0.000783   0.006650  -0.078889  -0.000115
     7  C    4.887259   0.366229   0.532840  -0.042422  -0.010017   0.005038
     8  H    0.366229   0.495844  -0.028327  -0.005204   0.004477  -0.000118
     9  C    0.532840  -0.028327   4.861251   0.374460   0.536945  -0.039640
    10  H   -0.042422  -0.005204   0.374460   0.528184  -0.039936  -0.004764
    11  C   -0.010017   0.004477   0.536945  -0.039936   4.874334   0.371912
    12  H    0.005038  -0.000118  -0.039640  -0.004764   0.371912   0.529929
    13  C   -0.055004   0.000183  -0.021089   0.004247   0.536943  -0.039639
    14  H    0.000233   0.000009   0.004246  -0.000142  -0.039933  -0.004764
    15  C   -0.000108   0.004277  -0.055005   0.000233  -0.010012   0.005038
    16  H    0.004278  -0.000097   0.000183   0.000009   0.004477  -0.000118
    17  C    0.000520   0.000267  -0.000004   0.000000   0.000000   0.000000
    18  C   -0.000025  -0.000060   0.000001   0.000000   0.000000   0.000000
    19  H    0.000000   0.000001   0.000000   0.000000   0.000000   0.000000
    20  H   -0.000007   0.000099   0.000000   0.000000   0.000000   0.000000
    21  H    0.000007  -0.000009   0.000000   0.000000   0.000000   0.000000
    22  C   -0.000007   0.000001   0.000000   0.000000   0.000000   0.000000
    23  C    0.000001   0.000000   0.000000   0.000000   0.000000   0.000000
    24  H    0.000000   0.000000   0.000000   0.000000   0.000000   0.000000
    25  H    0.000000   0.000000   0.000000   0.000000   0.000000   0.000000
    26  H    0.000000   0.000000   0.000000   0.000000   0.000000   0.000000
              13         14         15         16         17         18
     1  I    0.001028  -0.000157  -0.049134  -0.006423  -0.031988   0.005244
     2  O    0.000014   0.000000   0.000315  -0.000055   0.305044  -0.103924
     3  O    0.000000   0.000000   0.000000   0.000000   0.590265  -0.082559
     4  O    0.000242  -0.000005  -0.009137   0.010685   0.000049   0.000000
     5  O    0.000000   0.000000  -0.000009   0.000019  -0.000018   0.000000
     6  C   -0.000776   0.006650   0.446216  -0.042528   0.001060  -0.000065
     7  C   -0.055004   0.000233  -0.000108   0.004278   0.000520  -0.000025
     8  H    0.000183   0.000009   0.004277  -0.000097   0.000267  -0.000060
     9  C   -0.021089   0.004246  -0.055005   0.000183  -0.000004   0.000001
    10  H    0.004247  -0.000142   0.000233   0.000009   0.000000   0.000000
    11  C    0.536943  -0.039933  -0.010012   0.004477   0.000000   0.000000
    12  H   -0.039639  -0.004764   0.005038  -0.000118   0.000000   0.000000
    13  C    4.861250   0.374459   0.532818  -0.028319   0.000000   0.000000
    14  H    0.374459   0.528180  -0.042423  -0.005202   0.000000   0.000000
    15  C    0.532818  -0.042423   4.887370   0.366218  -0.000007   0.000001
    16  H   -0.028319  -0.005202   0.366218   0.495855   0.000001   0.000000
    17  C    0.000000   0.000000  -0.000007   0.000001   4.240725   0.363113
    18  C    0.000000   0.000000   0.000001   0.000000   0.363113   5.280492
    19  H    0.000000   0.000000   0.000000   0.000000  -0.026391   0.365866
    20  H    0.000000   0.000000   0.000000   0.000000  -0.021071   0.363848
    21  H    0.000000   0.000000   0.000000   0.000000  -0.020597   0.363734
    22  C   -0.000004   0.000000   0.000519   0.000269  -0.000013   0.000000
    23  C    0.000001   0.000000  -0.000025  -0.000061   0.000000   0.000000
    24  H    0.000000   0.000000   0.000007  -0.000009   0.000000   0.000000
    25  H    0.000000   0.000000   0.000000   0.000001   0.000000   0.000000
    26  H    0.000000   0.000000  -0.000007   0.000100   0.000000   0.000000
              19         20         21         22         23         24
     1  I   -0.000108  -0.000202  -0.000182  -0.032036   0.005244  -0.000182
     2  O    0.003510   0.001797   0.001921   0.000049   0.000000   0.000000
     3  O    0.003081   0.001169   0.001332  -0.000018   0.000000   0.000000
     4  O    0.000000   0.000000   0.000000   0.305067  -0.103933   0.001912
     5  O    0.000000   0.000000   0.000000   0.590239  -0.082536   0.001324
     6  C    0.000000  -0.000003  -0.000007   0.001057  -0.000064  -0.000007
     7  C    0.000000  -0.000007   0.000007  -0.000007   0.000001   0.000000
     8  H    0.000001   0.000099  -0.000009   0.000001   0.000000   0.000000
     9  C    0.000000   0.000000   0.000000   0.000000   0.000000   0.000000
    10  H    0.000000   0.000000   0.000000   0.000000   0.000000   0.000000
    11  C    0.000000   0.000000   0.000000   0.000000   0.000000   0.000000
    12  H    0.000000   0.000000   0.000000   0.000000   0.000000   0.000000
    13  C    0.000000   0.000000   0.000000  -0.000004   0.000001   0.000000
    14  H    0.000000   0.000000   0.000000   0.000000   0.000000   0.000000
    15  C    0.000000   0.000000   0.000000   0.000519  -0.000025   0.000007
    16  H    0.000000   0.000000   0.000000   0.000269  -0.000061  -0.000009
    17  C   -0.026391  -0.021071  -0.020597  -0.000013   0.000000   0.000000
    18  C    0.365866   0.363848   0.363734   0.000000   0.000000   0.000000
    19  H    0.496915  -0.020865  -0.020812   0.000000   0.000000   0.000000
    20  H   -0.020865   0.506523  -0.022915   0.000000   0.000000   0.000000
    21  H   -0.020812  -0.022915   0.501002   0.000000   0.000000   0.000000
    22  C    0.000000   0.000000   0.000000   4.240774   0.363100  -0.020590
    23  C    0.000000   0.000000   0.000000   0.363100   5.280477   0.363766
    24  H    0.000000   0.000000   0.000000  -0.020590   0.363766   0.500939
    25  H    0.000000   0.000000   0.000000  -0.026388   0.365862  -0.020804
    26  H    0.000000   0.000000   0.000000  -0.021075   0.363821  -0.022920
              25         26
     1  I   -0.000108  -0.000202
     2  O    0.000000   0.000000
     3  O    0.000000   0.000000
     4  O    0.003510   0.001804
     5  O    0.003079   0.001176
     6  C    0.000000  -0.000003
     7  C    0.000000   0.000000
     8  H    0.000000   0.000000
     9  C    0.000000   0.000000
    10  H    0.000000   0.000000
    11  C    0.000000   0.000000
    12  H    0.000000   0.000000
    13  C    0.000000   0.000000
    14  H    0.000000   0.000000
    15  C    0.000000  -0.000007
    16  H    0.000001   0.000100
    17  C    0.000000   0.000000
    18  C    0.000000   0.000000
    19  H    0.000000   0.000000
    20  H    0.000000   0.000000
    21  H    0.000000   0.000000
    22  C   -0.026388  -0.021075
    23  C    0.365862   0.363821
    24  H   -0.020804  -0.022920
    25  H    0.496923  -0.020872
    26  H   -0.020872   0.506584
          Atomic-Atomic Spin Densities.
               1          2          3          4          5          6
     1  I    0.000000   0.000000   0.000000   0.000000   0.000000   0.000000
     2  O    0.000000   0.000000   0.000000   0.000000   0.000000   0.000000
     3  O    0.000000   0.000000   0.000000   0.000000   0.000000   0.000000
     4  O    0.000000   0.000000   0.000000   0.000000   0.000000   0.000000
     5  O    0.000000   0.000000   0.000000   0.000000   0.000000   0.000000
     6  C    0.000000   0.000000   0.000000   0.000000   0.000000   0.000000
     7  C    0.000000   0.000000   0.000000   0.000000   0.000000   0.000000
     8  H    0.000000   0.000000   0.000000   0.000000   0.000000   0.000000
     9  C    0.000000   0.000000   0.000000   0.000000   0.000000   0.000000
    10  H    0.000000   0.000000   0.000000   0.000000   0.000000   0.000000
    11  C    0.000000   0.000000   0.000000   0.000000   0.000000   0.000000
    12  H    0.000000   0.000000   0.000000   0.000000   0.000000   0.000000
    13  C    0.000000   0.000000   0.000000   0.000000   0.000000   0.000000
    14  H    0.000000   0.000000   0.000000   0.000000   0.000000   0.000000
    15  C    0.000000   0.000000   0.000000   0.000000   0.000000   0.000000
    16  H    0.000000   0.000000   0.000000   0.000000   0.000000   0.000000
    17  C    0.000000   0.000000   0.000000   0.000000   0.000000   0.000000
    18  C    0.000000   0.000000   0.000000   0.000000   0.000000   0.000000
    19  H    0.000000   0.000000   0.000000   0.000000   0.000000   0.000000
    20  H    0.000000   0.000000   0.000000   0.000000   0.000000   0.000000
    21  H    0.000000   0.000000   0.000000   0.000000   0.000000   0.000000
    22  C    0.000000   0.000000   0.000000   0.000000   0.000000   0.000000
    23  C    0.000000   0.000000   0.000000   0.000000   0.000000   0.000000
    24  H    0.000000   0.000000   0.000000   0.000000   0.000000   0.000000
    25  H    0.000000   0.000000   0.000000   0.000000   0.000000   0.000000
    26  H    0.000000   0.000000   0.000000   0.000000   0.000000   0.000000
               7          8          9         10         11         12
     1  I    0.000000   0.000000   0.000000   0.000000   0.000000   0.000000
     2  O    0.000000   0.000000   0.000000   0.000000   0.000000   0.000000
     3  O    0.000000   0.000000   0.000000   0.000000   0.000000   0.000000
     4  O    0.000000   0.000000   0.000000   0.000000   0.000000   0.000000
     5  O    0.000000   0.000000   0.000000   0.000000   0.000000   0.000000
     6  C    0.000000   0.000000   0.000000   0.000000   0.000000   0.000000
     7  C    0.000000   0.000000   0.000000   0.000000   0.000000   0.000000
     8  H    0.000000   0.000000   0.000000   0.000000   0.000000   0.000000
     9  C    0.000000   0.000000   0.000000   0.000000   0.000000   0.000000
    10  H    0.000000   0.000000   0.000000   0.000000   0.000000   0.000000
    11  C    0.000000   0.000000   0.000000   0.000000   0.000000   0.000000
    12  H    0.000000   0.000000   0.000000   0.000000   0.000000   0.000000
    13  C    0.000000   0.000000   0.000000   0.000000   0.000000   0.000000
    14  H    0.000000   0.000000   0.000000   0.000000   0.000000   0.000000
    15  C    0.000000   0.000000   0.000000   0.000000   0.000000   0.000000
    16  H    0.000000   0.000000   0.000000   0.000000   0.000000   0.000000
    17  C    0.000000   0.000000   0.000000   0.000000   0.000000   0.000000
    18  C    0.000000   0.000000   0.000000   0.000000   0.000000   0.000000
    19  H    0.000000   0.000000   0.000000   0.000000   0.000000   0.000000
    20  H    0.000000   0.000000   0.000000   0.000000   0.000000   0.000000
    21  H    0.000000   0.000000   0.000000   0.000000   0.000000   0.000000
    22  C    0.000000   0.000000   0.000000   0.000000   0.000000   0.000000
    23  C    0.000000   0.000000   0.000000   0.000000   0.000000   0.000000
    24  H    0.000000   0.000000   0.000000   0.000000   0.000000   0.000000
    25  H    0.000000   0.000000   0.000000   0.000000   0.000000   0.000000
    26  H    0.000000   0.000000   0.000000   0.000000   0.000000   0.000000
              13         14         15         16         17         18
     1  I    0.000000   0.000000   0.000000   0.000000   0.000000   0.000000
     2  O    0.000000   0.000000   0.000000   0.000000   0.000000   0.000000
     3  O    0.000000   0.000000   0.000000   0.000000   0.000000   0.000000
     4  O    0.000000   0.000000   0.000000   0.000000   0.000000   0.000000
     5  O    0.000000   0.000000   0.000000   0.000000   0.000000   0.000000
     6  C    0.000000   0.000000   0.000000   0.000000   0.000000   0.000000
     7  C    0.000000   0.000000   0.000000   0.000000   0.000000   0.000000
     8  H    0.000000   0.000000   0.000000   0.000000   0.000000   0.000000
     9  C    0.000000   0.000000   0.000000   0.000000   0.000000   0.000000
    10  H    0.000000   0.000000   0.000000   0.000000   0.000000   0.000000
    11  C    0.000000   0.000000   0.000000   0.000000   0.000000   0.000000
    12  H    0.000000   0.000000   0.000000   0.000000   0.000000   0.000000
    13  C    0.000000   0.000000   0.000000   0.000000   0.000000   0.000000
    14  H    0.000000   0.000000   0.000000   0.000000   0.000000   0.000000
    15  C    0.000000   0.000000   0.000000   0.000000   0.000000   0.000000
    16  H    0.000000   0.000000   0.000000   0.000000   0.000000   0.000000
    17  C    0.000000   0.000000   0.000000   0.000000   0.000000   0.000000
    18  C    0.000000   0.000000   0.000000   0.000000   0.000000   0.000000
    19  H    0.000000   0.000000   0.000000   0.000000   0.000000   0.000000
    20  H    0.000000   0.000000   0.000000   0.000000   0.000000   0.000000
    21  H    0.000000   0.000000   0.000000   0.000000   0.000000   0.000000
    22  C    0.000000   0.000000   0.000000   0.000000   0.000000   0.000000
    23  C    0.000000   0.000000   0.000000   0.000000   0.000000   0.000000
    24  H    0.000000   0.000000   0.000000   0.000000   0.000000   0.000000
    25  H    0.000000   0.000000   0.000000   0.000000   0.000000   0.000000
    26  H    0.000000   0.000000   0.000000   0.000000   0.000000   0.000000
              19         20         21         22         23         24
     1  I    0.000000   0.000000   0.000000   0.000000   0.000000   0.000000
     2  O    0.000000   0.000000   0.000000   0.000000   0.000000   0.000000
     3  O    0.000000   0.000000   0.000000   0.000000   0.000000   0.000000
     4  O    0.000000   0.000000   0.000000   0.000000   0.000000   0.000000
     5  O    0.000000   0.000000   0.000000   0.000000   0.000000   0.000000
     6  C    0.000000   0.000000   0.000000   0.000000   0.000000   0.000000
     7  C    0.000000   0.000000   0.000000   0.000000   0.000000   0.000000
     8  H    0.000000   0.000000   0.000000   0.000000   0.000000   0.000000
     9  C    0.000000   0.000000   0.000000   0.000000   0.000000   0.000000
    10  H    0.000000   0.000000   0.000000   0.000000   0.000000   0.000000
    11  C    0.000000   0.000000   0.000000   0.000000   0.000000   0.000000
    12  H    0.000000   0.000000   0.000000   0.000000   0.000000   0.000000
    13  C    0.000000   0.000000   0.000000   0.000000   0.000000   0.000000
    14  H    0.000000   0.000000   0.000000   0.000000   0.000000   0.000000
    15  C    0.000000   0.000000   0.000000   0.000000   0.000000   0.000000
    16  H    0.000000   0.000000   0.000000   0.000000   0.000000   0.000000
    17  C    0.000000   0.000000   0.000000   0.000000   0.000000   0.000000
    18  C    0.000000   0.000000   0.000000   0.000000   0.000000   0.000000
    19  H    0.000000   0.000000   0.000000   0.000000   0.000000   0.000000
    20  H    0.000000   0.000000   0.000000   0.000000   0.000000   0.000000
    21  H    0.000000   0.000000   0.000000   0.000000   0.000000   0.000000
    22  C    0.000000   0.000000   0.000000   0.000000   0.000000   0.000000
    23  C    0.000000   0.000000   0.000000   0.000000   0.000000   0.000000
    24  H    0.000000   0.000000   0.000000   0.000000   0.000000   0.000000
    25  H    0.000000   0.000000   0.000000   0.000000   0.000000   0.000000
    26  H    0.000000   0.000000   0.000000   0.000000   0.000000   0.000000
              25         26
     1  I    0.000000   0.000000
     2  O    0.000000   0.000000
     3  O    0.000000   0.000000
     4  O    0.000000   0.000000
     5  O    0.000000   0.000000
     6  C    0.000000   0.000000
     7  C    0.000000   0.000000
     8  H    0.000000   0.000000
     9  C    0.000000   0.000000
    10  H    0.000000   0.000000
    11  C    0.000000   0.000000
    12  H    0.000000   0.000000
    13  C    0.000000   0.000000
    14  H    0.000000   0.000000
    15  C    0.000000   0.000000
    16  H    0.000000   0.000000
    17  C    0.000000   0.000000
    18  C    0.000000   0.000000
    19  H    0.000000   0.000000
    20  H    0.000000   0.000000
    21  H    0.000000   0.000000
    22  C    0.000000   0.000000
    23  C    0.000000   0.000000
    24  H    0.000000   0.000000
    25  H    0.000000   0.000000
    26  H    0.000000   0.000000
 Mulliken charges and spin densities:
               1          2
     1  I    1.298168   0.000000
     2  O   -0.722440   0.000000
     3  O   -0.488225   0.000000
     4  O   -0.722369   0.000000
     5  O   -0.488301   0.000000
     6  C   -0.435936   0.000000
     7  C   -0.077148   0.000000
     8  H    0.200718   0.000000
     9  C   -0.166358   0.000000
    10  H    0.178847   0.000000
    11  C   -0.150938   0.000000
    12  H    0.177220   0.000000
    13  C   -0.166352   0.000000
    14  H    0.178849   0.000000
    15  C   -0.077146   0.000000
    16  H    0.200717   0.000000
    17  C    0.599047   0.000000
    18  C   -0.555665   0.000000
    19  H    0.198803   0.000000
    20  H    0.191628   0.000000
    21  H    0.196527   0.000000
    22  C    0.599056   0.000000
    23  C   -0.555652   0.000000
    24  H    0.196564   0.000000
    25  H    0.198796   0.000000
    26  H    0.191593   0.000000
 Sum of Mulliken charges =   0.00000   0.00000
 Mulliken charges and spin densities with hydrogens summed into heavy atoms:
               1          2
     1  I    1.298168   0.000000
     2  O   -0.722440   0.000000
     3  O   -0.488225   0.000000
     4  O   -0.722369   0.000000
     5  O   -0.488301   0.000000
     6  C   -0.435936   0.000000
     7  C    0.123569   0.000000
     9  C    0.012488   0.000000
    11  C    0.026282   0.000000
    13  C    0.012498   0.000000
    15  C    0.123571   0.000000
    17  C    0.599047   0.000000
    18  C    0.031293   0.000000
    22  C    0.599056   0.000000
    23  C    0.031300   0.000000
 Electronic spatial extent (au):  <R**2>=           4498.9287
 Charge=              0.0000 electrons
 Dipole moment (field-independent basis, Debye):
    X=             -0.0177    Y=              5.4128    Z=             -0.0017  Tot=              5.4128
 Quadrupole moment (field-independent basis, Debye-Ang):
   XX=            -87.3169   YY=           -104.1162   ZZ=            -97.7373
   XY=              0.0457   XZ=              4.3183   YZ=              0.0274
 Traceless Quadrupole moment (field-independent basis, Debye-Ang):
   XX=              9.0733   YY=             -7.7261   ZZ=             -1.3472
   XY=              0.0457   XZ=              4.3183   YZ=              0.0274
 Octapole moment (field-independent basis, Debye-Ang**2):
  XXX=              0.2706  YYY=             42.2395  ZZZ=             -0.0447  XYY=             -0.3095
  XXY=            -26.8802  XXZ=             -0.1026  XZZ=              0.0836  YZZ=            -25.0426
  YYZ=              0.0739  XYZ=             13.6043
 Hexadecapole moment (field-independent basis, Debye-Ang**3):
 XXXX=          -2600.0787 YYYY=          -2651.4096 ZZZZ=           -219.1332 XXXY=              1.0975
 XXXZ=             -1.6410 YYYX=             -0.6878 YYYZ=              0.6057 ZZZX=              2.0486
 ZZZY=              0.0320 XXYY=           -966.0596 XXZZ=           -497.2391 YYZZ=           -509.9842
 XXYZ=             -0.2655 YYXZ=             45.1607 ZZXY=              0.1259
 N-N= 8.987150314894D+02 E-N=-3.427700401590D+03  KE= 6.872333171368D+02
                          Isotropic Fermi Contact Couplings
        Atom                 a.u.       MegaHertz       Gauss      10(-4) cm-1
     1  I(127)             0.00000       0.00000       0.00000       0.00000
     2  O(17)              0.00000       0.00000       0.00000       0.00000
     3  O(17)              0.00000       0.00000       0.00000       0.00000
     4  O(17)              0.00000       0.00000       0.00000       0.00000
     5  O(17)              0.00000       0.00000       0.00000       0.00000
     6  C(13)              0.00000       0.00000       0.00000       0.00000
     7  C(13)              0.00000       0.00000       0.00000       0.00000
     8  H(1)               0.00000       0.00000       0.00000       0.00000
     9  C(13)              0.00000       0.00000       0.00000       0.00000
    10  H(1)               0.00000       0.00000       0.00000       0.00000
    11  C(13)              0.00000       0.00000       0.00000       0.00000
    12  H(1)               0.00000       0.00000       0.00000       0.00000
    13  C(13)              0.00000       0.00000       0.00000       0.00000
    14  H(1)               0.00000       0.00000       0.00000       0.00000
    15  C(13)              0.00000       0.00000       0.00000       0.00000
    16  H(1)               0.00000       0.00000       0.00000       0.00000
    17  C(13)              0.00000       0.00000       0.00000       0.00000
    18  C(13)              0.00000       0.00000       0.00000       0.00000
    19  H(1)               0.00000       0.00000       0.00000       0.00000
    20  H(1)               0.00000       0.00000       0.00000       0.00000
    21  H(1)               0.00000       0.00000       0.00000       0.00000
    22  C(13)              0.00000       0.00000       0.00000       0.00000
    23  C(13)              0.00000       0.00000       0.00000       0.00000
    24  H(1)               0.00000       0.00000       0.00000       0.00000
    25  H(1)               0.00000       0.00000       0.00000       0.00000
    26  H(1)               0.00000       0.00000       0.00000       0.00000
 --------------------------------------------------------
       Center         ----  Spin Dipole Couplings  ----
                      3XX-RR        3YY-RR        3ZZ-RR
 --------------------------------------------------------
     1   Atom        0.000000      0.000000      0.000000
     2   Atom        0.000000      0.000000      0.000000
     3   Atom        0.000000      0.000000      0.000000
     4   Atom        0.000000      0.000000      0.000000
     5   Atom        0.000000      0.000000      0.000000
     6   Atom        0.000000      0.000000      0.000000
     7   Atom        0.000000      0.000000      0.000000
     8   Atom        0.000000      0.000000      0.000000
     9   Atom        0.000000      0.000000      0.000000
    10   Atom        0.000000      0.000000      0.000000
    11   Atom        0.000000      0.000000      0.000000
    12   Atom        0.000000      0.000000      0.000000
    13   Atom        0.000000      0.000000      0.000000
    14   Atom        0.000000      0.000000      0.000000
    15   Atom        0.000000      0.000000      0.000000
    16   Atom        0.000000      0.000000      0.000000
    17   Atom        0.000000      0.000000      0.000000
    18   Atom        0.000000      0.000000      0.000000
    19   Atom        0.000000      0.000000      0.000000
    20   Atom        0.000000      0.000000      0.000000
    21   Atom        0.000000      0.000000      0.000000
    22   Atom        0.000000      0.000000      0.000000
    23   Atom        0.000000      0.000000      0.000000
    24   Atom        0.000000      0.000000      0.000000
    25   Atom        0.000000      0.000000      0.000000
    26   Atom        0.000000      0.000000      0.000000
 --------------------------------------------------------
                        XY            XZ            YZ
 --------------------------------------------------------
     1   Atom        0.000000      0.000000      0.000000
     2   Atom        0.000000      0.000000      0.000000
     3   Atom        0.000000      0.000000      0.000000
     4   Atom        0.000000      0.000000      0.000000
     5   Atom        0.000000      0.000000      0.000000
     6   Atom        0.000000      0.000000      0.000000
     7   Atom        0.000000      0.000000      0.000000
     8   Atom        0.000000      0.000000      0.000000
     9   Atom        0.000000      0.000000      0.000000
    10   Atom        0.000000      0.000000      0.000000
    11   Atom        0.000000      0.000000      0.000000
    12   Atom        0.000000      0.000000      0.000000
    13   Atom        0.000000      0.000000      0.000000
    14   Atom        0.000000      0.000000      0.000000
    15   Atom        0.000000      0.000000      0.000000
    16   Atom        0.000000      0.000000      0.000000
    17   Atom        0.000000      0.000000      0.000000
    18   Atom        0.000000      0.000000      0.000000
    19   Atom        0.000000      0.000000      0.000000
    20   Atom        0.000000      0.000000      0.000000
    21   Atom        0.000000      0.000000      0.000000
    22   Atom        0.000000      0.000000      0.000000
    23   Atom        0.000000      0.000000      0.000000
    24   Atom        0.000000      0.000000      0.000000
    25   Atom        0.000000      0.000000      0.000000
    26   Atom        0.000000      0.000000      0.000000
 --------------------------------------------------------


 ---------------------------------------------------------------------------------
              Anisotropic Spin Dipole Couplings in Principal Axis System
 ---------------------------------------------------------------------------------

       Atom             a.u.   MegaHertz   Gauss  10(-4) cm-1        Axes

              Baa     0.0000     0.000     0.000     0.000  1.0000  0.0000  0.0000
     1 I(127) Bbb     0.0000     0.000     0.000     0.000  0.0000  1.0000  0.0000
              Bcc     0.0000     0.000     0.000     0.000  0.0000  0.0000  1.0000
 
              Baa     0.0000     0.000     0.000     0.000  1.0000  0.0000  0.0000
     2 O(17)  Bbb     0.0000     0.000     0.000     0.000  0.0000  1.0000  0.0000
              Bcc     0.0000     0.000     0.000     0.000  0.0000  0.0000  1.0000
 
              Baa     0.0000     0.000     0.000     0.000  1.0000  0.0000  0.0000
     3 O(17)  Bbb     0.0000     0.000     0.000     0.000  0.0000  1.0000  0.0000
              Bcc     0.0000     0.000     0.000     0.000  0.0000  0.0000  1.0000
 
              Baa     0.0000     0.000     0.000     0.000  1.0000  0.0000  0.0000
     4 O(17)  Bbb     0.0000     0.000     0.000     0.000  0.0000  1.0000  0.0000
              Bcc     0.0000     0.000     0.000     0.000  0.0000  0.0000  1.0000
 
              Baa     0.0000     0.000     0.000     0.000  1.0000  0.0000  0.0000
     5 O(17)  Bbb     0.0000     0.000     0.000     0.000  0.0000  1.0000  0.0000
              Bcc     0.0000     0.000     0.000     0.000  0.0000  0.0000  1.0000
 
              Baa     0.0000     0.000     0.000     0.000  1.0000  0.0000  0.0000
     6 C(13)  Bbb     0.0000     0.000     0.000     0.000  0.0000  1.0000  0.0000
              Bcc     0.0000     0.000     0.000     0.000  0.0000  0.0000  1.0000
 
              Baa     0.0000     0.000     0.000     0.000  1.0000  0.0000  0.0000
     7 C(13)  Bbb     0.0000     0.000     0.000     0.000  0.0000  1.0000  0.0000
              Bcc     0.0000     0.000     0.000     0.000  0.0000  0.0000  1.0000
 
              Baa     0.0000     0.000     0.000     0.000  1.0000  0.0000  0.0000
     8 H(1)   Bbb     0.0000     0.000     0.000     0.000  0.0000  1.0000  0.0000
              Bcc     0.0000     0.000     0.000     0.000  0.0000  0.0000  1.0000
 
              Baa     0.0000     0.000     0.000     0.000  1.0000  0.0000  0.0000
     9 C(13)  Bbb     0.0000     0.000     0.000     0.000  0.0000  1.0000  0.0000
              Bcc     0.0000     0.000     0.000     0.000  0.0000  0.0000  1.0000
 
              Baa     0.0000     0.000     0.000     0.000  1.0000  0.0000  0.0000
    10 H(1)   Bbb     0.0000     0.000     0.000     0.000  0.0000  1.0000  0.0000
              Bcc     0.0000     0.000     0.000     0.000  0.0000  0.0000  1.0000
 
              Baa     0.0000     0.000     0.000     0.000  1.0000  0.0000  0.0000
    11 C(13)  Bbb     0.0000     0.000     0.000     0.000  0.0000  1.0000  0.0000
              Bcc     0.0000     0.000     0.000     0.000  0.0000  0.0000  1.0000
 
              Baa     0.0000     0.000     0.000     0.000  1.0000  0.0000  0.0000
    12 H(1)   Bbb     0.0000     0.000     0.000     0.000  0.0000  1.0000  0.0000
              Bcc     0.0000     0.000     0.000     0.000  0.0000  0.0000  1.0000
 
              Baa     0.0000     0.000     0.000     0.000  1.0000  0.0000  0.0000
    13 C(13)  Bbb     0.0000     0.000     0.000     0.000  0.0000  1.0000  0.0000
              Bcc     0.0000     0.000     0.000     0.000  0.0000  0.0000  1.0000
 
              Baa     0.0000     0.000     0.000     0.000  1.0000  0.0000  0.0000
    14 H(1)   Bbb     0.0000     0.000     0.000     0.000  0.0000  1.0000  0.0000
              Bcc     0.0000     0.000     0.000     0.000  0.0000  0.0000  1.0000
 
              Baa     0.0000     0.000     0.000     0.000  1.0000  0.0000  0.0000
    15 C(13)  Bbb     0.0000     0.000     0.000     0.000  0.0000  1.0000  0.0000
              Bcc     0.0000     0.000     0.000     0.000  0.0000  0.0000  1.0000
 
              Baa     0.0000     0.000     0.000     0.000  1.0000  0.0000  0.0000
    16 H(1)   Bbb     0.0000     0.000     0.000     0.000  0.0000  1.0000  0.0000
              Bcc     0.0000     0.000     0.000     0.000  0.0000  0.0000  1.0000
 
              Baa     0.0000     0.000     0.000     0.000  1.0000  0.0000  0.0000
    17 C(13)  Bbb     0.0000     0.000     0.000     0.000  0.0000  1.0000  0.0000
              Bcc     0.0000     0.000     0.000     0.000  0.0000  0.0000  1.0000
 
              Baa     0.0000     0.000     0.000     0.000  1.0000  0.0000  0.0000
    18 C(13)  Bbb     0.0000     0.000     0.000     0.000  0.0000  1.0000  0.0000
              Bcc     0.0000     0.000     0.000     0.000  0.0000  0.0000  1.0000
 
              Baa     0.0000     0.000     0.000     0.000  1.0000  0.0000  0.0000
    19 H(1)   Bbb     0.0000     0.000     0.000     0.000  0.0000  1.0000  0.0000
              Bcc     0.0000     0.000     0.000     0.000  0.0000  0.0000  1.0000
 
              Baa     0.0000     0.000     0.000     0.000  1.0000  0.0000  0.0000
    20 H(1)   Bbb     0.0000     0.000     0.000     0.000  0.0000  1.0000  0.0000
              Bcc     0.0000     0.000     0.000     0.000  0.0000  0.0000  1.0000
 
              Baa     0.0000     0.000     0.000     0.000  1.0000  0.0000  0.0000
    21 H(1)   Bbb     0.0000     0.000     0.000     0.000  0.0000  1.0000  0.0000
              Bcc     0.0000     0.000     0.000     0.000  0.0000  0.0000  1.0000
 
              Baa     0.0000     0.000     0.000     0.000  1.0000  0.0000  0.0000
    22 C(13)  Bbb     0.0000     0.000     0.000     0.000  0.0000  1.0000  0.0000
              Bcc     0.0000     0.000     0.000     0.000  0.0000  0.0000  1.0000
 
              Baa     0.0000     0.000     0.000     0.000  1.0000  0.0000  0.0000
    23 C(13)  Bbb     0.0000     0.000     0.000     0.000  0.0000  1.0000  0.0000
              Bcc     0.0000     0.000     0.000     0.000  0.0000  0.0000  1.0000
 
              Baa     0.0000     0.000     0.000     0.000  1.0000  0.0000  0.0000
    24 H(1)   Bbb     0.0000     0.000     0.000     0.000  0.0000  1.0000  0.0000
              Bcc     0.0000     0.000     0.000     0.000  0.0000  0.0000  1.0000
 
              Baa     0.0000     0.000     0.000     0.000  1.0000  0.0000  0.0000
    25 H(1)   Bbb     0.0000     0.000     0.000     0.000  0.0000  1.0000  0.0000
              Bcc     0.0000     0.000     0.000     0.000  0.0000  0.0000  1.0000
 
              Baa     0.0000     0.000     0.000     0.000  1.0000  0.0000  0.0000
    26 H(1)   Bbb     0.0000     0.000     0.000     0.000  0.0000  1.0000  0.0000
              Bcc     0.0000     0.000     0.000     0.000  0.0000  0.0000  1.0000
 

 ---------------------------------------------------------------------------------

 Evaluate density.
 Using the total density.
 Monte-Carlo method of calculating molar volume:
 based on  0.001 e/bohr**3 density envelope.
 Number of points per bohr**3 =   20 CutOff= 1.00D-04
 Using the SCF density.
 There are       523 points.  Will hold    244155 in memory.
 LenV=   208753156 MDV=   268435456.
 Box volume =17974.781 fraction occupied=0.103
 Integrated density= 7.8339178188088027D+01 error=-3.1660821811911973D+01
 Molar volume = 1855.905 bohr**3/mol (165.619 cm**3/mol)
 Recommended a0 for SCRF calculation =  4.94 angstrom (  9.34 bohr)
 1\1\GINC-COMP138\SP\UM062X\GenECP\C10H11I1O4\NEWC4807\06-Jul-2017\0\\#
  um062x/genecp volume\\pida_m062x_opt_n_LanL2DZ\\0,1\I,0,-0.002164,0.6
 31628,-0.000554\O,0,2.109332,0.308679,0.098339\O,0,2.140315,2.533932,0
 .105978\O,0,-2.111773,0.295404,-0.09948\O,0,-2.156018,2.520357,-0.1040
 76\C,0,0.004779,-1.494947,-0.00038\C,0,0.976406,-2.161715,-0.733582\H,
 0,1.733129,-1.610889,-1.278554\C,0,0.97286,-3.554717,-0.727405\H,0,1.7
 25872,-4.090444,-1.29624\C,0,0.014082,-4.25301,0.000731\H,0,0.01782,-5
 .338228,0.001223\C,0,-0.949449,-3.560635,0.728251\H,0,-1.698755,-4.100
 972,1.297624\C,0,-0.962377,-2.167679,0.733272\H,0,-1.72284,-1.621419,1
 .277652\C,0,2.732775,1.469414,0.127119\C,0,4.236717,1.341355,0.184759\
 H,0,4.685938,2.332274,0.236842\H,0,4.59144,0.813477,-0.704193\H,0,4.52
 0872,0.748771,1.057442\C,0,-2.742169,1.45236,-0.126351\C,0,-4.245343,1
 .31531,-0.183466\H,0,-4.526405,0.724392,-1.058293\H,0,-4.700716,2.3036
 34,-0.23152\H,0,-4.596227,0.781708,0.703578\\Version=ES64L-G09RevD.01\
 State=1-A\HF=-699.5590412\S2=0.\S2-1=0.\S2A=0.\RMSD=5.523e-09\Dipole=0
 .0069599,-2.1295428,-0.0006729\Quadrupole=6.7457406,-5.7441467,-1.0015
 939,0.0339868,-3.2105837,-0.0203651\PG=C01 [X(C10H11I1O4)]\\@


 Mondays are the potholes in the road of life.
                                -- Tom Wilson
 Job cpu time:       0 days  0 hours  5 minutes 54.3 seconds.
 File lengths (MBytes):  RWF=     51 Int=      0 D2E=      0 Chk=      3 Scr=      1
 Normal termination of Gaussian 09 at Thu Jul  6 23:00:20 2017.
