36
1-mer.xyz    Empirical formula: C10H20MnNO2S2    Energy(Hartree): -2545.198396    
Mn      -0.0725350000    0.2700730000   -0.0978950000
S       -2.2601160000   -0.0987900000    0.6154530000
S        2.0197630000    0.1612980000   -1.1104610000
O        0.9910200000    0.2238650000    2.6682970000
N       -0.0568870000   -1.9231820000   -0.3502020000
H       -0.4603980000   -1.9782350000   -1.2861300000
O       -0.2719350000    3.2031400000   -0.2706460000
C        0.5493510000    0.2295410000    1.5894350000
C       -2.3470510000   -1.9433290000    0.4835180000
H       -3.0248150000   -2.3368870000    1.2542940000
H       -2.7751710000   -2.1806130000   -0.5033660000
C       -0.9597960000   -2.5561750000    0.6114940000
H       -0.5522750000   -2.3925560000    1.6211410000
H       -1.0294600000   -3.6507230000    0.4536360000
C       -0.1908470000    2.0484530000   -0.1807420000
C       -3.4695220000    0.3247010000   -0.7066910000
H       -3.0676730000   -0.0862730000   -1.6446650000
H       -4.4165250000   -0.1782150000   -0.4530320000
C        1.3126190000   -2.4360520000   -0.3803640000
H        1.3421310000   -3.5159700000   -0.6280320000
H        1.7438950000   -2.3158950000    0.6256970000
C        3.3781690000    0.3276300000    0.1248210000
H        3.1670560000   -0.3388850000    0.9737080000
H        4.3051840000   -0.0048120000   -0.3687400000
C       -3.6524660000    1.8311310000   -0.8029080000
H       -4.0012640000    2.2566330000    0.1510890000
H       -4.4021980000    2.0657980000   -1.5749160000
H       -2.7120460000    2.3268370000   -1.0794720000
C        2.1173820000   -1.6508660000   -1.4076480000
C        3.4873750000    1.7736310000    0.5871020000
H        1.7042330000   -1.8026810000   -2.4168250000
H        3.1719430000   -1.9614470000   -1.4238430000
H        3.6834960000    2.4503360000   -0.2591430000
H        2.5626370000    2.1017090000    1.0819710000
H        4.3133450000    1.8765640000    1.3079650000
H       -0.5988290000    0.2675950000   -1.7017360000
