1
config_type=isolated_atom gap_energy=-157.72725320 dft_virial="0.00000000       0.00000000       0.00000000       0.00000000       0.00000000       0.00000000       0.00000000       0.00000000       0.00000000" dft_energy=-158.54496821 nneightol=1.20000000 pbc="T T T" Lattice="20.00000000       0.00000000       0.00000000       0.00000000      20.00000000       0.00000000       0.00000000       0.00000000      20.00000000" Properties=species:S:1:pos:R:3:Z:I:1:map_shift:I:3:n_neighb:I:1:gap_force:R:3:dft_force:R:3
Si             10.00000000     10.00000000     10.00000000      14      -1      -1      -1       0      0.00000000      0.00000000      0.00000000      0.00000000      0.00000000      0.00000000```
