508
 energy: -978.449085030052 gnorm: 0.009612966387 xtb: 6.7.1 (edcfbbe)
O            7.96489444982608       -4.83865767154275       -8.29147800323492
C            9.06043959763774       -5.29194777448303       -7.52397550814390
C            8.86316659122672       -4.87945929072317       -6.06364208898936
O            9.05528037206924       -3.48397787634775       -5.92554977419668
C            7.43976261951986       -5.19012669122324       -5.55803450446469
O            7.46231599150355       -5.66709578164221       -4.21411121797437
C            6.77515209629853       -3.82398592889864       -5.57926321332668
C            7.96784977699806       -2.95436471352829       -5.18019082384423
N            7.83522780371863       -1.54552176915513       -5.42931591183274
C            8.23904373319466       -0.64808439223553       -4.41549100263866
O            8.73763689135870       -1.08684136707740       -3.38699536770501
N            8.06233988145312        0.66020029872394       -4.61978614084280
C            7.54295758077788        1.13848371693866       -5.74306598687044
N            7.36796247058120        2.44800069159165       -5.83913437931645
C            7.21939469969857        0.25404504189997       -6.81984064000556
C            7.39108708993347       -1.07061997105394       -6.61271230958949
P            7.69248414231923       -7.21767903480282       -4.00766144376405
O            8.76134663747097       -7.83183011180448       -4.79982898906693
O            7.82863463535162       -7.37114830072206       -2.42205146056263
C            9.11148720727094       -7.19213327985793       -1.84660941838672
C            9.02613778908100       -6.23025207048925       -0.65450405288005
O            8.63911741482038       -4.94958103058641       -1.09352205181712
C            8.00618680843475       -6.69421519056849        0.41065186959202
O            8.62315493447982       -6.62047350648825        1.69834556913018
C            6.82320312777044       -5.76995464894272        0.16738970988805
C            7.45299706663940       -4.51204969839951       -0.44009483198200
N            6.59719828336040       -3.83007916521533       -1.35780193846175
C            5.72315208255309       -4.33687838075426       -2.28821302663029
N            5.16073753938782       -3.42456378474735       -3.01488765872173
C            5.67323112917906       -2.22931482875660       -2.57017694886612
C            5.48581453410238       -0.88875695263181       -3.01352052683915
O            4.85792195979782       -0.49277535189717       -3.99718407410061
N            6.15534083163524        0.01472161184624       -2.20301333368864
C            6.97650723820412       -0.32177334318161       -1.16464929937857
N            7.56712386746515        0.67707844309207       -0.50442097611769
N            7.22451034252860       -1.56338394415428       -0.80026527683924
C            6.56392597551636       -2.47356263223567       -1.52383859424758
P            8.00538918482105       -5.99735679960184        3.01006269477477
O            8.88855011068321       -6.22234888863969        4.16549036199757
O            7.80641284477171       -4.42484465141113        2.71397328376069
C            8.89538268347653       -3.56087858987956        2.98639278270787
C            8.42854303136769       -2.29552605302248        3.71769097035810
O            8.15230329718414       -1.25273967819573        2.79725380870865
C            7.14144589269401       -2.47355687809366        4.53781065223313
O            7.38357394606645       -2.95516476668051        5.84428884523499
C            6.53658944797683       -1.07500930206089        4.49213923934992
C            6.89982478946752       -0.66141866934661        3.06243507537379
P            6.94291315204900       -4.47899728672964        6.18105076837831
O            8.26549342497390       -5.23206477770277        6.51226864422118
O            6.14636671703675       -4.37452330290457        7.54184852756459
C            6.35855460926128       -3.48996179165386        8.63479670745567
C            5.40582530421269       -2.28229340424228        8.60330265692471
C            3.89998223599926       -2.64961901974224        8.66290915317464
O            3.22804023782043       -1.40622686159988        8.69165372231188
C            3.37359397980398       -3.52336015143841        7.50827550804801
P            1.64996503143022       -1.41884718202809        9.04475309258814
O            1.25049054922504       -2.30346452291883       10.12549157286216
O            1.38895332963506        0.12013912161196        9.37412734394719
C            1.88506418523496        1.17009174150483        8.56623858812860
C            0.85168007187687        1.70269678910728        7.56811939509157
O            0.70759699849736        0.82371768628725        6.46813977057905
C           -0.56816568562910        1.91112507239793        8.16231428561190
O           -0.89606045880729        3.28593857299575        8.00106123421767
C           -1.42569619735357        0.94731753084930        7.35263871683536
C           -0.65160432767759        0.91923094398206        6.03196083866790
P           -2.26812929762131        3.95922678446912        7.57231203008525
O           -2.21755066218439        5.40721444985265        7.71195212765412
O           -2.60331988617007        3.43242992334518        6.09104472240941
C           -2.41367635849912        4.28152615609473        4.96946451828322
C           -3.73868377098620        4.78772976524812        4.36437395892077
O           -4.27918541339711        3.91748025587999        3.39475783917724
C           -4.84220261885328        4.99080041636832        5.41062430664485
O           -5.58271502506729        6.14027119663370        5.02095210709152
C           -5.64476908128437        3.69541197899691        5.32837697184741
C           -5.33984818763079        3.13940656796228        3.92591700601166
P           -6.86131313797535        6.65081250297488        5.81231130714877
O           -7.13214471190459        8.06500431030099        5.60094031569528
O           -8.07951998447369        5.68015612596278        5.38977275493567
C           -8.53463153271935        5.87957158873631        4.05931385885088
C           -9.42536440892612        4.71605115054363        3.64858334160106
O           -8.68417328562778        3.51716925655212        3.64555573168288
C          -10.63786916788215        4.48968745230932        4.58124774557753
C          -10.70689576742353        2.95757009816729        4.71486660078900
C           -9.61199259342361        2.45393687567189        3.75060864192090
C          -10.08080089513306       -5.58839845953592       -5.55903335068681
C           -9.43367129864142       -4.33575357547530       -4.97750878938568
O           -8.95672662146790       -4.62542078201102       -3.68474162052589
C           -8.22306333419493       -3.78811495579082       -5.79336792385806
O           -8.59511103843330       -2.57593060066723       -6.42926107865034
C           -7.11477459930256       -3.68210409874361       -4.75009414210138
C           -7.90798356986219       -3.70256062882835       -3.43446442306187
P           -8.08702525599838       -1.08540826728000       -6.23591538887557
O           -6.51787901988969       -1.16353497115152       -6.49899511514108
O           -8.11492064311050       -0.75704683889404       -4.65439915792367
C           -9.21559063855555       -0.05239843896229       -4.11499256161940
C           -8.77310774732946        1.21904961508670       -3.37792648418682
O           -8.02453003192861        0.91366594269619       -2.21735540172605
C           -7.91511216154835        2.18131586523572       -4.21479816027471
O           -8.32592829990912        3.49372441591565       -3.87234982484319
C           -6.49507267611156        1.89371575704335       -3.74294216815901
C           -6.68851325075400        1.36923406662104       -2.31244742313366
P           -7.82013532131936        4.72888921295981       -4.75334217764265
O           -7.35679924546728        4.37307691162805       -6.09135134861844
O           -6.79890817081477        5.39603855887402       -3.72351938940402
C           -6.54094046368242        6.78678398582477       -3.73273468223895
C           -5.92868307059744        7.29162741251031       -5.04333220147929
O           -6.76876600934341        8.29071349995723       -5.61143790186951
C           -4.52326082507340        7.91195220790335       -4.91067810649988
O           -3.56836910606225        6.92783402343535       -5.10753286921205
C           -4.54205290192975        9.00417409014004       -5.98510254536347
C           -6.02111534923351        9.38179802319540       -6.08549837905299
P           -2.01056864613197        7.26901570555047       -4.68126816756626
O           -1.25043347137036        6.04787275133376       -5.03173647165268
O           -2.27977149914979        7.32558011870808       -3.02586240711280
C           -1.56560944286333        8.28536880970763       -2.32542042295036
C           -0.13001369836515        7.83403855107920       -1.99354878024427
O           -0.08803488735110        6.42897748374951       -1.81398239693505
C            0.91831236883030        8.18994521646018       -3.07341725263806
O            1.99096160895863        8.85036348563424       -2.39046590257680
C            1.33699535459291        6.83801711554912       -3.61256517382306
C            1.12395096313123        5.96631654545028       -2.37746592433481
P            3.35485934143775        9.21686101675791       -3.14215440602628
O            3.58306039453123        8.70857275534933       -4.49057597023909
O            4.47501481849058        8.72285856371888       -2.12481749753167
C            4.36329086955584        8.84563176088695       -0.71987827531990
C            5.38422355793342        7.90352560087238       -0.06584966106457
O            5.06999651218335        6.55152844888077       -0.34436581607523
C            6.81748083134008        8.13102943560006       -0.58323096540188
O            7.74181010613329        7.84953715493759        0.46302617138235
C            6.94291600923774        7.07652283109790       -1.66948400622638
C            6.15070465365126        5.93405574790590       -1.03735978718380
N            5.64565963449094        4.95924829912191       -1.96792922412596
C            6.05585987071795        3.61855281655443       -1.83720096894530
O            6.83953145314414        3.31340174783218       -0.94252666727090
N            5.56318680400822        2.71783239125904       -2.69138410651139
C            4.74370872131224        3.06143411836876       -3.67723509372123
N            4.35011253381196        2.11253608142893       -4.51869014457655
C            4.32026470445695        4.41626407724150       -3.83392717812530
C            4.79789254340211        5.32344829566049       -2.95171284257751
P            8.68327656929835        9.02230723092175        0.98239020233928
O            9.01015620802699       10.08315997084577        0.04005902901267
O            9.94421956156092        8.24156472629934        1.54670747230929
C            9.79455170323492        7.26438467894606        2.57024337519053
C           11.02426931919365        6.33440178410417        2.65844858027734
O           10.75244061536796        5.07289405422987        2.07576960772573
C           12.30898680779005        6.88674992386114        2.00804023916388
O           13.20141270890661        7.24679440774701        3.03479250614524
C           12.81748767207307        5.71708715433641        1.14407294729514
C           11.59909847722687        4.80392895572286        0.98234934352014
N           10.91118203468120        4.99021595332970       -0.26990867812323
C           10.45935375475288        6.15049234144577       -0.85225209910666
N            9.72361230513297        5.94446684265675       -1.89678815509559
C            9.65276552265062        4.58099418216064       -2.04014064107326
C            8.94431346578650        3.75574596568533       -2.96183242134295
O            8.16046988038519        4.10413890063109       -3.84523607859208
N            9.23035006523260        2.41454710877524       -2.76634941126977
C           10.03692193540746        1.91536287345310       -1.78519108271264
N           10.27915161983080        0.59967288564054       -1.80204206770001
N           10.62661676480654        2.66315869522985       -0.87353115718329
C           10.40136952558769        3.97493408415040       -1.03102742269015
H            7.19618182206292       -1.80473561918449       -7.37982962873869
H            6.85994631082992        0.63714678024312       -7.75903986206266
H            7.63255831585166        3.07271008030631       -5.05710415594007
H            6.98919308019508        2.84335056791970       -6.68089292938976
H            8.17267407288965       -3.05912995481918       -4.10351590587261
H            5.93801715688663       -3.74199157336435       -4.88953253667653
H            6.45943991761112       -3.60874943611502       -6.59860212285463
H            6.94272218537986       -5.92166686987939       -6.19648887414455
H            9.59556831883399       -5.41577086589320       -5.44741807336510
H            9.99568053871273       -4.84317537119066       -7.87847190893840
H            9.14021967466043       -6.38604290667529       -7.56564153326999
H            8.14330752380319       -5.02238123971609       -9.21974129555360
H            5.54551790710697       -5.38528566355039       -2.41687931138966
H            6.02848125211733        1.02448731188544       -2.42416837513158
H            7.31499833141322        1.65468934312177       -0.67126842411536
H            8.10776653538550        0.43235095306171        0.30549324487061
H            7.72427364918372       -3.76353906745162        0.31802382357097
H            6.25212724531144       -5.55721452687476        1.06319359928287
H            6.17645918140616       -6.24047633786898       -0.57181858052805
H            7.73503576787732       -7.74260110222312        0.26382456954280
H           10.02357737804968       -6.16843926091373       -0.19569144021845
H            9.79979286896427       -6.78510805211855       -2.58989005338339
H            9.48113226725379       -8.16565704440921       -1.51019738552350
H            6.98699824894808        0.42474838717827        2.93182642865476
H            7.02856900905123       -0.42458301370901        5.21522794969706
H            5.46409087041507       -1.07286279857533        4.65572810252845
H            6.48044151751097       -3.18061530947216        4.03421562095663
H            9.23766648956027       -1.96041598529544        4.38311153118994
H            9.35230245189832       -3.25288756871165        2.04059372201303
H            9.62998383192600       -4.09743543409027        3.59208905173235
H            2.30797319659562       -3.66512633949943        7.69823645807259
H            3.87427045240621       -4.48856606445935        7.53826237466483
H            3.69774086657899       -3.18151194662301        9.60193313861548
H            5.60022948946389       -1.69224840529145        9.51081882314700
H            7.38921962404554       -3.12782096828643        8.63175791381016
H            6.18168562359627       -4.07822498568262        9.53903717352851
H           -0.78553011810107        1.87023553971241        5.49526739584179
H           -2.45112280332307        1.28330155155768        7.25752627609813
H           -1.40240540957812       -0.03357011430673        7.82644679871396
H           -0.58733128676561        1.68734496000796        9.23166652584989
H            1.20759989737924        2.67967652036733        7.20573354777107
H            2.77392463390395        0.84216734518809        8.02343179249046
H            2.15216209500734        1.97877299556948        9.25204051865089
H           -6.19642359737218        3.21975356184379        3.24366709102063
H           -6.70580347197784        3.88802188164709        5.44927213615089
H           -5.31090443731754        2.99389718061082        6.09156739351482
H           -4.42893423214951        5.17128933976351        6.40498798514798
H           -3.52999847927529        5.73452379127317        3.85426856770447
H           -1.89595173844621        3.69253746976584        4.20549448169614
H           -1.81257707098082        5.14013061352974        5.27621745276777
H          -10.03747253261603        2.21919810820890        2.76238853229134
H          -11.68527505328971        2.57650029710528        4.42888681534776
H          -10.47756787875546        2.63765642839816        5.73050103105798
H          -10.45043682538082        4.96165466173125        5.55363582644899
H           -9.82562894486830        4.92046257937196        2.64270704089366
H           -7.67666027643657        5.93767777434486        3.38332658535655
H           -9.09393535030557        6.81728780287928        4.00437883353924
H           -8.34036884566152       -2.71401845381810       -3.22253307284665
H           -6.51864190415897       -2.78537406375083       -4.87574269607912
H           -6.46636316424666       -4.55539756264902       -4.81472550081592
H           -7.96172265143092       -4.47959181986791       -6.59887648520084
H          -10.19334681373768       -3.53852012466787       -4.93424399083008
H          -10.89352910230856       -5.90860733064497       -4.90262137967841
H          -10.47458805595803       -5.37714730960080       -6.55575947642530
H           -6.53089849008597        2.14315211598285       -1.55120860191359
H           -5.88656048507262        2.79313426066269       -3.78647160607002
H           -6.03099640368026        1.11722725679535       -4.34919580392995
H           -8.03229924839501        2.03557185933561       -5.29198431906263
H           -9.68445465254969        1.73858498284768       -3.05451865079573
H           -9.71172498420925       -0.70422467964315       -3.38901061942120
H           -9.90310496850671        0.21700103676416       -4.92108897981246
H           -6.32729720153293        9.61637927408099       -7.11261937612585
H           -4.19095014588545        8.57423689584165       -6.92213858892526
H           -3.90120068059664        9.84426640092845       -5.73178239161090
H           -4.38401065882488        8.36263695350594       -3.91748179120560
H           -5.86130763129712        6.43999900166970       -5.73375376579796
H           -5.85374480971937        6.94645866686766       -2.89652478813675
H           -7.47594097144718        7.33017825079275       -3.55865437128431
H            1.93910509192079        6.12353547064291       -1.64758245325063
H            2.35590918669361        6.83820803528740       -3.98128282945177
H            0.63696968733502        6.57212928190532       -4.40379852652193
H            0.51463808582368        8.84047891349628       -3.84886280532267
H            0.18716108164258        8.32919345183439       -1.06132085210133
H           -2.11130594562349        8.48029348432710       -1.39606997020166
H           -1.50558544839248        9.21222029218215       -2.90868425680316
H            4.52833811422338        6.36898319294374       -2.98955043672343
H            3.65116729316908        4.69935902591675       -4.62811072006851
H            4.57818060142197        1.11953566229642       -4.33137546219143
H            3.68675775744717        2.34176134236469       -5.23708659821519
H            6.77570509419104        5.37640022740679       -0.32389347762774
H            7.97821660179883        6.80354011049955       -1.88255870738115
H            6.45553709319826        7.42976603736972       -2.57659606875055
H            6.98204538895248        9.14597653285767       -0.94739172369204
H            5.34433274534495        8.05519797137165        1.02149637067783
H            3.35558276748564        8.56539929328955       -0.40506360581922
H            4.56486386977140        9.87906502891094       -0.42209254457377
H           10.69727398730172        7.12453395887629       -0.47669142296769
H            8.76206598913739        1.74128078741993       -3.40727459090829
H            9.69659885491100       -0.03133273193223       -2.35802238722181
H           10.76275215845287        0.22195322044939       -1.00707535975065
H           11.84454222725943        3.73496634623862        1.01192773620151
H           13.59876160923993        5.19212017676858        1.69527697548640
H           13.20679056193140        6.03826720362208        0.18040153621537
H           12.07046187539433        7.76009588094872        1.39141883262560
H           13.96445400105570        7.69012466802005        2.64838264701899
H           11.23543268618277        6.15532974397861        3.72099130638601
H            8.91865058929113        6.64571897578690        2.36681714127709
H            9.65516603119660        7.78547244060138        3.52067674277687
O           -9.10585979230403       -6.61902675697149       -5.64670793694526
O          -11.76134110064234        5.06166036711499        3.96280199533353
H          -12.52192043101274        4.98933042723389        4.54967080684523
N            1.10490081086036        4.54733172277512       -2.63322015486851
C            1.78292307393527        3.72012932044411       -1.72772868603261
O            2.21091682026939        4.19724642721654       -0.67785487725418
N            1.97433215121579        2.43388505334336       -2.04081150889575
C            1.54711108200606        1.91928857657587       -3.19367902001518
N            1.85042906403838        0.65818874197016       -3.45990371858339
C            0.82194383766358        2.73784148560884       -4.10704390246577
C            0.58119334284692        4.02699455179047       -3.76902006819906
N            5.90269275693921       -1.06878026842515        2.10391108292949
C            5.50950650636976       -2.31425042798958        1.67038458755396
N            4.62898135446489       -2.27602474005734        0.72273512858656
C            4.41421375716171       -0.94164135111704        0.47733273111056
C            3.65240396824665       -0.25804547687783       -0.51257572320716
O            2.99546555132300       -0.74679309769915       -1.42818669803628
N            3.71441776986463        1.11700738332141       -0.35354023230817
C            4.43440698887580        1.77134178736603        0.60436671666307
N            4.30223943390693        3.09241638594506        0.67724128704818
N            5.21963459472199        1.15147629077678        1.46571901139020
C            5.19766646481194       -0.18189233747144        1.34463661918512
H           -0.03664765473121        4.68485495151901       -4.36915279237822
H            0.45855309312596        2.32861409259190       -5.03295176875645
H            2.33343014722197        0.09103774668866       -2.75180599633738
H            1.49089204611718        0.20395453953549       -4.27844248818160
H            5.91137853731269       -3.22262918687037        2.06593120173731
H            3.10923643955767        1.66444907950725       -1.00902174681704
H            3.60616869441506        3.58808819089726        0.11475471566081
H            4.92221034626581        3.59694312937083        1.28319829968227
N           -6.35420957078908       10.58556102479642       -5.31637682601410
C           -6.64590008625901       11.73847604825640       -6.01998542169776
O           -6.60731859694618       11.81024952935218       -7.22603303717304
N           -6.98265367063912       12.81253079427728       -5.23358030825512
C           -7.09218551022056       12.87258383591509       -3.84852978547354
O           -7.41879492659953       13.90238882828765       -3.30169596661289
C           -6.78433958499655       11.60763378261318       -3.19453255889959
C           -6.88638788413253       11.55853147892296       -1.70410282228643
C           -6.43689284136793       10.55079533465615       -3.95210446695772
N            2.92917910218574       -1.88288393023051        5.80410905092327
H           -6.21773534710215        9.59107525508617       -3.51110824440130
H           -7.19141484663516       13.66768794549432       -5.73769602403308
H           -6.53450141412920       10.60675401950281       -1.31791614319078
H           -6.30344055774969       12.36878657117554       -1.27028639485171
H           -7.92102837948288       11.71036393342061       -1.39976848150256
N           -0.94608134705365       -0.11209992618688        5.08215897119438
C           -1.20096453385693        0.26577729431861        3.76736842096993
O           -1.19576955030546        1.43408796552012        3.42526323047736
N           -1.37527487293689       -0.75391705459238        2.88679848459884
C           -1.27974020942899       -2.10028093446833        3.15888049864493
O           -1.25824760192857       -2.91949665796879        2.25002948388039
C           -1.15667922624256       -2.43163751422026        4.56596236354920
C           -1.24018098379137       -3.86835407786031        4.96195277121102
C           -1.01693463444451       -1.42979376196759        5.45075164320448
N           -5.77820205160440        0.30105433431290       -1.99137865760139
C           -5.77069646874136       -0.94931065746316       -2.53647136043700
N           -4.88580458230344       -1.74916313003536       -2.02409762047379
C           -4.23502591689336       -0.98942397654781       -1.08328165063631
C           -3.19986018726409       -1.26684980349639       -0.17253629686443
N           -2.59038546095278       -2.45367328899734       -0.10067016900957
N           -2.81547082386592       -0.27068698295740        0.64367006684457
C           -3.44617038868302        0.90015664191569        0.59632366685168
N           -4.41478041581453        1.26731966204759       -0.21060607531084
C           -4.79139904482192        0.29757092484410       -1.04963906862824
H           -0.91675012980007       -1.63045136617889        6.50431041382743
H           -1.77742443545628       -0.50240238522176        1.94093170440071
H           -0.95492750089008       -4.00163405456800        6.00110500218517
H           -2.26374069251505       -4.21307047103146        4.82087382761006
H           -0.59883675782585       -4.46582551951801        4.31764390876487
H           -6.45933243867868       -1.21383053974290       -3.30835197619820
H           -3.12684121055387        1.62876118851233        1.32893860853206
H           -2.99623421060913       -3.19623949623559       -0.64243959184104
H           -2.02958087755128       -2.67290108777661        0.72801945845028
P           -9.55561367523343       -8.12501680677170       -5.42344822525353
O           -8.46303821188363       -9.08281065051809       -5.53227418374425
O          -10.35218746088314       -8.18797459052082       -4.02247859758630
C           -9.60064841447033       -8.63651049796518       -2.90562026216876
C          -10.56277363137807       -9.07010019599205       -1.78869653761992
H           -8.95860776541688       -9.45739432273775       -3.23392613713350
C           -8.78898669660923       -7.51457661161245       -2.27388751213876
C          -10.15011491553468      -10.40350587949914       -1.15059095612047
H          -11.57601660646029       -9.18306825134256       -2.19530052187644
O          -10.58853430106143       -8.03948914862547       -0.82275564359498
C           -9.68412846121899       -7.00015612963643       -1.13981469804678
H           -7.85861452835287       -7.91366653562768       -1.87154265804845
H           -8.58683081117577       -6.73136120354889       -2.99742072032126
H          -10.74126729644144      -10.54019990654555       -0.23618483352478
H          -10.37893727528804      -11.21349790634371       -1.85472143830103
H          -10.24021749138377       -6.09989116842027       -1.43745054607733
O           -8.77046276345100      -10.38005760367373       -0.85153921338742
H           -8.51458795617567      -11.24024531288109       -0.50166386599230
N           -8.93885398170390       -6.62672763965149        0.04340229281915
C           -9.03296098805439       -5.30003726204226        0.53036971366860
O           -9.68414882155079       -4.48190637938066       -0.10306663170188
N           -8.39078509525742       -4.99813374302474        1.66131481657047
C           -7.65516256064534       -5.88482610554064        2.32214006614381
N           -7.02966864946819       -5.49030395906481        3.41770946815776
C           -7.56153820095672       -7.23647396841043        1.85333882679898
C           -8.23515913110104       -7.55773515562136        0.72719661373917
N           -8.95034738663433        1.27336629637799        4.19796195323930
C           -8.11729851082722        1.11578496744308        5.28127388919244
N           -7.63761433490293       -0.07906524758448        5.39283717460597
C           -8.16175870505255       -0.78327051377579        4.33654791296846
C           -7.98334143289158       -2.13037046607615        3.90354822725980
O           -7.30520081662069       -3.01542936517059        4.41793784642681
N           -8.70530419987087       -2.39444835783186        2.74355262569729
C           -9.51433572088815       -1.50820514358398        2.09324233723636
N          -10.19108156977725       -1.95770009666380        1.03210527182594
N           -9.69475283586027       -0.26408311827556        2.49192551886179
C           -8.98424486680981        0.05782432305307        3.58138607494576
H           -8.25785281787857       -8.55916224395136        0.32104514261197
H           -6.99737458036348       -7.97049159201691        2.40265714292148
H           -7.11643140602629       -4.51599285053881        3.77180680749773
H           -6.47285818756875       -6.14473939377550        3.93789671911929
H           -7.90626702217221        1.92092653519917        5.95497825493412