      -----------------------------------------------------------      
     |                   =====================                   |     
     |                           x T B                           |     
     |                   =====================                   |     
     |                         S. Grimme                         |     
     |          Mulliken Center for Theoretical Chemistry        |     
     |                    University of Bonn                     |     
      -----------------------------------------------------------      

   * xtb version 6.7.1 (edcfbbe) compiled by 'runner@Mac-1756978095027.local' on 2025-09-04

   xtb is free software: you can redistribute it and/or modify it under
   the terms of the GNU Lesser General Public License as published by
   the Free Software Foundation, either version 3 of the License, or
   (at your option) any later version.
   
   xtb is distributed in the hope that it will be useful,
   but WITHOUT ANY WARRANTY; without even the implied warranty of
   MERCHANTABILITY or FITNESS FOR A PARTICULAR PURPOSE.  See the
   GNU Lesser General Public License for more details.
   
   Cite this work as:
   * C. Bannwarth, E. Caldeweyher, S. Ehlert, A. Hansen, P. Pracht,
     J. Seibert, S. Spicher, S. Grimme, WIREs Comput. Mol. Sci., 2020, 11,
     e01493. DOI: 10.1002/wcms.1493
   
   for GFN2-xTB:
   * C. Bannwarth, S. Ehlert and S. Grimme., J. Chem. Theory Comput., 2019,
     15, 1652-1671. DOI: 10.1021/acs.jctc.8b01176
   for GFN1-xTB:
   * S. Grimme, C. Bannwarth, P. Shushkov, J. Chem. Theory Comput., 2017,
     13, 1989-2009. DOI: 10.1021/acs.jctc.7b00118
   for GFN0-xTB:
   * P. Pracht, E. Caldeweyher, S. Ehlert, S. Grimme, ChemRxiv, 2019, preprint.
     DOI: 10.26434/chemrxiv.8326202.v1
   for GFN-FF:
   * S. Spicher and S. Grimme, Angew. Chem. Int. Ed., 2020, 59, 15665-15673.
     DOI: 10.1002/anie.202004239
   
   for ALPB and GBSA implicit solvation:
   * S. Ehlert, M. Stahn, S. Spicher, S. Grimme, J. Chem. Theory Comput.,
     2021, 17, 4250-4261. DOI: 10.1021/acs.jctc.1c00471
   
   for ddCOSMO and CPCM-X implicit solvation:
   * M. Stahn, S. Ehlert, S. Grimme, J. Phys. Chem. A,
     2023, XX, XXXX-XXXX. DOI: 10.1021/acs.jpca.3c04382
   
   for DFT-D4:
   * E. Caldeweyher, C. Bannwarth and S. Grimme, J. Chem. Phys., 2017,
     147, 034112. DOI: 10.1063/1.4993215
   * E. Caldeweyher, S. Ehlert, A. Hansen, H. Neugebauer, S. Spicher,
     C. Bannwarth and S. Grimme, J. Chem. Phys., 2019, 150, 154122.
     DOI: 10.1063/1.5090222
   * E. Caldeweyher, J.-M. Mewes, S. Ehlert and S. Grimme, Phys. Chem. Chem. Phys.
     2020, 22, 8499-8512. DOI: 10.1039/D0CP00502A
   
   for sTDA-xTB:
   * S. Grimme and C. Bannwarth, J. Chem. Phys., 2016, 145, 054103.
     DOI: 10.1063/1.4959605
   
   in the mass-spec context:
   * V. Asgeirsson, C. Bauer and S. Grimme, Chem. Sci., 2017, 8, 4879.
     DOI: 10.1039/c7sc00601b
   * J. Koopman and S. Grimme, ACS Omega 2019, 4, 12, 15120-15133.
     DOI: 10.1021/acsomega.9b02011
   
   for metadynamics refer to:
   * S. Grimme, J. Chem. Theory Comput., 2019, 155, 2847-2862
     DOI: 10.1021/acs.jctc.9b00143
   
   for SPH calculations refer to:
   * S. Spicher and S. Grimme, J. Chem. Theory Comput., 2021, 17, 1701-1714
     DOI: 10.1021/acs.jctc.0c01306
   
   for ONIOM refer to:
   * C. Plett, A. Katbashev, S. Ehlert, S. Grimme, M. Bursch,
     Phys. Chem. Chem. Phys., 2023, 25, 17860-17868. DOI: 10.1039/D3CP02178E
   
   for DIPRO refer to:
   * J. Kohn, N. Gildemeister, S. Grimme, D. Fazzi, A. Hansen,
     J. Chem. Phys., 2023, just accepted.
   
   for PTB refer to:
   * S. Grimme, M. Mueller, A. Hansen, J. Chem. Phys., 2023, 158, 124111.
     DOI: 10.1063/5.0137838
   
   with help from (in alphabetical order)
   P. Atkinson, C. Bannwarth, F. Bohle, G. Brandenburg, E. Caldeweyher
   M. Checinski, S. Dohm, S. Ehlert, S. Ehrlich, I. Gerasimov, C. Hölzer
   A. Katbashev, J. Kohn, J. Koopman, C. Lavigne, S. Lehtola, F. März, M. Müller,
   F. Musil, H. Neugebauer, J. Pisarek, C. Plett, P. Pracht, F. Pultar,
   J. Seibert, P. Shushkov, S. Spicher, M. Stahn, M. Steiner, T. Strunk,
   J. Stückrath, T. Rose, and J. Unsleber
   
 * started run on 2026/01/05 at 17:01:32.568     
   ID    Z sym.   atoms
    1    6 C      1-6
    2    1 H      7-10

           -------------------------------------------------
          |                Calculation Setup                |
           -------------------------------------------------

          program call               : xtb p_benzyne.xyz --opt loose --alpb toluene --uhf 2 --grad --json
          coordinate file            : p_benzyne.xyz
          omp threads                :                    10


           -------------------------------------------------
          |                 G F N 2 - x T B                 |
           -------------------------------------------------

        Reference                      10.1021/acs.jctc.8b01176
      * Hamiltonian:
        H0-scaling (s, p, d)           1.850000    2.230000    2.230000
        zeta-weighting                 0.500000
      * Dispersion:
        s8                             2.700000
        a1                             0.520000
        a2                             5.000000
        s9                             5.000000
      * Repulsion:
        kExp                           1.500000    1.000000
        rExp                           1.000000
      * Coulomb:
        alpha                          2.000000
        third order                    shell-resolved
        anisotropic                    true
        a3                             3.000000
        a5                             4.000000
        cn-shift                       1.200000
        cn-exp                         4.000000
        max-rad                        5.000000

      * Solvation model:               ALPB
        Solvent                        toluene
        Parameter file                 internal GFN2-xTB/ALPB
        Dielectric constant                7.0000E+00
        Reference state                gsolv [1 M gas/solution]
        Free energy shift                  2.2081E-03 Eh       1.3856E+00 kcal/mol
        Temperature                        2.9815E+02 K
        Density                            8.6700E-01 kg/L
        Solvent mass                       7.8110E+01 g/mol
        Interaction kernel             P16
        Born radius scaling (c1)           1.7172E+00
        Born radii integrator          GBOBC
        Born offset                        0.0000E+00 a0       0.0000E+00 AA
        H-bond correction              false
        Ion screening                  false
        Surface tension                    1.0000E-05 Eh       1.5569E+01 dyn/cm
        Grid points                               230 per atom
q/qsh data taken from xtbrestart
CAMM data taken from xtbrestart

          ...................................................
          :                      SETUP                      :
          :.................................................:
          :  # basis functions                  28          :
          :  # atomic orbitals                  28          :
          :  # shells                           16          :
          :  # electrons                        28          :
          :  max. iterations                   250          :
          :  Hamiltonian                  GFN2-xTB          :
          :  restarted?                       true          :
          :  GBSA solvation                   true          :
          :  PC potential                    false          :
          :  electronic temp.          300.0000000     K    :
          :  accuracy                    1.0000000          :
          :  -> integral cutoff          0.2500000E+02      :
          :  -> integral neglect         0.1000000E-07      :
          :  -> SCF convergence          0.1000000E-05 Eh   :
          :  -> wf. convergence          0.1000000E-03 e    :
          :  Broyden damping             0.4000000          :
          :  net charge                          0          :
          :  unpaired electrons                  2          :
          ...................................................

 iter      E             dE          RMSdq      gap      omega  full diag
   1    -14.9061966 -0.149062E+02  0.861E-01    2.28       0.0  T
   2    -14.9062826 -0.860312E-04  0.513E-01    2.34       1.0  T
   3    -14.9060253  0.257281E-03  0.187E-01    2.24       1.0  T
   4    -14.9063402 -0.314869E-03  0.173E-02    2.30       1.8  T
   5    -14.9063400  0.175801E-06  0.668E-03    2.30       4.7  T
   6    -14.9063402 -0.253503E-06  0.274E-03    2.30      11.5  T
   7    -14.9063403 -0.432901E-07  0.659E-04    2.30      48.0  T
   8    -14.9063403 -0.384965E-08  0.252E-04    2.30     125.3  T

   *** convergence criteria satisfied after 8 iterations ***

         #    Occupation            Energy/Eh            Energy/eV
      -------------------------------------------------------------
         1        2.0000           -0.6457471             -17.5717
       ...           ...                  ...                  ...
         9        2.0000           -0.4855151             -13.2115
        10        2.0000           -0.4754915             -12.9388
        11        2.0000           -0.4298546             -11.6969
        12        2.0000           -0.4097115             -11.1488
        13        2.0000           -0.4036053             -10.9827
        14        1.0000           -0.3689142             -10.0387
        15        1.0000           -0.3227461              -8.7824 (HOMO)
        16                         -0.2383157              -6.4849 (LUMO)
        17                         -0.2290568              -6.2330
        18                         -0.1112921              -3.0284
        19                          0.1242638               3.3814
        20                          0.1342171               3.6522
       ...                                ...                  ...
        28                          0.5693521              15.4929
      -------------------------------------------------------------
                  HL-Gap            0.0844304 Eh            2.2975 eV
             Fermi-level           -0.3333950 Eh           -9.0721 eV

 transition dipole moment (au) for excitation:          14          15
     X       Y       Z   
  -2.2168  -0.0062  -1.2796  total (au/Debye):    2.560   6.506
 dE (eV)             :    1.256
 oscillator strength :  0.28518E+00

 SCC (total)                   0 d,  0 h,  0 min,  0.169 sec
 SCC setup                      ...        0 min,  0.005 sec (  2.675%)
 Dispersion                     ...        0 min,  0.001 sec (  0.580%)
 classical contributions        ...        0 min,  0.002 sec (  0.950%)
 integral evaluation            ...        0 min,  0.001 sec (  0.373%)
 iterations                     ...        0 min,  0.153 sec ( 90.432%)
 molecular gradient             ...        0 min,  0.006 sec (  3.722%)
 printout                       ...        0 min,  0.002 sec (  1.258%)

         :::::::::::::::::::::::::::::::::::::::::::::::::::::
         ::                     SUMMARY                     ::
         :::::::::::::::::::::::::::::::::::::::::::::::::::::
         :: total energy             -14.651339559097 Eh    ::
         :: total w/o Gsasa/hb       -14.644910849189 Eh    ::
         :: gradient norm              0.060719403543 Eh/a0 ::
         :: HOMO-LUMO gap              2.297468166261 eV    ::
         ::.................................................::
         :: SCC energy               -14.906337596192 Eh    ::
         :: -> isotropic ES           -0.000031538967 Eh    ::
         :: -> anisotropic ES          0.001207079385 Eh    ::
         :: -> anisotropic XC          0.011181955852 Eh    ::
         :: -> dispersion             -0.006726325483 Eh    ::
         :: -> Gsolv                  -0.006558385831 Eh    ::
         ::    -> Gelec               -0.000129675922 Eh    ::
         ::    -> Gsasa               -0.008636853047 Eh    ::
         ::    -> Ghb                  0.000000000000 Eh    ::
         ::    -> Gshift               0.002208143139 Eh    ::
         :: repulsion energy           0.254998037094 Eh    ::
         :: add. restraining           0.000000000000 Eh    ::
         :: total charge               0.000000000019 e     ::
         :::::::::::::::::::::::::::::::::::::::::::::::::::::

      ----------------------------------------------------------- 
     |                   =====================                   |
     |                        A N C O P T                        |
     |                   =====================                   |
     |               Approximate Normal Coordinate               |
     |                Rational Function Optimizer                |
      ----------------------------------------------------------- 
      ----------------------------------------------------------- 
     |                   =====================                   |
     |                        A N C O P T                        |
     |                   =====================                   |
     |               Approximate Normal Coordinate               |
     |                Rational Function Optimizer                |
      ----------------------------------------------------------- 

          ...................................................
          :                      SETUP                      :
          :.................................................:
          :   optimization level             loose          :
          :   max. optcycles                   200          :
          :   ANC micro-cycles                  20          :
          :   degrees of freedom                24          :
          :.................................................:
          :   RF solver                   davidson          :
          :   write xtbopt.log                true          :
          :   linear?                        false          :
          :   energy convergence         0.5000000E-04 Eh   :
          :   grad. convergence          0.4000000E-02 Eh/α :
          :   maxmium RF displ.          1.0000000          :
          :   Hlow (freq-cutoff)         0.1000000E-01      :
          :   Hmax (freq-cutoff)         5.0000000          :
          :   S6 in model hess.         20.0000000          :
          ...................................................

generating ANC from exact Hessian ...
Using Lindh-Hessian (1995)
 Shifting diagonal of input Hessian by    0.0000000000000000     
 Lowest  eigenvalues of input Hessian
    0.000000    0.000000    0.000000    0.000000    0.000000    0.000000
    0.011510    0.017825    0.037642    0.046006    0.072572    0.087966
    0.095509    0.099875    0.107308    0.115033    0.135432    0.169795
 Highest eigenvalues
    1.132527    1.389451    1.409246    1.757354    1.780169    1.795564


........................................................................
.............................. CYCLE    1 ..............................
........................................................................

 iter      E             dE          RMSdq      gap      omega  full diag
   1    -14.9063403 -0.149063E+02  0.128E-04    2.30       0.0  T
   2    -14.9063403 -0.157439E-10  0.761E-05    2.30     415.6  T
   3    -14.9063403 -0.967582E-11  0.515E-05    2.30     613.9  T
     SCC iter.                  ...        0 min,  0.036 sec
     gradient                   ...        0 min,  0.009 sec
 * total energy  :   -14.6513396 Eh     change       -0.2094183E-09 Eh
   gradient norm :     0.0587511 Eh/α   predicted     0.0000000E+00 (-100.00%)
   displ. norm   :     0.3368039 α      lambda       -0.1006440E-01
   maximum displ.:     0.2347135 α      in ANC's #2, #1, #15, ...

........................................................................
.............................. CYCLE    2 ..............................
........................................................................

 iter      E             dE          RMSdq      gap      omega  full diag
   1    -14.9345648 -0.149346E+02  0.511E-01    2.33       0.0  T
   2    -14.9345747 -0.986764E-05  0.302E-01    2.32       1.0  T
   3    -14.9345567  0.180287E-04  0.519E-02    2.34       1.0  T
   4    -14.9345800 -0.233592E-04  0.930E-03    2.32       3.4  T
   5    -14.9345800  0.319840E-07  0.421E-03    2.32       7.5  T
   6    -14.9345801 -0.765074E-07  0.161E-03    2.32      19.7  T
   7    -14.9345801 -0.544674E-08  0.280E-04    2.32     112.9  T
   8    -14.9345801 -0.101126E-09  0.147E-04    2.32     215.0  T
     SCC iter.                  ...        0 min,  0.162 sec
     gradient                   ...        0 min,  0.007 sec
 * total energy  :   -14.6559363 Eh     change       -0.4596772E-02 Eh
   gradient norm :     0.0564381 Eh/α   predicted    -0.5603032E-02 (  21.89%)
   displ. norm   :     0.3014385 α      lambda       -0.8277277E-02
   maximum displ.:     0.1590145 α      in ANC's #4, #15, #2, ...

........................................................................
.............................. CYCLE    3 ..............................
........................................................................

 iter      E             dE          RMSdq      gap      omega  full diag
   1    -14.9603546 -0.149604E+02  0.611E-01    2.17       0.0  T
   2    -14.9603943 -0.396485E-04  0.364E-01    2.14       1.0  T
   3    -14.9603256  0.686987E-04  0.101E-01    2.20       1.0  T
   4    -14.9604120 -0.864751E-04  0.104E-02    2.16       3.0  T
   5    -14.9604120  0.306716E-07  0.344E-03    2.16       9.2  T
   6    -14.9604121 -0.784170E-07  0.760E-04    2.16      41.6  T
   7    -14.9604121 -0.211197E-08  0.257E-04    2.16     123.3  T
     SCC iter.                  ...        0 min,  0.140 sec
     gradient                   ...        0 min,  0.006 sec
 * total energy  :   -14.6584102 Eh     change       -0.2473904E-02 Eh
   gradient norm :     0.0538552 Eh/α   predicted    -0.4514697E-02 (  82.49%)
   displ. norm   :     0.1743817 α      lambda       -0.4036033E-02
   maximum displ.:     0.1113762 α      in ANC's #4, #2, #11, ...

........................................................................
.............................. CYCLE    4 ..............................
........................................................................

 iter      E             dE          RMSdq      gap      omega  full diag
   1    -14.9597714 -0.149598E+02  0.313E-01    2.10       0.0  T
   2    -14.9597773 -0.590527E-05  0.185E-01    2.10       1.0  T
   3    -14.9597681  0.921417E-05  0.360E-02    2.10       1.0  T
   4    -14.9597796 -0.114583E-04  0.601E-03    2.10       5.3  T
   5    -14.9597796 -0.722490E-07  0.196E-03    2.10      16.1  T
   6    -14.9597796 -0.739143E-08  0.110E-03    2.10      28.9  T
   7    -14.9597797 -0.399401E-08  0.154E-04    2.10     205.1  T
   8    -14.9597797 -0.195826E-10  0.814E-05    2.10     388.3  T
     SCC iter.                  ...        0 min,  0.137 sec
     gradient                   ...        0 min,  0.004 sec
 * total energy  :   -14.6607001 Eh     change       -0.2289905E-02 Eh
   gradient norm :     0.0244777 Eh/α   predicted    -0.2079383E-02 (  -9.19%)
   displ. norm   :     0.1169268 α      lambda       -0.1727818E-02
   maximum displ.:     0.0583610 α      in ANC's #11, #1, #15, ...

........................................................................
.............................. CYCLE    5 ..............................
........................................................................

 iter      E             dE          RMSdq      gap      omega  full diag
   1    -14.9463964 -0.149464E+02  0.199E-01    2.04       0.0  T
   2    -14.9463980 -0.160360E-05  0.118E-01    2.05       1.0  T
   3    -14.9463962  0.184006E-05  0.163E-02    2.04       1.9  T
   4    -14.9463988 -0.257392E-05  0.401E-03    2.05       7.9  T
   5    -14.9463988  0.142420E-08  0.155E-03    2.05      20.4  T
   6    -14.9463988 -0.131551E-07  0.669E-04    2.05      47.3  T
   7    -14.9463988 -0.177313E-08  0.112E-04    2.05     283.0  T
     SCC iter.                  ...        0 min,  0.141 sec
     gradient                   ...        0 min,  0.012 sec
 * total energy  :   -14.6615255 Eh     change       -0.8253626E-03 Eh
   gradient norm :     0.0133357 Eh/α   predicted    -0.8757202E-03 (   6.10%)
   displ. norm   :     0.0662852 α      lambda       -0.4408865E-03
   maximum displ.:     0.0398913 α      in ANC's #1, #2, #10, ...

........................................................................
.............................. CYCLE    6 ..............................
........................................................................

 iter      E             dE          RMSdq      gap      omega  full diag
   1    -14.9504489 -0.149504E+02  0.106E-01    2.01       0.0  T
   2    -14.9504496 -0.694087E-06  0.630E-02    2.01       1.0  T
   3    -14.9504485  0.113457E-05  0.128E-02    2.02       2.5  T
   4    -14.9504499 -0.144808E-05  0.203E-03    2.01      15.6  T
   5    -14.9504499  0.106093E-09  0.799E-04    2.01      39.6  T
   6    -14.9504499 -0.168704E-08  0.362E-04    2.01      87.4  T
     SCC iter.                  ...        0 min,  0.109 sec
     gradient                   ...        0 min,  0.005 sec
 * total energy  :   -14.6617953 Eh     change       -0.2698385E-03 Eh
   gradient norm :     0.0060994 Eh/α   predicted    -0.2214139E-03 ( -17.95%)
   displ. norm   :     0.0404873 α      lambda       -0.1121316E-03
   maximum displ.:     0.0246831 α      in ANC's #1, #10, #5, ...

........................................................................
.............................. CYCLE    7 ..............................
........................................................................

 iter      E             dE          RMSdq      gap      omega  full diag
   1    -14.9521543 -0.149522E+02  0.702E-02    2.00       0.0  T
   2    -14.9521547 -0.353633E-06  0.412E-02    2.00       1.0  T
   3    -14.9521540  0.719505E-06  0.996E-03    2.01       3.2  T
   4    -14.9521549 -0.886994E-06  0.125E-03    2.00      25.3  T
   5    -14.9521549  0.636549E-09  0.769E-04    2.00      41.1  T
   6    -14.9521549 -0.325160E-08  0.181E-04    2.00     174.7  T
     SCC iter.                  ...        0 min,  0.082 sec
     gradient                   ...        0 min,  0.007 sec
 * total energy  :   -14.6618481 Eh     change       -0.5274537E-04 Eh
   gradient norm :     0.0021123 Eh/α   predicted    -0.5615769E-04 (   6.47%)
   displ. norm   :     0.0220113 α      lambda       -0.1700480E-04
   maximum displ.:     0.0165856 α      in ANC's #1, #2, #4, ...

........................................................................
.............................. CYCLE    8 ..............................
........................................................................

 iter      E             dE          RMSdq      gap      omega  full diag
   1    -14.9520166 -0.149520E+02  0.302E-02    2.01       0.0  T
   2    -14.9520166 -0.244863E-07  0.180E-02    2.01       1.8  T
   3    -14.9520166  0.735422E-07  0.282E-03    2.01      11.2  T
   4    -14.9520167 -0.893349E-07  0.394E-04    2.01      80.2  T
   5    -14.9520167 -0.482459E-10  0.224E-04    2.01     141.3  T
     SCC iter.                  ...        0 min,  0.084 sec
     gradient                   ...        0 min,  0.010 sec
 * total energy  :   -14.6618570 Eh     change       -0.8872909E-05 Eh
   gradient norm :     0.0011816 Eh/α   predicted    -0.8507221E-05 (  -4.12%)
   displ. norm   :     0.0170405 α      lambda       -0.3404821E-05
   maximum displ.:     0.0160934 α      in ANC's #1, #4, #15, ...

   *** GEOMETRY OPTIMIZATION CONVERGED AFTER 8 ITERATIONS ***

------------------------------------------------------------------------
 total energy gain   :        -0.0105174 Eh       -6.5998 kcal/mol
 total RMSD          :         0.1537828 a0        0.0814 Å
 total power (kW/mol):        -3.4516786 (step)  -27.0747 (real)
------------------------------------------------------------------------

 ANCopt (total)                0 d,  0 h,  0 min,  1.020 sec
 optimizer setup                ...        0 min,  0.000 sec (  0.028%)
 model hessian                  ...        0 min,  0.001 sec (  0.067%)
 ANC generation                 ...        0 min,  0.000 sec (  0.020%)
 coordinate transformation      ...        0 min,  0.000 sec (  0.002%)
 single point calculation       ...        0 min,  1.005 sec ( 98.519%)
 optimization log               ...        0 min,  0.001 sec (  0.120%)
 hessian update                 ...        0 min,  0.006 sec (  0.622%)
 rational function              ...        0 min,  0.006 sec (  0.571%)

================
 final structure:
================
10
 xtb: 6.7.1 (edcfbbe)
C            0.07990564801684        0.00868420361196        0.04681946997894
C           -0.00032740529112        0.07368360334518        1.41225378693780
C            1.21126498618502        0.09139358083341        2.10705178573726
C            2.35088697822143        0.03159161048275        1.35067165275254
C            2.43081946589588       -0.03949245685150       -0.01466121492876
C            1.21992578988706       -0.04587890970530       -0.70997907542616
H           -0.94671693488718        0.10740321231295        1.93093126499939
H            1.24001721244197        0.14675201184146        3.18638679960517
H            3.37765905320344       -0.08596901575362       -0.53269201326485
H            1.19099320632667       -0.09164884011729       -1.78919045639134

 Bond Distances (Angstroems)
 ---------------------------
C1-C2=1.3693         C1-C6=1.3694         C2-C1=1.3693         C2-C3=1.3968         C2-H7=1.0797         C3-C2=1.3968         
C3-C4=1.3691         C3-H8=1.0811         C4-C3=1.3691         C4-C5=1.3695         C5-C4=1.3695         C5-C6=1.3963         
C5-H9=1.0803         C6-C1=1.3694         C6-C5=1.3963         C6-H10=1.0806        H7-C2=1.0797         H8-C3=1.0811         
H9-C5=1.0803         H10-C6=1.0806        
 C  H  Rav=1.0804 sigma=0.0005  Rmin=1.0797  Rmax=1.0811     4
 C  C  Rav=1.3784 sigma=0.0128  Rmin=1.3691  Rmax=1.3968     6

 selected bond angles (degree)
 --------------------
C6-C1-C2=126.99                C3-C2-C1=116.47                H7-C2-C1=122.13                H7-C2-C3=121.40                
C4-C3-C2=116.53                H8-C3-C2=121.35                H8-C3-C4=122.12                C5-C4-C3=126.99                
C6-C5-C4=116.49                H9-C5-C4=122.10                H9-C5-C6=121.40                C5-C6-C1=116.52                
H10-C6-C1=122.10               H10-C6-C5=121.38               

 selected dihedral angles (degree)
 ---------------------------------
C3-C2-C1-C6=  0.27            H7-C2-C1-C6=180.40            C4-C3-C2-C1=359.52            C4-C3-C2-H7=179.38            
H8-C3-C2-C1=179.68            H8-C3-C2-H7=359.55            C5-C4-C3-C2=  0.22            C5-C4-C3-H8=180.05            
C6-C5-C4-C3=  0.30            H9-C5-C4-C3=180.15            C5-C6-C1-C2=  0.25            H10-C6-C1-C2=180.25           
C1-C6-C5-C4=359.49            C1-C6-C5-H9=179.63            H10-C6-C5-C4=179.49           H10-C6-C5-H9=359.63           
           -------------------------------------------------
          |                Final Singlepoint                |
           -------------------------------------------------

          ...................................................
          :                      SETUP                      :
          :.................................................:
          :  # basis functions                  28          :
          :  # atomic orbitals                  28          :
          :  # shells                           16          :
          :  # electrons                        28          :
          :  max. iterations                   250          :
          :  Hamiltonian                  GFN2-xTB          :
          :  restarted?                      false          :
          :  GBSA solvation                   true          :
          :  PC potential                    false          :
          :  electronic temp.          300.0000000     K    :
          :  accuracy                    1.0000000          :
          :  -> integral cutoff          0.2500000E+02      :
          :  -> integral neglect         0.1000000E-07      :
          :  -> SCF convergence          0.1000000E-05 Eh   :
          :  -> wf. convergence          0.1000000E-03 e    :
          :  Broyden damping             0.4000000          :
          :  net charge                          0          :
          :  unpaired electrons                  2          :
          ...................................................

 iter      E             dE          RMSdq      gap      omega  full diag
   1    -14.9520167 -0.149520E+02  0.445E-05    2.01       0.0  T
   2    -14.9520167 -0.292566E-11  0.239E-05    2.01    1325.4  T
   3    -14.9520167 -0.154543E-12  0.160E-05    2.01    1982.6  T

   *** convergence criteria satisfied after 3 iterations ***

         #    Occupation            Energy/Eh            Energy/eV
      -------------------------------------------------------------
         1        2.0000           -0.6494135             -17.6714
       ...           ...                  ...                  ...
         9        2.0000           -0.4866656             -13.2428
        10        2.0000           -0.4812511             -13.0955
        11        2.0000           -0.4341373             -11.8135
        12        2.0000           -0.4111898             -11.1890
        13        2.0000           -0.4045140             -11.0074
        14        1.0000           -0.3538042              -9.6275
        15        1.0000           -0.3086961              -8.4000 (HOMO)
        16                         -0.2348646              -6.3910 (LUMO)
        17                         -0.2147651              -5.8441
        18                         -0.0916907              -2.4950
        19                          0.1300270               3.5382
        20                          0.1442442               3.9251
       ...                                ...                  ...
        28                          0.6553553              17.8331
      -------------------------------------------------------------
                  HL-Gap            0.0738316 Eh            2.0091 eV
             Fermi-level           -0.3254696 Eh           -8.8565 eV

 transition dipole moment (au) for excitation:          14          15
     X       Y       Z   
  -2.0668  -0.0209  -1.1867  total (au/Debye):    2.383   6.058
 dE (eV)             :    1.227
 oscillator strength :  0.24157E+00

 SCC (total)                   0 d,  0 h,  0 min,  0.054 sec
 SCC setup                      ...        0 min,  0.001 sec (  2.564%)
 Dispersion                     ...        0 min,  0.001 sec (  2.638%)
 classical contributions        ...        0 min,  0.000 sec (  0.493%)
 integral evaluation            ...        0 min,  0.003 sec (  6.151%)
 iterations                     ...        0 min,  0.045 sec ( 83.032%)
 molecular gradient             ...        0 min,  0.001 sec (  2.721%)
 printout                       ...        0 min,  0.001 sec (  2.378%)

         :::::::::::::::::::::::::::::::::::::::::::::::::::::
         ::                     SUMMARY                     ::
         :::::::::::::::::::::::::::::::::::::::::::::::::::::
         :: total energy             -14.661856959008 Eh    ::
         :: total w/o Gsasa/hb       -14.655577137604 Eh    ::
         :: gradient norm              0.001181959529 Eh/a0 ::
         :: HOMO-LUMO gap              2.009059622602 eV    ::
         ::.................................................::
         :: SCC energy               -14.952014229112 Eh    ::
         :: -> isotropic ES            0.000545854931 Eh    ::
         :: -> anisotropic ES          0.000535184493 Eh    ::
         :: -> anisotropic XC          0.011400584781 Eh    ::
         :: -> dispersion             -0.006740949744 Eh    ::
         :: -> Gsolv                  -0.006398930400 Eh    ::
         ::    -> Gelec               -0.000119108995 Eh    ::
         ::    -> Gsasa               -0.008487964543 Eh    ::
         ::    -> Ghb                  0.000000000000 Eh    ::
         ::    -> Gshift               0.002208143139 Eh    ::
         :: repulsion energy           0.290157270103 Eh    ::
         :: add. restraining           0.000000000000 Eh    ::
         :: total charge               0.000000000000 e     ::
         :::::::::::::::::::::::::::::::::::::::::::::::::::::

           -------------------------------------------------
          |                Property Printout                |
           -------------------------------------------------

    * Orbital Energies and Occupations

         #    Occupation            Energy/Eh            Energy/eV
      -------------------------------------------------------------
         1        2.0000           -0.6494135             -17.6714
       ...           ...                  ...                  ...
         3        2.0000           -0.6097083             -16.5910
         4        2.0000           -0.5753163             -15.6552
         5        2.0000           -0.5650058             -15.3746
         6        2.0000           -0.5156459             -14.0314
         7        2.0000           -0.4979057             -13.5487
         8        2.0000           -0.4950463             -13.4709
         9        2.0000           -0.4866656             -13.2428
        10        2.0000           -0.4812511             -13.0955
        11        2.0000           -0.4341373             -11.8135
        12        2.0000           -0.4111898             -11.1890
        13        2.0000           -0.4045140             -11.0074
        14        1.0000           -0.3538042              -9.6275
        15        1.0000           -0.3086961              -8.4000 (HOMO)
        16                         -0.2348646              -6.3910 (LUMO)
        17                         -0.2147651              -5.8441
        18                         -0.0916907              -2.4950
        19                          0.1300270               3.5382
        20                          0.1442442               3.9251
        21                          0.1769360               4.8147
        22                          0.1963801               5.3438
        23                          0.3394707               9.2375
        24                          0.3833905              10.4326
        25                          0.4168820              11.3439
        26                          0.5090961              13.8532
       ...                                ...                  ...
        28                          0.6553553              17.8331
      -------------------------------------------------------------
                  HL-Gap            0.0738316 Eh            2.0091 eV
             Fermi-level           -0.3254696 Eh           -8.8565 eV

     #   Z          covCN         q      C6AA      α(0)
     1   6 C        2.022    -0.060    32.638     9.227
     2   6 C        2.925    -0.018    28.453     8.748
     3   6 C        2.925    -0.018    28.450     8.747
     4   6 C        2.022    -0.060    32.638     9.227
     5   6 C        2.925    -0.018    28.452     8.747
     6   6 C        2.925    -0.018    28.451     8.747
     7   1 H        0.926     0.048     2.346     2.395
     8   1 H        0.926     0.048     2.349     2.397
     9   1 H        0.926     0.048     2.348     2.396
    10   1 H        0.926     0.048     2.348     2.396

 Mol. C6AA /au·bohr⁶  :       1511.991507
 Mol. C8AA /au·bohr⁸  :      38995.681146
 Mol. α(0) /au        :         63.027243


Wiberg/Mayer (AO) data.
largest (>0.10) Wiberg bond orders for each atom

 ---------------------------------------------------------------------------
     #   Z sym  total        # sym  WBO       # sym  WBO       # sym  WBO
 ---------------------------------------------------------------------------
     1   6 C    3.215 --     2 C    1.479     6 C    1.478     4 C    0.122
     2   6 C    3.985 --     1 C    1.479     3 C    1.363     7 H    0.956
                             5 C    0.124
     3   6 C    3.985 --     4 C    1.479     2 C    1.363     8 H    0.956
                             6 C    0.123
     4   6 C    3.215 --     3 C    1.479     5 C    1.478     1 C    0.122
     5   6 C    3.985 --     4 C    1.478     6 C    1.364     9 H    0.956
                             2 C    0.124
     6   6 C    3.985 --     1 C    1.478     5 C    1.364    10 H    0.956
                             3 C    0.123
     7   1 H    0.997 --     2 C    0.956
     8   1 H    0.997 --     3 C    0.956
     9   1 H    0.997 --     5 C    0.956
    10   1 H    0.997 --     6 C    0.956
 ---------------------------------------------------------------------------

Topologies differ in total number of bonds
Writing topology from bond orders to xtbtopo.mol

molecular dipole:
                 x           y           z       tot (Debye)
 q only:       -0.000      -0.000      -0.000
   full:       -0.000      -0.001      -0.000       0.002
molecular quadrupole (traceless):
                xx          xy          yy          xz          yz          zz
 q only:       -0.212      -0.102      -1.485      -1.646       0.181       1.697
  q+dip:        0.148      -0.263      -4.637      -3.735       0.501       4.490
   full:       -0.618      -0.166      -2.140      -2.902       0.282       2.758

           -------------------------------------------------
          |                Geometry Summary                 |
           -------------------------------------------------

      molecular mass/u    :       76.0961784
   center of mass at/Å    :        1.2154167       0.0199512       0.6987016
  moments of inertia/u·Å² :        0.7102038E+02   0.9074279E+02   0.1617618E+03
rotational constants/cm⁻¹ :        0.2373633E+00   0.1857738E+00   0.1042127E+00

 * 10 selected distances

     #   Z          #   Z                                           value/Å
     1   6 C        2   6 C                                       1.3693332
     2   6 C        3   6 C                                       1.3967872 (max)
     3   6 C        4   6 C                                       1.3690967
     4   6 C        5   6 C                                       1.3695168
     1   6 C        6   6 C                                       1.3694406
     5   6 C        6   6 C                                       1.3963422
     2   6 C        7   1 H                                       1.0797299 (min)
     3   6 C        8   1 H                                       1.0811362
     5   6 C        9   1 H                                       1.0802876
     6   6 C       10   1 H                                       1.0805690

 * 2 distinct bonds (by element types)

   Z      Z             #   av. dist./Å        max./Å        min./Å
   1 H    6 C           4     1.0804307     1.0811362     1.0797299
   6 C    6 C           6     1.3784195     1.3967872     1.3690967


optimized geometry written to: xtbopt.xyz


           -------------------------------------------------
          | TOTAL ENERGY              -14.661856959008 Eh   |
          | GRADIENT NORM               0.001181959529 Eh/α |
          | HOMO-LUMO GAP               2.009059622602 eV   |
           -------------------------------------------------

------------------------------------------------------------------------
 * finished run on 2026/01/05 at 17:01:33.861     
------------------------------------------------------------------------
 total:
 * wall-time:     0 d,  0 h,  0 min,  1.291 sec
 *  cpu-time:     0 d,  0 h,  0 min,  0.216 sec
 * ratio c/w:     0.167 speedup
 SCF:
 * wall-time:     0 d,  0 h,  0 min,  0.170 sec
 *  cpu-time:     0 d,  0 h,  0 min,  0.028 sec
 * ratio c/w:     0.163 speedup
 ANC optimizer:
 * wall-time:     0 d,  0 h,  0 min,  1.075 sec
 *  cpu-time:     0 d,  0 h,  0 min,  0.179 sec
 * ratio c/w:     0.166 speedup

