10
 energy: -14.661856959008 gnorm: 0.001181959529 xtb: 6.7.1 (edcfbbe)
C            0.07990564801684        0.00868420361196        0.04681946997894
C           -0.00032740529112        0.07368360334518        1.41225378693780
C            1.21126498618502        0.09139358083341        2.10705178573726
C            2.35088697822143        0.03159161048275        1.35067165275254
C            2.43081946589588       -0.03949245685150       -0.01466121492876
C            1.21992578988706       -0.04587890970530       -0.70997907542616
H           -0.94671693488718        0.10740321231295        1.93093126499939
H            1.24001721244197        0.14675201184146        3.18638679960517
H            3.37765905320344       -0.08596901575362       -0.53269201326485
H            1.19099320632667       -0.09164884011729       -1.78919045639134
