10
 energy: -14.651339559306 gnorm: 0.060718834471 xtb: 6.7.1 (edcfbbe)
C            0.00000000000000        0.00000000000000        0.00000000000000
C            0.00000000000000        0.00000000000000        1.40000000000000
C            1.21243600000000        0.00000000000000        2.10000000000000
C            2.42487100000000        0.00000000000000        1.40000000000000
C            2.42487100000000        0.00000000000000        0.00000000000000
C            1.20782200000000       -0.10567100000000       -0.70000000000000
H           -0.91096700000000        0.24409300000000        1.94450000000000
H            1.21960000000000        0.16376800000000        3.17659200000000
H            3.36797300000000        0.00000000000000       -0.54450000000000
H            1.20782200000000       -0.10567100000000       -1.78900000000000
10
 energy: -14.655936330818 gnorm: 0.056439541529 xtb: 6.7.1 (edcfbbe)
C            0.01705716851120        0.02876627788988        0.01285137895312
C            0.04166408244560        0.03939148817033        1.38848541167696
C            1.23582612749941        0.06513006993684        2.09557960211824
C            2.42269020430043        0.03152017955077        1.38345080913614
C            2.39712494086554        0.00037046271217        0.00608406537394
C            1.19856195935958       -0.06512987639076       -0.69824558366918
H           -0.90971250532117        0.14521038067508        1.91873152659200
H            1.20591215593465        0.14007102857555        3.18016675051891
H            3.34569345595651       -0.07673139904275       -0.51838369530294
H            1.19961041044826       -0.11207961207711       -1.78112826539718
10
 energy: -14.658410234341 gnorm: 0.053887155558 xtb: 6.7.1 (edcfbbe)
C            0.06866194336004        0.02776670551376        0.04352805425170
C            0.05543153495459        0.09971738191667        1.39711472090910
C            1.23781020741109        0.12762745991908        2.10338947857938
C            2.37635814903017        0.04696703726424        1.35057528794547
C            2.39173208009223       -0.05132794088041       -0.00433059778142
C            1.20570871342602       -0.03426236138529       -0.70827220333223
H           -0.92685113552799        0.07451721085041        1.91208649799133
H            1.20542470903809        0.11267830112767        3.19140700795099
H            3.34180995337101       -0.09494448126722       -0.51420171712038
H            1.19834184484475       -0.11222031305892       -1.78370452939394
10
 energy: -14.660700139402 gnorm: 0.024482080936 xtb: 6.7.1 (edcfbbe)
C            0.07209884863356        0.01306477064123        0.04708782909820
C            0.03480860563156        0.05345317544206        1.40820642797354
C            1.22820477094843        0.09070919421168        2.11300835541668
C            2.36448654796303        0.04458612616253        1.35152104960270
C            2.40215332492692       -0.03834607159315       -0.00908603704047
C            1.20951811605261       -0.03059627368818       -0.71447813333595
H           -0.91795253261086        0.10433817383088        1.91520642555649
H            1.21042313841358        0.15283374522102        3.18486016616079
H            3.35508433044463       -0.10434696776705       -0.51814339128071
H            1.19560284959655       -0.08917687246101       -1.79059069215126
10
 energy: -14.661525502031 gnorm: 0.013337351603 xtb: 6.7.1 (edcfbbe)
C            0.07138557069489        0.01996227635859        0.04091788044115
C            0.01139389964154        0.06164414771985        1.41255636357650
C            1.22003363642644        0.09671541738347        2.11585932235207
C            2.36240490419568        0.04124216059557        1.35519880179589
C            2.42114249392974       -0.03491501218782       -0.01471116851437
C            1.21476578048694       -0.04038842114212       -0.71842665433354
H           -0.94144435015916        0.08409347512639        1.92940418181305
H            1.22819610592002        0.16306821197694        3.19172400597604
H            3.37366583666804       -0.11737384652623       -0.52779932686136
H            1.19288412219588       -0.07752940930462       -1.79713140624543
10
 energy: -14.661795340533 gnorm: 0.006100322581 xtb: 6.7.1 (edcfbbe)
C            0.07787156293619        0.01296869565132        0.04482742033163
C            0.00377857273858        0.06552422016136        1.41318774018004
C            1.21528341793612        0.09457381284554        2.11226590629825
C            2.35362496441611        0.03259152782094        1.35195678293834
C            2.42637814185584       -0.04237749796848       -0.01474580198906
C            1.21746875067779       -0.04378901991171       -0.71507976076915
H           -0.94223485962068        0.09737719580511        1.92823364300176
H            1.23594664578119        0.15829274770801        3.18962663727259
H            3.37549579571250       -0.09662527282842       -0.52873071811574
H            1.19081500756637       -0.08201740928367       -1.79394984914867
10
 energy: -14.661848085908 gnorm: 0.002112620840 xtb: 6.7.1 (edcfbbe)
C            0.08057459890992        0.01040106815371        0.04704188763846
C            0.00007381727083        0.07320484747160        1.41271604380805
C            1.21194879499253        0.09143386199260        2.10810890366512
C            2.34976875821542        0.03151938064498        1.35003429972461
C            2.43010825796096       -0.03737223908751       -0.01491173940380
C            1.21975521684033       -0.04138830986459       -0.71122647886990
H           -0.94653043701061        0.10127404364958        1.93092326435926
H            1.24007781013395        0.15098733154984        3.18656648594637
H            3.37780790980404       -0.09244088964972       -0.53121541060882
H            1.19084327288263       -0.09110009486049       -1.79044525625935
10
 energy: -14.661856958816 gnorm: 0.001181902403 xtb: 6.7.1 (edcfbbe)
C            0.07990564801684        0.00868420361196        0.04681946997894
C           -0.00032740529112        0.07368360334518        1.41225378693780
C            1.21126498618502        0.09139358083341        2.10705178573726
C            2.35088697822143        0.03159161048275        1.35067165275254
C            2.43081946589588       -0.03949245685150       -0.01466121492876
C            1.21992578988706       -0.04587890970530       -0.70997907542616
H           -0.94671693488718        0.10740321231295        1.93093126499939
H            1.24001721244197        0.14675201184146        3.18638679960517
H            3.37765905320344       -0.08596901575362       -0.53269201326485
H            1.19099320632667       -0.09164884011729       -1.78919045639134
