49
3a_R.xyz    Empirical formula: C23H22NO2P    Energy(Hartree): -1433.831302    
C        1.8853050000    0.8202370000    1.5064890000
C        2.7540510000    1.8880890000    1.2323930000
C        1.9767280000   -0.3288460000    0.7342480000
C        3.6997270000    1.7862780000    0.2107510000
C        3.8265950000    0.6150310000   -0.5506510000
C        2.9590190000   -0.4330750000   -0.2624880000
N        2.9090590000   -1.7049230000   -0.8465620000
C        1.9342670000   -2.4828450000   -0.2517900000
C        1.1535140000   -1.5942000000    0.7297900000
C        0.9986700000   -2.2742630000    2.0879850000
H        0.3083830000   -1.6944060000    2.7169690000
H        1.9711910000   -2.3593110000    2.5936890000
H        0.5923300000   -3.2859780000    1.9371550000
O        1.7045250000   -3.6454420000   -0.5049790000
C       -0.2276990000   -1.4046280000    0.0527570000
H       -0.1190790000   -1.2480180000   -1.0348480000
H       -0.8076560000   -2.3349440000    0.1700800000
C        3.8163350000   -2.1974710000   -1.8493740000
H        3.7391710000   -1.6124720000   -2.7795070000
H        3.5449410000   -3.2414090000   -2.0537830000
H        4.8593000000   -2.1569270000   -1.4964860000
H        2.6823390000    2.8077600000    1.8166060000
H        4.3646500000    2.6284490000    0.0054470000
H        4.5837570000    0.5275640000   -1.3328040000
H        1.1217750000    0.8939490000    2.2861190000
P       -1.2580120000   -0.0518000000    0.7025190000
O       -1.3090990000    0.0444610000    2.2000630000
C       -0.6776000000    1.4904550000   -0.0556280000
C       -2.8863530000   -0.3808290000   -0.0124790000
C        0.0069120000    1.5792450000   -1.2748420000
C       -3.1294090000   -0.3541130000   -1.3921850000
C       -0.8822120000    2.6449610000    0.7119450000
C       -3.9200860000   -0.6871840000    0.8793240000
C        0.4857420000    2.8125830000   -1.7184690000
C       -4.4035410000   -0.6450560000   -1.8779230000
C       -0.4117880000    3.8780000000    0.2606780000
C       -5.1957480000   -0.9742240000    0.3888520000
C        0.2768430000    3.9613760000   -0.9517590000
C       -5.4353280000   -0.9557470000   -0.9865240000
H        0.2045940000    0.6852750000   -1.8728380000
H       -2.3254910000   -0.0925510000   -2.0877650000
H       -1.3844800000    2.5503400000    1.6785760000
H       -3.7014850000   -0.6880590000    1.9505050000
H        1.0340070000    2.8744710000   -2.6609300000
H       -4.5961290000   -0.6244860000   -2.9527230000
H       -0.5707180000    4.7751770000    0.8630870000
H       -6.0056820000   -1.2116950000    1.0820790000
H        0.6575870000    4.9245420000   -1.2989190000
H       -6.4336140000   -1.1805720000   -1.3688170000
