3
 energy: -5.070544443465 gnorm: 0.000074993109 xtb: 6.7.1 (edcfbbe)
O           -0.00000132395074       -0.00000066199833       -0.37930107266643
H            0.77220844999408       -0.00000371227127        0.18964789079532
H           -0.77220712604299        0.00000437426977        0.18965328187111
