3
 energy: -5.070451354560 gnorm: 0.006457564538 xtb: 6.7.1 (edcfbbe)
O            0.00000000000000        0.00000000000000       -0.38936110000000
H            0.76298440000000        0.00000000000000        0.19468060000000
H           -0.76298440000000        0.00000000000000        0.19468060000000
3
 energy: -5.070514571313 gnorm: 0.003874625279 xtb: 6.7.1 (edcfbbe)
O           -0.00000000073616        0.00000000000000       -0.38511308913920
H            0.76723282659156       -0.00000000000000        0.19255659485144
H           -0.76723282585540       -0.00000000000000        0.19255659428776
3
 energy: -5.070544384329 gnorm: 0.000321472022 xtb: 6.7.1 (edcfbbe)
O           -0.00000000036806        0.00000000000000       -0.37952331591284
H            0.77224659961973       -0.00000000000000        0.18976170809733
H           -0.77224659925167       -0.00000000000000        0.18976170781551
3
 energy: -5.070544443465 gnorm: 0.000075549242 xtb: 6.7.1 (edcfbbe)
O            0.00000000006324        0.00000000000000       -0.37930107266932
H            0.77220778800220       -0.00000000000000        0.18965058631045
H           -0.77220778806544       -0.00000000000000        0.18965058635887
