40
TS_rot1.log    Empirical formula: C23H15NO    Energy(Hartree): -1014.288938
C        -4.883328        0.048700        1.178773
C        -3.557859        0.370404        0.992957
C        -2.705020       -0.396278        0.144254
C        -3.257098       -1.610935       -0.365885
C        -4.640040       -1.890446       -0.210137
C        -5.453571       -1.065637        0.526431
H        -5.489337        0.649362        1.858724
H        -3.139980        1.190895        1.571008
C        -1.305840       -0.082015       -0.106517
C        -2.391190       -2.589210       -0.927996
H        -5.033207       -2.806508       -0.655819
H        -6.511488       -1.297607        0.654392
C        -1.043646       -2.415200       -0.828823
C        -0.482707       -1.181614       -0.384905
H        -2.814119       -3.511755       -1.329219
H        -0.338990       -3.202555       -1.097897
C        -0.796810        1.322847       -0.103294
C        -1.684274        2.417644        0.007018
C         0.541187        1.700619       -0.379901
C        -1.280884        3.747432        0.020940
C         0.964086        3.028584       -0.323959
C         0.067088        4.064118       -0.103163
H        -2.032692        4.531767        0.112726
H         2.019368        3.221840       -0.516551
H         0.412220        5.098122       -0.080954
O         1.528326        0.862150       -0.852831
N         0.889725       -1.255770       -0.154110
C         1.763080       -0.363420       -0.308097
C         3.190377       -0.599443        0.019311
C         3.581893       -1.846687        0.524801
C         4.146884        0.404075       -0.168629
C         4.914092       -2.081484        0.843073
H         2.820074       -2.614588        0.660219
C         5.482068        0.162810        0.150117
H         3.838169        1.368440       -0.569980
C         5.867144       -1.077043        0.656477
H         5.214569       -3.052783        1.238327
H         6.224826        0.947609        0.001125
H         6.912808       -1.263918        0.905934
H        -2.750705        2.227938        0.032304
