 Entering Gaussian System
 *********************************************
 Gaussian 98:
 frequency output generated by the xtb code
 *********************************************
                         Standard orientation:
 --------------------------------------------------------------------
  Center     Atomic     Atomic              Coordinates (Angstroms)
  Number     Number      Type              X           Y           Z
 --------------------------------------------------------------------
    1          8             0       -1.143652    0.000006    0.000004
    2          8             0        1.143652   -0.000006   -0.000004
    3          6             0        0.000000   -0.000000   -0.000000
 --------------------------------------------------------------------
     1 basis functions        1 primitive gaussians
     1 alpha electrons        1 beta electrons

 Harmonic frequencies (cm**-1), IR intensities (km*mol⁻¹),
 Raman scattering activities (A**4/amu), Raman depolarization ratios,
 reduced masses (AMU), force constants (mDyne/A) and normal coordinates:
                      1                      2                      3
                        a                      a                      a 
 Frequencies --   600.3117               600.3117              1424.7819
 Red. masses --    13.0986                13.0986                15.9994
 Frc consts  --     0.0000                 0.0000                 0.0000
 IR Inten    --    68.6947                68.6947                 0.0000
 Raman Activ --     0.0000                 0.0000                 0.0000
 Depolar     --     0.0000                 0.0000                 0.0000
 Atom AN      X      Y      Z        X      Y      Z        X      Y      Z
   1   8    -0.00  -0.37  -0.00    -0.00   0.00  -0.37    -0.71   0.00   0.00
   2   8    -0.00  -0.37  -0.00    -0.00   0.00  -0.37     0.71  -0.00  -0.00
   3   6     0.00   0.85   0.00     0.00  -0.00   0.85    -0.00   0.00  -0.00
                      4
                        a 
 Frequencies --  2593.0748
 Red. masses --    13.0994
 Frc consts  --     0.0000
 IR Inten    --  1046.6649
 Raman Activ --     0.0000
 Depolar     --     0.0000
 Atom AN      X      Y      Z        X      Y      Z        X      Y      Z
   1   8     0.37  -0.00  -0.00
   2   8     0.37  -0.00  -0.00
   3   6    -0.85   0.00   0.00
