3
 energy: -10.308452289174 gnorm: 0.000000274729 xtb: 6.7.1 (edcfbbe)
O           -1.14365140479619        0.00000598814475        0.00000399209650
O            1.14365140479619       -0.00000598814475       -0.00000399209650
C            0.00000000000000       -0.00000000000000       -0.00000000000000
