3
 energy: -10.297398913536 gnorm: 0.145777905395 xtb: 6.7.1 (edcfbbe)
O           -1.19700000000000        0.00000000000000        0.00000000000000
O            1.19700000000000        0.00000000000000        0.00000000000000
C            0.00000000000000        0.00000000000000        0.00000000000000
3
 energy: -10.308447045699 gnorm: 0.003599336377 xtb: 6.7.1 (edcfbbe)
O           -1.14255970720966       -0.00000000000000        0.00000000000000
O            1.14255970720966       -0.00000000000000        0.00000000000000
C            0.00000000000000        0.00000000000000       -0.00000000000000
3
 energy: -10.308452076580 gnorm: 0.000722530756 xtb: 6.7.1 (edcfbbe)
O           -1.14387146350746       -0.00000000000000        0.00000000000000
O            1.14387146350746       -0.00000000000000        0.00000000000000
C            0.00000000000000        0.00000000000000       -0.00000000000000
3
 energy: -10.308452237199 gnorm: 0.000357527060 xtb: 6.7.1 (edcfbbe)
O           -1.14354251405014       -0.00000000000000        0.00000000000000
O            1.14354251405014       -0.00000000000000        0.00000000000000
C            0.00000000000000        0.00000000000000       -0.00000000000000
3
 energy: -10.308452289174 gnorm: 0.000000306433 xtb: 6.7.1 (edcfbbe)
O           -1.14365140481883        0.00000000000000        0.00000000000000
O            1.14365140481883       -0.00000000000000        0.00000000000000
C            0.00000000000000       -0.00000000000000       -0.00000000000000
