45
udc3_mCF3_monomer_c1.xyz    Empirical formula: C20H10F12O3    Energy(Hartree): -2189.631874    
O        0.0000010000    1.5925890000   -0.0000220000
O       -0.9121270000    3.3615330000   -1.0674180000
O        0.9121130000    3.3615230000    1.0674050000
C       -1.0350620000    2.2755890000   -0.5999320000
C        1.0350540000    2.2755850000    0.5999080000
C       -2.2827540000    1.4613730000   -0.6355710000
C       -3.3879100000    1.9965760000   -1.2998480000
C       -2.3730200000    0.2069340000   -0.0317250000
C       -4.5751000000    1.2775160000   -1.3559520000
H       -3.2973240000    2.9786180000   -1.7658710000
C       -3.5672630000   -0.5061870000   -0.0888580000
H       -1.5125020000   -0.2129290000    0.4864830000
C       -4.6870940000    0.0191550000   -0.7539640000
H       -5.4406090000    1.6972590000   -1.8702940000
C        2.2827460000    1.4613690000    0.6355560000
C        3.3878950000    1.9965690000    1.2998490000
C        2.3730200000    0.2069340000    0.0317040000
C        4.5750850000    1.2775100000    1.3559610000
H        3.2973030000    2.9786080000    1.7658770000
C        3.5672640000   -0.5061870000    0.0888450000
H        1.5125080000   -0.2129270000   -0.4865160000
C        4.6870870000    0.0191530000    0.7539660000
H        5.4405880000    1.6972490000    1.8703160000
C       -6.0134920000   -0.7008540000   -0.8127150000
H       -5.9343060000   -1.7636650000   -0.5615590000
H       -6.4393390000   -0.6277790000   -1.8229780000
C        6.0134850000   -0.7008560000    0.8127290000
H        6.4393190000   -0.6277880000    1.8229980000
H        5.9343030000   -1.7636660000    0.5615650000
C        7.0321750000   -0.0907190000   -0.1282530000
C       -7.0321700000   -0.0907250000    0.1282850000
F       -7.3326970000    1.1635750000   -0.2275490000
F       -6.5944680000   -0.0533840000    1.3827350000
F       -8.1645370000   -0.7920880000    0.1084860000
F        8.1645420000   -0.7920820000   -0.1084440000
F        7.3326950000    1.1635780000    0.2275940000
F        6.5944900000   -0.0533700000   -1.3827080000
C        3.6301540000   -1.8712790000   -0.5565740000
C       -3.6301480000   -1.8712830000    0.5565550000
F       -2.4915380000   -2.1820940000    1.1706540000
F       -4.6086660000   -1.9481640000    1.4592620000
F       -3.8651110000   -2.8259280000   -0.3522120000
F        2.4915500000   -2.1820890000   -1.1706820000
F        4.6086790000   -1.9481560000   -1.4592740000
F        3.8651130000   -2.8259280000    0.3521910000
