 Entering Gaussian System, Link 0=/home/users/astar/bmsi/zhangx5/programs/g16/g16
 Input=/home/users/astar/bmsi/zhangx5/scratch/udc3_mCF3_monomer_c4/udc3_mCF3_monomer_c4.com
 Output=/home/users/astar/bmsi/zhangx5/scratch/udc3_mCF3_monomer_c4/udc3_mCF3_monomer_c4.log
 Initial command:
 /home/users/astar/bmsi/zhangx5/programs/g16/l1.exe "/scratch/users/astar/bmsi/zhangx5/udc3_mCF3_monomer_c4/Gau-3996583.inp" -scrdir="/scratch/users/astar/bmsi/zhangx5/udc3_mCF3_monomer_c4/"
 Entering Link 1 = /home/users/astar/bmsi/zhangx5/programs/g16/l1.exe PID=   3996585.
  
 Copyright (c) 1988-2017, Gaussian, Inc.  All Rights Reserved.
  
 This is part of the Gaussian(R) 16 program.  It is based on
 the Gaussian(R) 09 system (copyright 2009, Gaussian, Inc.),
 the Gaussian(R) 03 system (copyright 2003, Gaussian, Inc.),
 the Gaussian(R) 98 system (copyright 1998, Gaussian, Inc.),
 the Gaussian(R) 94 system (copyright 1995, Gaussian, Inc.),
 the Gaussian 92(TM) system (copyright 1992, Gaussian, Inc.),
 the Gaussian 90(TM) system (copyright 1990, Gaussian, Inc.),
 the Gaussian 88(TM) system (copyright 1988, Gaussian, Inc.),
 the Gaussian 86(TM) system (copyright 1986, Carnegie Mellon
 University), and the Gaussian 82(TM) system (copyright 1983,
 Carnegie Mellon University). Gaussian is a federally registered
 trademark of Gaussian, Inc.
  
 This software contains proprietary and confidential information,
 including trade secrets, belonging to Gaussian, Inc.
  
 This software is provided under written license and may be
 used, copied, transmitted, or stored only in accord with that
 written license.
  
 The following legend is applicable only to US Government
 contracts under FAR:
  
                    RESTRICTED RIGHTS LEGEND
  
 Use, reproduction and disclosure by the US Government is
 subject to restrictions as set forth in subparagraphs (a)
 and (c) of the Commercial Computer Software - Restricted
 Rights clause in FAR 52.227-19.
  
 Gaussian, Inc.
 340 Quinnipiac St., Bldg. 40, Wallingford CT 06492
  
  
 ---------------------------------------------------------------
 Warning -- This program may not be used in any manner that
 competes with the business of Gaussian, Inc. or will provide
 assistance to any competitor of Gaussian, Inc.  The licensee
 of this program is prohibited from giving any competitor of
 Gaussian, Inc. access to this program.  By using this program,
 the user acknowledges that Gaussian, Inc. is engaged in the
 business of creating and licensing software in the field of
 computational chemistry and represents and warrants to the
 licensee that it is not a competitor of Gaussian, Inc. and that
 it will not use this program in any manner prohibited above.
 ---------------------------------------------------------------
  

 Cite this work as:
 Gaussian 16, Revision B.01,
 M. J. Frisch, G. W. Trucks, H. B. Schlegel, G. E. Scuseria, 
 M. A. Robb, J. R. Cheeseman, G. Scalmani, V. Barone, 
 G. A. Petersson, H. Nakatsuji, X. Li, M. Caricato, A. V. Marenich, 
 J. Bloino, B. G. Janesko, R. Gomperts, B. Mennucci, H. P. Hratchian, 
 J. V. Ortiz, A. F. Izmaylov, J. L. Sonnenberg, D. Williams-Young, 
 F. Ding, F. Lipparini, F. Egidi, J. Goings, B. Peng, A. Petrone, 
 T. Henderson, D. Ranasinghe, V. G. Zakrzewski, J. Gao, N. Rega, 
 G. Zheng, W. Liang, M. Hada, M. Ehara, K. Toyota, R. Fukuda, 
 J. Hasegawa, M. Ishida, T. Nakajima, Y. Honda, O. Kitao, H. Nakai, 
 T. Vreven, K. Throssell, J. A. Montgomery, Jr., J. E. Peralta, 
 F. Ogliaro, M. J. Bearpark, J. J. Heyd, E. N. Brothers, K. N. Kudin, 
 V. N. Staroverov, T. A. Keith, R. Kobayashi, J. Normand, 
 K. Raghavachari, A. P. Rendell, J. C. Burant, S. S. Iyengar, 
 J. Tomasi, M. Cossi, J. M. Millam, M. Klene, C. Adamo, R. Cammi, 
 J. W. Ochterski, R. L. Martin, K. Morokuma, O. Farkas, 
 J. B. Foresman, and D. J. Fox, Gaussian, Inc., Wallingford CT, 2016.
 
 ******************************************
 Gaussian 16:  ES64L-G16RevB.01 20-Dec-2017
                30-Sep-2023 
 ******************************************
 %chk=udc3_mCF3_monomer_c4.chk
 %nprocshared=64
 Will use up to   64 processors via shared memory.
 %mem=64GB
 ------------------------
 # opt freq m062x def2svp
 ------------------------
 1/18=20,19=15,26=3,38=1/1,3;
 2/9=110,12=2,17=6,18=5,40=1/2;
 3/5=43,7=101,11=2,25=1,30=1,71=1,74=-55/1,2,3;
 4//1;
 5/5=2,38=5/2;
 6/7=2,8=2,9=2,10=2,28=1/1;
 7//1,2,3,16;
 1/18=20,19=15,26=3/3(2);
 2/9=110/2;
 99//99;
 2/9=110/2;
 3/5=43,7=101,11=2,25=1,30=1,71=1,74=-55/1,2,3;
 4/5=5,16=3,69=1/1;
 5/5=2,38=5/2;
 7//1,2,3,16;
 1/18=20,19=15,26=3/3(-5);
 2/9=110/2;
 6/7=2,8=2,9=2,10=2,19=2,28=1/1;
 99/9=1/99;
 ------------
 Gaussian job
 ------------
 Symbolic Z-matrix:
 Charge =  0 Multiplicity = 1
 O                     0.00865   2.23115  -0.01446 
 O                     1.31185   4.0309   -0.47634 
 O                    -1.28299   4.04555   0.42194 
 C                     1.20781   2.89193  -0.1384 
 C                    -1.18637   2.90136   0.09986 
 C                     2.34667   1.98247   0.14322 
 C                     3.63701   2.45818  -0.07941 
 C                     2.16462   0.69355   0.62994 
 C                     4.72542   1.64876   0.17275 
 H                     3.76481   3.46392  -0.44916 
 C                     3.2632   -0.11692   0.87633 
 H                     1.16971   0.32316   0.81989 
 C                     4.56125   0.34938   0.64668 
 H                     5.72171   2.02347  -0.00422 
 C                    -2.33103   1.99579  -0.17043 
 C                    -3.61854   2.48578   0.03721 
 C                    -2.15712   0.6968   -0.63274 
 C                    -4.71228   1.68089  -0.20619 
 H                    -3.73992   3.49898   0.3883 
 C                    -3.26106  -0.1091   -0.87003 
 H                    -1.16434   0.31491  -0.8107 
 C                    -4.5564    0.37194  -0.65601 
 H                    -5.70635   2.06681  -0.04126 
 C                     5.784    -0.50479   0.85316 
 H                     5.58396  -1.40774   1.42844 
 H                     6.56553   0.06566   1.36057 
 C                    -5.78514  -0.47547  -0.85454 
 H                    -6.55916   0.09279  -1.37573 
 H                    -5.58964  -1.38963  -1.41344 
 C                    -6.36533  -0.88424   0.49634 
 C                     6.35329  -0.9411   -0.49374 
 F                     5.43003  -1.47502  -1.29804 
 F                     7.32255  -1.85021  -0.3441 
 F                     6.89579   0.08601  -1.16784 
 F                    -7.34257  -1.78639   0.3564 
 F                    -6.90136   0.15889   1.15074 
 F                    -5.4514   -1.41376   1.31402 
 C                    -3.02952  -1.50199  -1.40364 
 C                     3.02319  -1.498     1.43616 
 F                     3.5727   -1.63867   2.6613 
 F                     1.72602  -1.78096   1.57518 
 F                     3.5492   -2.47342   0.68104 
 F                    -3.57233  -1.65951  -2.62972 
 F                    -1.73401  -1.79852  -1.52908 
 F                    -3.5689   -2.45931  -0.63501 
 

 GradGradGradGradGradGradGradGradGradGradGradGradGradGradGradGradGradGrad
 Berny optimization.
 Initialization pass.
                           ----------------------------
                           !    Initial Parameters    !
                           ! (Angstroms and Degrees)  !
 --------------------------                            --------------------------
 ! Name  Definition              Value          Derivative Info.                !
 --------------------------------------------------------------------------------
 ! R1    R(1,4)                  1.3748         estimate D2E/DX2                !
 ! R2    R(1,5)                  1.3749         estimate D2E/DX2                !
 ! R3    R(2,4)                  1.1926         estimate D2E/DX2                !
 ! R4    R(3,5)                  1.1926         estimate D2E/DX2                !
 ! R5    R(4,6)                  1.4844         estimate D2E/DX2                !
 ! R6    R(5,15)                 1.4844         estimate D2E/DX2                !
 ! R7    R(6,7)                  1.3931         estimate D2E/DX2                !
 ! R8    R(6,8)                  1.3897         estimate D2E/DX2                !
 ! R9    R(7,9)                  1.3796         estimate D2E/DX2                !
 ! R10   R(7,10)                 1.0792         estimate D2E/DX2                !
 ! R11   R(8,11)                 1.3872         estimate D2E/DX2                !
 ! R12   R(8,12)                 1.0785         estimate D2E/DX2                !
 ! R13   R(9,13)                 1.3928         estimate D2E/DX2                !
 ! R14   R(9,14)                 1.079          estimate D2E/DX2                !
 ! R15   R(11,13)                1.3983         estimate D2E/DX2                !
 ! R16   R(11,39)                1.5094         estimate D2E/DX2                !
 ! R17   R(13,24)                1.5058         estimate D2E/DX2                !
 ! R18   R(15,16)                1.3932         estimate D2E/DX2                !
 ! R19   R(15,17)                1.3897         estimate D2E/DX2                !
 ! R20   R(16,18)                1.3796         estimate D2E/DX2                !
 ! R21   R(16,19)                1.0792         estimate D2E/DX2                !
 ! R22   R(17,20)                1.3872         estimate D2E/DX2                !
 ! R23   R(17,21)                1.0785         estimate D2E/DX2                !
 ! R24   R(18,22)                1.3928         estimate D2E/DX2                !
 ! R25   R(18,23)                1.079          estimate D2E/DX2                !
 ! R26   R(20,22)                1.3983         estimate D2E/DX2                !
 ! R27   R(20,38)                1.5095         estimate D2E/DX2                !
 ! R28   R(22,27)                1.5058         estimate D2E/DX2                !
 ! R29   R(24,25)                1.0892         estimate D2E/DX2                !
 ! R30   R(24,26)                1.0925         estimate D2E/DX2                !
 ! R31   R(24,31)                1.526          estimate D2E/DX2                !
 ! R32   R(27,28)                1.0925         estimate D2E/DX2                !
 ! R33   R(27,29)                1.0892         estimate D2E/DX2                !
 ! R34   R(27,30)                1.526          estimate D2E/DX2                !
 ! R35   R(30,35)                1.3373         estimate D2E/DX2                !
 ! R36   R(30,36)                1.343          estimate D2E/DX2                !
 ! R37   R(30,37)                1.3358         estimate D2E/DX2                !
 ! R38   R(31,32)                1.3358         estimate D2E/DX2                !
 ! R39   R(31,33)                1.3373         estimate D2E/DX2                !
 ! R40   R(31,34)                1.343          estimate D2E/DX2                !
 ! R41   R(38,43)                1.3501         estimate D2E/DX2                !
 ! R42   R(38,44)                1.3349         estimate D2E/DX2                !
 ! R43   R(38,45)                1.341          estimate D2E/DX2                !
 ! R44   R(39,40)                1.3501         estimate D2E/DX2                !
 ! R45   R(39,41)                1.3349         estimate D2E/DX2                !
 ! R46   R(39,42)                1.341          estimate D2E/DX2                !
 ! A1    A(4,1,5)              122.0967         estimate D2E/DX2                !
 ! A2    A(1,4,2)              124.1024         estimate D2E/DX2                !
 ! A3    A(1,4,6)              110.9548         estimate D2E/DX2                !
 ! A4    A(2,4,6)              124.8876         estimate D2E/DX2                !
 ! A5    A(1,5,3)              124.0942         estimate D2E/DX2                !
 ! A6    A(1,5,15)             110.9607         estimate D2E/DX2                !
 ! A7    A(3,5,15)             124.8914         estimate D2E/DX2                !
 ! A8    A(4,6,7)              118.1042         estimate D2E/DX2                !
 ! A9    A(4,6,8)              122.2886         estimate D2E/DX2                !
 ! A10   A(7,6,8)              119.6032         estimate D2E/DX2                !
 ! A11   A(6,7,9)              120.0764         estimate D2E/DX2                !
 ! A12   A(6,7,10)             118.8608         estimate D2E/DX2                !
 ! A13   A(9,7,10)             121.0629         estimate D2E/DX2                !
 ! A14   A(6,8,11)             120.0215         estimate D2E/DX2                !
 ! A15   A(6,8,12)             120.0698         estimate D2E/DX2                !
 ! A16   A(11,8,12)            119.9084         estimate D2E/DX2                !
 ! A17   A(7,9,13)             121.1003         estimate D2E/DX2                !
 ! A18   A(7,9,14)             119.6502         estimate D2E/DX2                !
 ! A19   A(13,9,14)            119.2486         estimate D2E/DX2                !
 ! A20   A(8,11,13)            120.7411         estimate D2E/DX2                !
 ! A21   A(8,11,39)            118.3274         estimate D2E/DX2                !
 ! A22   A(13,11,39)           120.9074         estimate D2E/DX2                !
 ! A23   A(9,13,11)            118.4518         estimate D2E/DX2                !
 ! A24   A(9,13,24)            118.695          estimate D2E/DX2                !
 ! A25   A(11,13,24)           122.8306         estimate D2E/DX2                !
 ! A26   A(5,15,16)            118.0963         estimate D2E/DX2                !
 ! A27   A(5,15,17)            122.2974         estimate D2E/DX2                !
 ! A28   A(16,15,17)           119.6021         estimate D2E/DX2                !
 ! A29   A(15,16,18)           120.0779         estimate D2E/DX2                !
 ! A30   A(15,16,19)           118.8583         estimate D2E/DX2                !
 ! A31   A(18,16,19)           121.0638         estimate D2E/DX2                !
 ! A32   A(15,17,20)           120.0214         estimate D2E/DX2                !
 ! A33   A(15,17,21)           120.0706         estimate D2E/DX2                !
 ! A34   A(20,17,21)           119.9077         estimate D2E/DX2                !
 ! A35   A(16,18,22)           121.0996         estimate D2E/DX2                !
 ! A36   A(16,18,23)           119.6522         estimate D2E/DX2                !
 ! A37   A(22,18,23)           119.2473         estimate D2E/DX2                !
 ! A38   A(17,20,22)           120.7415         estimate D2E/DX2                !
 ! A39   A(17,20,38)           118.325          estimate D2E/DX2                !
 ! A40   A(22,20,38)           120.9085         estimate D2E/DX2                !
 ! A41   A(18,22,20)           118.4521         estimate D2E/DX2                !
 ! A42   A(18,22,27)           118.6943         estimate D2E/DX2                !
 ! A43   A(20,22,27)           122.8316         estimate D2E/DX2                !
 ! A44   A(13,24,25)           113.1761         estimate D2E/DX2                !
 ! A45   A(13,24,26)           110.3881         estimate D2E/DX2                !
 ! A46   A(13,24,31)           110.1267         estimate D2E/DX2                !
 ! A47   A(25,24,26)           108.5992         estimate D2E/DX2                !
 ! A48   A(25,24,31)           107.318          estimate D2E/DX2                !
 ! A49   A(26,24,31)           106.999          estimate D2E/DX2                !
 ! A50   A(22,27,28)           110.3832         estimate D2E/DX2                !
 ! A51   A(22,27,29)           113.1745         estimate D2E/DX2                !
 ! A52   A(22,27,30)           110.1388         estimate D2E/DX2                !
 ! A53   A(28,27,29)           108.5977         estimate D2E/DX2                !
 ! A54   A(28,27,30)           106.9945         estimate D2E/DX2                !
 ! A55   A(29,27,30)           107.3184         estimate D2E/DX2                !
 ! A56   A(27,30,35)           111.4631         estimate D2E/DX2                !
 ! A57   A(27,30,36)           112.0271         estimate D2E/DX2                !
 ! A58   A(27,30,37)           112.8274         estimate D2E/DX2                !
 ! A59   A(35,30,36)           106.4571         estimate D2E/DX2                !
 ! A60   A(35,30,37)           107.254          estimate D2E/DX2                !
 ! A61   A(36,30,37)           106.4217         estimate D2E/DX2                !
 ! A62   A(24,31,32)           112.8233         estimate D2E/DX2                !
 ! A63   A(24,31,33)           111.4692         estimate D2E/DX2                !
 ! A64   A(24,31,34)           112.0278         estimate D2E/DX2                !
 ! A65   A(32,31,33)           107.2536         estimate D2E/DX2                !
 ! A66   A(32,31,34)           106.419          estimate D2E/DX2                !
 ! A67   A(33,31,34)           106.4572         estimate D2E/DX2                !
 ! A68   A(20,38,43)           111.5331         estimate D2E/DX2                !
 ! A69   A(20,38,44)           112.7715         estimate D2E/DX2                !
 ! A70   A(20,38,45)           113.2309         estimate D2E/DX2                !
 ! A71   A(43,38,44)           106.1965         estimate D2E/DX2                !
 ! A72   A(43,38,45)           105.9939         estimate D2E/DX2                !
 ! A73   A(44,38,45)           106.5966         estimate D2E/DX2                !
 ! A74   A(11,39,40)           111.5412         estimate D2E/DX2                !
 ! A75   A(11,39,41)           112.7727         estimate D2E/DX2                !
 ! A76   A(11,39,42)           113.223          estimate D2E/DX2                !
 ! A77   A(40,39,41)           106.1956         estimate D2E/DX2                !
 ! A78   A(40,39,42)           105.9945         estimate D2E/DX2                !
 ! A79   A(41,39,42)           106.5955         estimate D2E/DX2                !
 ! D1    D(5,1,4,2)            -18.7921         estimate D2E/DX2                !
 ! D2    D(5,1,4,6)            163.7989         estimate D2E/DX2                !
 ! D3    D(4,1,5,3)            -18.8326         estimate D2E/DX2                !
 ! D4    D(4,1,5,15)           163.72           estimate D2E/DX2                !
 ! D5    D(1,4,6,7)            173.2025         estimate D2E/DX2                !
 ! D6    D(1,4,6,8)             -7.5254         estimate D2E/DX2                !
 ! D7    D(2,4,6,7)             -4.1819         estimate D2E/DX2                !
 ! D8    D(2,4,6,8)            175.0901         estimate D2E/DX2                !
 ! D9    D(1,5,15,16)          173.588          estimate D2E/DX2                !
 ! D10   D(1,5,15,17)           -7.1564         estimate D2E/DX2                !
 ! D11   D(3,5,15,16)           -3.8349         estimate D2E/DX2                !
 ! D12   D(3,5,15,17)          175.4207         estimate D2E/DX2                !
 ! D13   D(4,6,7,9)            179.7968         estimate D2E/DX2                !
 ! D14   D(4,6,7,10)            -0.1668         estimate D2E/DX2                !
 ! D15   D(8,6,7,9)              0.5046         estimate D2E/DX2                !
 ! D16   D(8,6,7,10)          -179.459          estimate D2E/DX2                !
 ! D17   D(4,6,8,11)           179.978          estimate D2E/DX2                !
 ! D18   D(4,6,8,12)            -0.2365         estimate D2E/DX2                !
 ! D19   D(7,6,8,11)            -0.7605         estimate D2E/DX2                !
 ! D20   D(7,6,8,12)           179.025          estimate D2E/DX2                !
 ! D21   D(6,7,9,13)             0.2065         estimate D2E/DX2                !
 ! D22   D(6,7,9,14)           179.8628         estimate D2E/DX2                !
 ! D23   D(10,7,9,13)         -179.8307         estimate D2E/DX2                !
 ! D24   D(10,7,9,14)           -0.1744         estimate D2E/DX2                !
 ! D25   D(6,8,11,13)            0.3137         estimate D2E/DX2                !
 ! D26   D(6,8,11,39)          178.5422         estimate D2E/DX2                !
 ! D27   D(12,8,11,13)        -179.4722         estimate D2E/DX2                !
 ! D28   D(12,8,11,39)          -1.2437         estimate D2E/DX2                !
 ! D29   D(7,9,13,11)           -0.647          estimate D2E/DX2                !
 ! D30   D(7,9,13,24)          177.6773         estimate D2E/DX2                !
 ! D31   D(14,9,13,11)         179.6954         estimate D2E/DX2                !
 ! D32   D(14,9,13,24)          -1.9803         estimate D2E/DX2                !
 ! D33   D(8,11,13,9)            0.3857         estimate D2E/DX2                !
 ! D34   D(8,11,13,24)        -177.865          estimate D2E/DX2                !
 ! D35   D(39,11,13,9)        -177.7969         estimate D2E/DX2                !
 ! D36   D(39,11,13,24)          3.9524         estimate D2E/DX2                !
 ! D37   D(8,11,39,40)        -116.8773         estimate D2E/DX2                !
 ! D38   D(8,11,39,41)           2.5241         estimate D2E/DX2                !
 ! D39   D(8,11,39,42)         123.6685         estimate D2E/DX2                !
 ! D40   D(13,11,39,40)         61.3482         estimate D2E/DX2                !
 ! D41   D(13,11,39,41)       -179.2504         estimate D2E/DX2                !
 ! D42   D(13,11,39,42)        -58.1061         estimate D2E/DX2                !
 ! D43   D(9,13,24,25)         167.0277         estimate D2E/DX2                !
 ! D44   D(9,13,24,26)          45.0734         estimate D2E/DX2                !
 ! D45   D(9,13,24,31)         -72.856          estimate D2E/DX2                !
 ! D46   D(11,13,24,25)        -14.7257         estimate D2E/DX2                !
 ! D47   D(11,13,24,26)       -136.6799         estimate D2E/DX2                !
 ! D48   D(11,13,24,31)        105.3906         estimate D2E/DX2                !
 ! D49   D(5,15,16,18)         179.7449         estimate D2E/DX2                !
 ! D50   D(5,15,16,19)          -0.2024         estimate D2E/DX2                !
 ! D51   D(17,15,16,18)          0.4686         estimate D2E/DX2                !
 ! D52   D(17,15,16,19)       -179.4787         estimate D2E/DX2                !
 ! D53   D(5,15,17,20)        -179.9889         estimate D2E/DX2                !
 ! D54   D(5,15,17,21)          -0.1951         estimate D2E/DX2                !
 ! D55   D(16,15,17,20)         -0.7441         estimate D2E/DX2                !
 ! D56   D(16,15,17,21)        179.0497         estimate D2E/DX2                !
 ! D57   D(15,16,18,22)          0.2232         estimate D2E/DX2                !
 ! D58   D(15,16,18,23)        179.8847         estimate D2E/DX2                !
 ! D59   D(19,16,18,22)       -179.8307         estimate D2E/DX2                !
 ! D60   D(19,16,18,23)         -0.1692         estimate D2E/DX2                !
 ! D61   D(15,17,20,22)          0.3365         estimate D2E/DX2                !
 ! D62   D(15,17,20,38)        178.5341         estimate D2E/DX2                !
 ! D63   D(21,17,20,22)       -179.4577         estimate D2E/DX2                !
 ! D64   D(21,17,20,38)         -1.26           estimate D2E/DX2                !
 ! D65   D(16,18,22,20)         -0.6251         estimate D2E/DX2                !
 ! D66   D(16,18,22,27)        177.7181         estimate D2E/DX2                !
 ! D67   D(23,18,22,20)        179.7121         estimate D2E/DX2                !
 ! D68   D(23,18,22,27)         -1.9447         estimate D2E/DX2                !
 ! D69   D(17,20,22,18)          0.3441         estimate D2E/DX2                !
 ! D70   D(17,20,22,27)       -177.9263         estimate D2E/DX2                !
 ! D71   D(38,20,22,18)       -177.8068         estimate D2E/DX2                !
 ! D72   D(38,20,22,27)          3.9229         estimate D2E/DX2                !
 ! D73   D(17,20,38,43)       -116.7784         estimate D2E/DX2                !
 ! D74   D(17,20,38,44)          2.6177         estimate D2E/DX2                !
 ! D75   D(17,20,38,45)        123.7685         estimate D2E/DX2                !
 ! D76   D(22,20,38,43)         61.4161         estimate D2E/DX2                !
 ! D77   D(22,20,38,44)       -179.1878         estimate D2E/DX2                !
 ! D78   D(22,20,38,45)        -58.037          estimate D2E/DX2                !
 ! D79   D(18,22,27,28)         45.0172         estimate D2E/DX2                !
 ! D80   D(18,22,27,29)        166.9648         estimate D2E/DX2                !
 ! D81   D(18,22,27,30)        -72.911          estimate D2E/DX2                !
 ! D82   D(20,22,27,28)       -136.7164         estimate D2E/DX2                !
 ! D83   D(20,22,27,29)        -14.7689         estimate D2E/DX2                !
 ! D84   D(20,22,27,30)        105.3554         estimate D2E/DX2                !
 ! D85   D(13,24,31,32)        -50.4928         estimate D2E/DX2                !
 ! D86   D(13,24,31,33)       -171.2435         estimate D2E/DX2                !
 ! D87   D(13,24,31,34)         69.5792         estimate D2E/DX2                !
 ! D88   D(25,24,31,32)         73.1029         estimate D2E/DX2                !
 ! D89   D(25,24,31,33)        -47.6478         estimate D2E/DX2                !
 ! D90   D(25,24,31,34)       -166.8251         estimate D2E/DX2                !
 ! D91   D(26,24,31,32)       -170.4944         estimate D2E/DX2                !
 ! D92   D(26,24,31,33)         68.755          estimate D2E/DX2                !
 ! D93   D(26,24,31,34)        -50.4223         estimate D2E/DX2                !
 ! D94   D(22,27,30,35)       -171.327          estimate D2E/DX2                !
 ! D95   D(22,27,30,36)         69.5005         estimate D2E/DX2                !
 ! D96   D(22,27,30,37)        -50.5774         estimate D2E/DX2                !
 ! D97   D(28,27,30,35)         68.6734         estimate D2E/DX2                !
 ! D98   D(28,27,30,36)        -50.4992         estimate D2E/DX2                !
 ! D99   D(28,27,30,37)       -170.577          estimate D2E/DX2                !
 ! D100  D(29,27,30,35)        -47.7256         estimate D2E/DX2                !
 ! D101  D(29,27,30,36)       -166.8981         estimate D2E/DX2                !
 ! D102  D(29,27,30,37)         73.024          estimate D2E/DX2                !
 --------------------------------------------------------------------------------
 Trust Radius=3.00D-01 FncErr=1.00D-07 GrdErr=1.00D-06 EigMax=2.50D+02 EigMin=1.00D-04
 Number of steps in this run=    237 maximum allowed number of steps=    270.
 GradGradGradGradGradGradGradGradGradGradGradGradGradGradGradGradGradGrad

                          Input orientation:                          
 ---------------------------------------------------------------------
 Center     Atomic      Atomic             Coordinates (Angstroms)
 Number     Number       Type             X           Y           Z
 ---------------------------------------------------------------------
      1          8           0        0.008647    2.231147   -0.014455
      2          8           0        1.311847    4.030903   -0.476339
      3          8           0       -1.282988    4.045553    0.421936
      4          6           0        1.207814    2.891927   -0.138401
      5          6           0       -1.186374    2.901358    0.099859
      6          6           0        2.346667    1.982468    0.143220
      7          6           0        3.637010    2.458183   -0.079406
      8          6           0        2.164625    0.693554    0.629938
      9          6           0        4.725420    1.648761    0.172753
     10          1           0        3.764813    3.463924   -0.449165
     11          6           0        3.263197   -0.116916    0.876334
     12          1           0        1.169714    0.323160    0.819891
     13          6           0        4.561249    0.349378    0.646680
     14          1           0        5.721708    2.023466   -0.004219
     15          6           0       -2.331027    1.995792   -0.170435
     16          6           0       -3.618545    2.485782    0.037208
     17          6           0       -2.157121    0.696801   -0.632742
     18          6           0       -4.712284    1.680893   -0.206193
     19          1           0       -3.739917    3.498984    0.388296
     20          6           0       -3.261058   -0.109097   -0.870032
     21          1           0       -1.164345    0.314910   -0.810702
     22          6           0       -4.556401    0.371945   -0.656006
     23          1           0       -5.706354    2.066810   -0.041264
     24          6           0        5.784004   -0.504786    0.853165
     25          1           0        5.583961   -1.407739    1.428437
     26          1           0        6.565529    0.065664    1.360569
     27          6           0       -5.785145   -0.475466   -0.854539
     28          1           0       -6.559158    0.092792   -1.375733
     29          1           0       -5.589640   -1.389629   -1.413445
     30          6           0       -6.365332   -0.884238    0.496341
     31          6           0        6.353285   -0.941099   -0.493740
     32          9           0        5.430027   -1.475021   -1.298041
     33          9           0        7.322547   -1.850212   -0.344100
     34          9           0        6.895790    0.086012   -1.167836
     35          9           0       -7.342570   -1.786394    0.356395
     36          9           0       -6.901359    0.158888    1.150745
     37          9           0       -5.451398   -1.413760    1.314020
     38          6           0       -3.029523   -1.501987   -1.403644
     39          6           0        3.023188   -1.498001    1.436157
     40          9           0        3.572704   -1.638666    2.661304
     41          9           0        1.726023   -1.780962    1.575182
     42          9           0        3.549198   -2.473423    0.681036
     43          9           0       -3.572328   -1.659513   -2.629725
     44          9           0       -1.734014   -1.798520   -1.529077
     45          9           0       -3.568900   -2.459305   -0.635007
 ---------------------------------------------------------------------
                    Distance matrix (angstroms):
                    1          2          3          4          5
     1  O    0.000000
     2  O    2.269535   0.000000
     3  O    2.269543   2.745957   0.000000
     4  C    1.374771   1.192599   2.801593   0.000000
     5  C    1.374891   2.801604   1.192581   2.406032   0.000000
     6  C    2.356489   2.377140   4.184303   1.484389   3.650838
     7  C    3.636040   2.835029   5.193984   2.468321   4.847017
     8  C    2.725376   3.617869   4.813023   2.517673   4.047786
     9  C    4.756277   4.212885   6.473613   3.743772   6.043477
    10  H    3.977121   2.517786   5.155327   2.638560   5.013198
    11  C    4.110839   4.779320   6.180649   3.782516   5.432456
    12  H    2.384245   3.930366   4.475525   2.741959   3.566048
    13  C    4.970346   5.037203   6.918621   4.280939   6.312431
    14  H    5.716844   4.868221   7.303164   4.598638   6.964418
    15  C    2.356649   4.183991   2.377143   3.650682   1.484365
    16  C    3.636486   5.192292   2.834736   4.846600   2.468215
    17  C    2.725261   4.813984   3.618093   4.047930   2.517763
    18  C    4.756756   6.471915   4.212628   6.043075   3.743694
    19  H    3.977606   5.152751   2.517215   5.012581   2.638358
    20  C    4.110927   6.181104   4.779441   5.432517   3.782571
    21  H    2.383670   4.477938   3.930798   3.566531   2.742138
    22  C    4.970703   6.917846   5.037122   6.312242   4.280929
    23  H    5.717426   7.300829   4.867869   6.963905   4.598544
    24  C    6.449252   6.506939   8.416289   5.784668   7.794579
    25  H    6.812309   7.173420   8.826461   6.331885   8.134548
    26  H    7.040789   6.833632   8.849845   6.240175   8.350002
    27  C    6.449769   8.415325   6.506798   7.794463   5.784679
    28  H    7.040007   8.847053   6.833294   8.348173   6.239570
    29  H    6.812342   8.825579   7.173359   8.134054   6.331778
    30  C    7.112956   9.167541   7.080862   8.486157   6.427251
    31  C    7.109661   7.080763   9.166123   6.426058   8.483118
    32  F    6.691385   6.924579   8.860001   6.184018   8.055034
    33  F    8.382081   8.410322  10.459545   7.740811   9.755832
    34  F    7.305109   6.871735   9.224843   6.425415   8.651854
    35  F    8.385616  10.461039   8.410377   9.759128   7.742066
    36  F    7.307539   9.224785   6.870475   8.653906   6.425462
    37  F    6.697931   8.865169   6.926439   8.061859   6.187476
    38  C    5.009652   7.093678   6.095764   6.233967   5.004715
    39  C    5.009818   6.095499   7.092445   5.004626   6.233816
    40  F    5.902342   6.862966   7.804028   5.827292   7.058445
    41  F    4.644711   6.177221   6.658257   5.004078   5.708130
    42  F    5.928928   6.975064   8.118756   5.911052   7.186910
    43  F    5.899174   7.802120   6.863053   7.054932   5.826230
    44  F    4.644261   6.660909   6.177627   5.708645   5.004218
    45  F    5.931633   8.122172   6.975364   7.190223   5.912121
                    6          7          8          9         10
     6  C    0.000000
     7  C    1.393145   0.000000
     8  C    1.389724   2.405203   0.000000
     9  C    2.402228   1.379632   2.771121   0.000000
    10  H    2.134659   1.079152   3.376391   2.145778   0.000000
    11  C    2.405182   2.772059   1.387240   2.398070   3.851102
    12  H    2.143923   3.384466   1.078482   3.849552   4.267252
    13  C    2.797290   2.414224   2.421269   1.392823   3.396408
    14  H    3.378509   2.130867   3.850150   1.079033   2.470291
    15  C    4.688217   5.986615   4.748400   7.073305   6.276333
    16  C    5.987346   7.256545   6.083458   8.386938   7.463732
    17  C    4.747543   6.081168   4.502428   6.994599   6.539111
    18  C    7.074025   8.386356   6.997559   9.445363   8.665991
    19  H    6.277450   7.464654   6.541593   8.667855   7.551392
    20  C    6.070247   7.402659   5.686140   8.243864   7.893444
    21  H    4.002239   5.308618   3.647034   6.118470   5.860341
    22  C    7.133365   8.474483   6.850495   9.405813   8.879511
    23  H    8.055576   9.351636   8.018021  10.442341   9.582344
    24  C    4.301830   3.776037   3.819130   2.494259   4.639381
    25  H    4.860593   4.583619   4.092052   3.414093   5.528815
    26  H    4.791124   4.046467   4.505110   2.702426   4.761021
    27  C    8.553556   9.898694   8.171237  10.772170  10.338511
    28  H    9.229941  10.546914   8.971512  11.496110  10.899882
    29  H    8.762374  10.085454   8.285148  10.869604  10.582655
    30  C    9.178324  10.561729   8.675681  11.380931  11.064372
    31  C    5.000595   4.370919   4.634611   3.130740   5.109443
    32  F    4.851656   4.491110   4.368371   3.523878   5.280786
    33  F    6.299706   5.675871   5.832980   4.388054   6.395980
    34  F    5.099993   4.175106   5.097550   2.991632   4.661523
    35  F   10.398610  11.779539   9.829127  12.548721  12.312137
    36  F    9.479796  10.856208   9.096657  11.762575  11.280522
    37  F    8.585741   9.976610   7.931743  10.688739  10.575404
    38  C    6.590723   7.866335   5.994583   8.517710   8.469611
    39  C    3.773994   4.280783   2.487977   3.794192   5.359584
    40  F    4.577830   4.929483   3.398292   4.281217   5.978992
    41  F    4.074202   4.935574   2.684974   4.767200   5.980257
    42  F    4.646536   4.990664   3.456790   4.316741   6.047804
    43  F    7.482496   8.685282   7.005352   9.362221   9.210760
    44  F    5.808994   7.004925   5.105993   7.516932   7.687433
    45  F    7.438341   8.741598   6.664377   9.291094   9.428814
                   11         12         13         14         15
    11  C    0.000000
    12  H    2.139982   0.000000
    13  C    1.398252   3.396057   0.000000
    14  H    3.376519   4.928575   2.138435   0.000000
    15  C    6.070799   4.004201   7.133150   8.054497   0.000000
    16  C    7.405170   5.311963   8.476126   9.351779   1.393165
    17  C    5.685006   3.649326   6.847928   8.014426   1.389731
    18  C    8.246956   6.123250   9.407377  10.441568   2.402254
    19  H    7.896614   5.863156   8.882349   9.584026   2.134651
    20  C    6.753943   4.761766   7.981171   9.272946   2.405193
    21  H    4.757698   2.847232   5.908263   7.140539   2.143935
    22  C    7.983306   5.913463   9.210269  10.430334   2.797312
    23  H    9.277042   7.145783  10.432954  11.428204   3.378545
    24  C    2.550578   4.688100   1.505776   2.670402   8.553033
    25  H    2.712376   4.780368   2.178197   3.720839   8.762845
    26  H    3.342636   5.428946   2.146454   2.531337   9.231363
    27  C    9.219380   7.198026  10.487225  11.805734   4.301866
    28  H   10.079407   8.037991  11.305726  12.507127   4.790746
    29  H    9.232313   7.321905  10.502800  11.898811   4.860526
    30  C    9.666528   7.638024  10.997026  12.441939   5.001479
    31  C    3.479227   5.494851   2.485413   3.070369   9.173174
    32  F    3.356710   5.086192   2.804486   3.741452   8.576246
    33  F    4.579530   6.628407   3.666689   4.205186  10.392950
    34  F    4.173193   6.065908   2.968486   2.546802   9.475031
    35  F   10.748944   8.782028  12.097384  13.613245   6.300639
    36  F   10.171999   8.079521  11.475267  12.812197   5.099771
    37  F    8.821425   6.862956  10.188576  11.763952   4.854418
    38  C    6.834840   5.090074   8.077821   9.537885   3.774012
    39  C    1.509437   2.670538   2.530160   4.664485   6.592067
    40  F    2.365933   3.607482   2.998041   5.013426   7.488796
    41  F    2.370726   2.303752   3.665920   5.738787   5.811256
    42  F    2.381819   3.674521   2.998938   5.040970   7.434779
    43  F    7.835589   6.190137   8.995863  10.336185   4.577139
    44  F    5.795335   4.295441   6.998409   8.515901   4.074205
    45  F    7.378922   5.684479   8.696594  10.334821   4.647156
                   16         17         18         19         20
    16  C    0.000000
    17  C    2.405212   0.000000
    18  C    1.379621   2.771144   0.000000
    19  H    1.079154   3.376387   2.145780   0.000000
    20  C    2.772053   1.387247   2.398083   3.851096   0.000000
    21  H    3.384484   1.078478   3.849573   4.267258   2.139978
    22  C    2.414214   2.421285   1.392830   3.396408   1.398257
    23  H    2.130879   3.850173   1.079032   2.470328   3.376522
    24  C    9.900364   8.167815  10.773648  10.341728   9.216242
    25  H   10.088663   8.282626  10.873101  10.587375   9.230589
    26  H   10.551000   8.969740  11.500120  10.905742  10.078091
    27  C    3.776024   3.819157   2.494247   4.639380   2.550585
    28  H    4.045987   4.504974   2.702005   4.760469   3.342748
    29  H    4.583494   4.092050   3.413988   5.528678   2.712444
    30  C    4.371805   4.635036   3.131457   5.110491   3.479129
    31  C   10.557595   8.667701  11.375603  11.061873   9.657609
    32  F    9.967321   7.919864  10.677939  10.567512   8.808172
    33  F   11.775132   9.820117  12.542921  12.309687  10.738751
    34  F   10.851832   9.089256  11.756520  11.277773  10.163085
    35  F    5.676419   5.833827   4.388279   6.396511   4.579977
    36  F    4.175077   5.096858   2.991626   4.661790   4.172187
    37  F    4.493999   4.369967   3.526218   5.284051   3.357055
    38  C    4.280806   2.487980   3.794246   5.359610   1.509468
    39  C    7.870209   5.994422   8.522922   8.473928   6.836615
    40  F    8.695459   7.009710   9.374596   9.221520   7.842845
    41  F    7.009627   5.108135   7.523930   7.691750   5.800446
    42  F    8.739838   6.658709   9.289650   9.427966   7.373970
    43  F    4.929314   3.397494   4.281509   5.978848   2.365840
    44  F    4.935580   2.684970   4.767224   5.980260   2.370728
    45  F    4.990814   3.457475   4.316532   6.047942   2.381907
                   21         22         23         24         25
    21  H    0.000000
    22  C    3.396061   0.000000
    23  H    4.928594   2.138427   0.000000
    24  C    7.191655  10.486670  11.808533   0.000000
    25  H    7.315797  10.504243  11.903938   1.089165   0.000000
    26  H    8.032900  11.307418  12.512747   1.092544   1.771722
    27  C    4.688114   1.505766   2.670354  11.694543  11.633472
    28  H    5.428868   2.146385   2.530776  12.557020  12.552701
    29  H    4.780375   2.178173   3.720682  11.631003  11.529352
    30  C    5.495143   2.485584   3.071150  12.160497  11.997019
    31  C    7.628419  10.989617  12.437329   1.525975   2.122352
    32  F    6.850335  10.176062  11.753427   2.386282   2.731649
    33  F    8.771135  12.089031  13.608345   2.368697   2.521974
    34  F    8.071289  11.467188  12.806512   2.381082   3.269988
    35  F    6.629334   3.666895   4.205059  13.198343  12.976435
    36  F    6.065060   2.967923   2.547369  12.706197  12.586288
    37  F    5.087393   2.805488   3.743818  11.281528  11.035953
    38  C    2.670503   2.530206   4.664528   9.152369   9.067616
    39  C    5.086300   8.082327   9.544399   2.991398   2.562375
    40  F    6.189581   9.007189  10.350621   3.073256   2.370325
    41  F    4.294106   7.005859   8.523994   4.314759   3.878726
    42  F    5.676052   8.693937  10.334442   2.983206   2.415481
    43  F    3.606324   2.998464   5.013949  10.050118  10.018468
    44  F    2.303730   3.665930   5.738802   7.991835   7.902680
    45  F    3.675463   2.998596   5.040532   9.670141   9.441316
                   26         27         28         29         30
    26  H    0.000000
    27  C   12.559405   0.000000
    28  H   13.406919   1.092546   0.000000
    29  H   12.552336   1.089171   1.771712   0.000000
    30  C   12.994474   1.525971   2.120570   2.122357   0.000000
    31  C    2.120631  12.152715  12.983761  11.986680  12.757222
    32  F    3.275863  11.268358  12.091511  11.020601  11.945682
    33  F    2.673865  13.189468  14.054938  12.964575  13.747636
    34  F    2.549964  12.697225  13.456556  12.574728  13.400307
    35  F   14.066758   2.368643   2.673078   2.522404   1.337334
    36  F   13.468844   2.381071   2.550404   3.270104   1.343012
    37  F   12.107740   2.386301   3.275913   2.731073   1.335766
    38  C   10.107592   2.991440   3.873297   2.562600   3.888339
    39  C    3.872846   9.158580  10.112305   9.072638   9.455383
    40  F    3.681528  10.063972  11.043109  10.030660  10.199058
    41  F    5.184294   8.001594   8.992390   7.912265   8.212066
    42  F    4.000872   9.668494  10.629893   9.438210  10.042785
    43  F   11.030631   3.074055   3.682964   2.371017   4.263122
    44  F    8.983743   4.314758   5.184843   3.878970   5.136860
    45  F   10.633176   2.982542   4.000440   2.415276   3.403060
                   31         32         33         34         35
    31  C    0.000000
    32  F    1.335807   0.000000
    33  F    1.337291   2.152302   0.000000
    34  F    1.343009   2.145283   2.147004   0.000000
    35  F   13.748226  12.883064  14.681977  14.441609   0.000000
    36  F   13.401488  12.677905  14.442664  13.990798   2.147040
    37  F   11.951650  11.190711  12.888503  12.683137   2.152309
    38  C    9.443496   8.460252  10.411976  10.054311   4.667012
    39  C    3.888983   3.642697   4.666675   4.928176  10.425833
    40  F    4.262925   4.376396   4.810253   5.355345  11.156955
    41  F    5.137837   4.697729   5.916885   6.142982   9.150128
    42  F    3.404559   2.907072   3.959477   4.600947  10.918242
    43  F   10.178229   9.102187  11.133677  10.712865   4.811210
    44  F    8.198262   7.175062   9.133901   8.840558   5.917014
    45  F   10.038659   9.076845  10.912344  10.782963   3.959327
                   36         37         38         39         40
    36  F    0.000000
    37  F    2.145290   0.000000
    38  C    4.926918   3.641286   0.000000
    39  C   10.065951   8.475884   6.685790   0.000000
    40  F   10.734011   9.126893   7.754475   1.350089   0.000000
    41  F    8.852958   7.191551   5.618402   1.334928   2.147124
    42  F   10.787207   9.084838   6.969157   1.341023   2.149147
    43  F    5.355462   4.375434   1.350084   7.749730   8.890833
    44  F    6.141200   4.695762   1.334919   5.613724   6.763587
    45  F    4.598818   2.904422   1.340966   6.976349   7.908326
                   41         42         43         44         45
    41  F    0.000000
    42  F    2.145453   0.000000
    43  F    6.765243   7.895551   0.000000
    44  F    4.648504   5.766492   2.147125   0.000000
    45  F    5.777655   7.238749   2.149088   2.145415   0.000000
 Stoichiometry    C20H10F12O3
 Framework group  C1[X(C20H10F12O3)]
 Deg. of freedom   129
 Full point group                 C1      NOp   1
 Largest Abelian subgroup         C1      NOp   1
 Largest concise Abelian subgroup C1      NOp   1
                         Standard orientation:                         
 ---------------------------------------------------------------------
 Center     Atomic      Atomic             Coordinates (Angstroms)
 Number     Number       Type             X           Y           Z
 ---------------------------------------------------------------------
      1          8           0        0.000430    2.179884    0.001269
      2          8           0        1.283681    3.987623   -0.484672
      3          8           0       -1.284564    3.986416    0.487129
      4          6           0        1.193275    2.845928   -0.152029
      5          6           0       -1.193177    2.844873    0.154296
      6          6           0        2.342842    1.938714    0.090603
      7          6           0        3.624662    2.420727   -0.165242
      8          6           0        2.179218    0.645755    0.573115
      9          6           0        4.722619    1.613568    0.050087
     10          1           0        3.738384    3.429502   -0.531317
     11          6           0        3.287173   -0.162375    0.782387
     12          1           0        1.191413    0.270376    0.788648
     13          6           0        4.576530    0.310295    0.519230
     14          1           0        5.712155    1.993170   -0.152478
     15          6           0       -2.341903    1.937018   -0.089770
     16          6           0       -3.624685    2.420795    0.157894
     17          6           0       -2.176709    0.641952   -0.566073
     18          6           0       -4.722102    1.613613   -0.060023
     19          1           0       -3.739538    3.431055    0.519496
     20          6           0       -3.284142   -0.166320   -0.777598
     21          1           0       -1.188078    0.264977   -0.774914
     22          6           0       -4.574534    0.308436   -0.523395
     23          1           0       -5.712412    1.994701    0.135857
     24          6           0        5.807634   -0.540789    0.684765
     25          1           0        5.627192   -1.448487    1.259052
     26          1           0        6.601296    0.028959    1.173783
     27          6           0       -5.805475   -0.542078   -0.692925
     28          1           0       -6.595985    0.026970   -1.187834
     29          1           0       -5.622780   -1.451571   -1.263660
     30          6           0       -6.345543   -0.962453    0.670966
     31          6           0        6.339854   -0.965541   -0.680858
     32          9           0        5.395936   -1.497201   -1.462354
     33          9           0        7.316141   -1.872107   -0.565325
     34          9           0        6.859369    0.068266   -1.362783
     35          9           0       -7.323223   -1.867196    0.552455
     36          9           0       -6.866349    0.074075    1.347761
     37          9           0       -5.406863   -1.494332    1.458529
     38          6           0       -3.063046   -1.554570   -1.327483
     39          6           0        3.068007   -1.548228    1.338964
     40          9           0        3.652665   -1.695463    2.546953
     41          9           0        1.776318   -1.836931    1.512811
     42          9           0        3.575698   -2.516384    0.562262
     43          9           0       -3.639986   -1.705485   -2.538718
     44          9           0       -1.770610   -1.845444   -1.491822
     45          9           0       -3.576988   -2.519237   -0.550649
 ---------------------------------------------------------------------
 Rotational constants (GHZ):           0.2004739           0.0465596           0.0416213
 Standard basis: def2SVP (5D, 7F)
 There are   575 symmetry adapted cartesian basis functions of A   symmetry.
 There are   540 symmetry adapted basis functions of A   symmetry.
   540 basis functions,   945 primitive gaussians,   575 cartesian basis functions
   131 alpha electrons      131 beta electrons
       nuclear repulsion energy      3910.2187690228 Hartrees.
 NAtoms=   45 NActive=   45 NUniq=   45 SFac= 1.00D+00 NAtFMM=   60 NAOKFM=F Big=F
 Integral buffers will be    131072 words long.
 Raffenetti 2 integral format.
 Two-electron integral symmetry is turned on.
 One-electron integrals computed using PRISM.
   1 Symmetry operations used in ECPInt.
 ECPInt:  NShTT=   28920 NPrTT=  111170 LenC2=   20805 LenP2D=   50824.
 LDataN:  DoStor=T MaxTD1= 4 Len=   56
 NBasis=   540 RedAO= T EigKep=  2.32D-04  NBF=   540
 NBsUse=   540 1.00D-06 EigRej= -1.00D+00 NBFU=   540
 ExpMin= 1.22D-01 ExpMax= 2.89D+03 ExpMxC= 4.35D+02 IAcc=3 IRadAn=         5 AccDes= 0.00D+00
 Harris functional with IExCor= 1009 and IRadAn=       5 diagonalized for initial guess.
 HarFok:  IExCor= 1009 AccDes= 0.00D+00 IRadAn=         5 IDoV= 1 UseB2=F ITyADJ=14
 ICtDFT=  3500011 ScaDFX=  1.000000  1.000000  1.000000  1.000000
 FoFCou: FMM=F IPFlag=           0 FMFlag=      100000 FMFlg1=           0
         NFxFlg=           0 DoJE=T BraDBF=F KetDBF=T FulRan=T
         wScrn=  0.000000 ICntrl=       500 IOpCl=  0 I1Cent=   200000004 NGrid=           0
         NMat0=    1 NMatS0=      1 NMatT0=    0 NMatD0=    1 NMtDS0=    0 NMtDT0=    0
 Petite list used in FoFCou.
 Requested convergence on RMS density matrix=1.00D-08 within 128 cycles.
 Requested convergence on MAX density matrix=1.00D-06.
 Requested convergence on             energy=1.00D-06.
 No special actions if energy rises.
 Integral accuracy reduced to 1.0D-05 until final iterations.
 Initial convergence to 1.0D-05 achieved.  Increase integral accuracy.
 SCF Done:  E(RM062X) =  -2189.62774673     A.U. after   15 cycles
            NFock= 15  Conv=0.58D-08     -V/T= 2.0070

 **********************************************************************

            Population analysis using the SCF Density.

 **********************************************************************

 Orbital symmetries:
       Occupied  (A) (A) (A) (A) (A) (A) (A) (A) (A) (A) (A) (A)
                 (A) (A) (A) (A) (A) (A) (A) (A) (A) (A) (A) (A)
                 (A) (A) (A) (A) (A) (A) (A) (A) (A) (A) (A) (A)
                 (A) (A) (A) (A) (A) (A) (A) (A) (A) (A) (A) (A)
                 (A) (A) (A) (A) (A) (A) (A) (A) (A) (A) (A) (A)
                 (A) (A) (A) (A) (A) (A) (A) (A) (A) (A) (A) (A)
                 (A) (A) (A) (A) (A) (A) (A) (A) (A) (A) (A) (A)
                 (A) (A) (A) (A) (A) (A) (A) (A) (A) (A) (A) (A)
                 (A) (A) (A) (A) (A) (A) (A) (A) (A) (A) (A) (A)
                 (A) (A) (A) (A) (A) (A) (A) (A) (A) (A) (A) (A)
                 (A) (A) (A) (A) (A) (A) (A) (A) (A) (A) (A)
       Virtual   (A) (A) (A) (A) (A) (A) (A) (A) (A) (A) (A) (A)
                 (A) (A) (A) (A) (A) (A) (A) (A) (A) (A) (A) (A)
                 (A) (A) (A) (A) (A) (A) (A) (A) (A) (A) (A) (A)
                 (A) (A) (A) (A) (A) (A) (A) (A) (A) (A) (A) (A)
                 (A) (A) (A) (A) (A) (A) (A) (A) (A) (A) (A) (A)
                 (A) (A) (A) (A) (A) (A) (A) (A) (A) (A) (A) (A)
                 (A) (A) (A) (A) (A) (A) (A) (A) (A) (A) (A) (A)
                 (A) (A) (A) (A) (A) (A) (A) (A) (A) (A) (A) (A)
                 (A) (A) (A) (A) (A) (A) (A) (A) (A) (A) (A) (A)
                 (A) (A) (A) (A) (A) (A) (A) (A) (A) (A) (A) (A)
                 (A) (A) (A) (A) (A) (A) (A) (A) (A) (A) (A) (A)
                 (A) (A) (A) (A) (A) (A) (A) (A) (A) (A) (A) (A)
                 (A) (A) (A) (A) (A) (A) (A) (A) (A) (A) (A) (A)
                 (A) (A) (A) (A) (A) (A) (A) (A) (A) (A) (A) (A)
                 (A) (A) (A) (A) (A) (A) (A) (A) (A) (A) (A) (A)
                 (A) (A) (A) (A) (A) (A) (A) (A) (A) (A) (A) (A)
                 (A) (A) (A) (A) (A) (A) (A) (A) (A) (A) (A) (A)
                 (A) (A) (A) (A) (A) (A) (A) (A) (A) (A) (A) (A)
                 (A) (A) (A) (A) (A) (A) (A) (A) (A) (A) (A) (A)
                 (A) (A) (A) (A) (A) (A) (A) (A) (A) (A) (A) (A)
                 (A) (A) (A) (A) (A) (A) (A) (A) (A) (A) (A) (A)
                 (A) (A) (A) (A) (A) (A) (A) (A) (A) (A) (A) (A)
                 (A) (A) (A) (A) (A) (A) (A) (A) (A) (A) (A) (A)
                 (A) (A) (A) (A) (A) (A) (A) (A) (A) (A) (A) (A)
                 (A) (A) (A) (A) (A) (A) (A) (A) (A) (A) (A) (A)
                 (A) (A) (A) (A) (A) (A) (A) (A) (A) (A) (A) (A)
                 (A) (A) (A) (A) (A) (A) (A) (A) (A) (A) (A) (A)
                 (A) (A) (A) (A) (A) (A) (A) (A) (A) (A) (A) (A)
                 (A) (A) (A) (A) (A) (A) (A) (A) (A) (A) (A) (A)
                 (A) (A) (A) (A) (A) (A) (A) (A) (A) (A) (A) (A)
                 (A) (A) (A) (A) (A) (A) (A) (A) (A) (A) (A) (A)
                 (A) (A) (A) (A) (A) (A) (A) (A) (A) (A) (A) (A)
                 (A) (A) (A) (A) (A) (A) (A) (A) (A) (A) (A) (A)
                 (A) (A) (A) (A) (A) (A) (A) (A) (A) (A) (A) (A)
                 (A)
 The electronic state is 1-A.
 Alpha  occ. eigenvalues --  -25.29938 -25.29937 -25.29490 -25.29489 -25.29298
 Alpha  occ. eigenvalues --  -25.29296 -25.29002 -25.29002 -25.28798 -25.28796
 Alpha  occ. eigenvalues --  -25.28790 -25.28789 -19.72241 -19.65946 -19.65943
 Alpha  occ. eigenvalues --  -10.82558 -10.82557 -10.81643 -10.81643 -10.72614
 Alpha  occ. eigenvalues --  -10.72612 -10.62141 -10.62140 -10.61343 -10.61343
 Alpha  occ. eigenvalues --  -10.60795 -10.60795 -10.60760 -10.60760 -10.60589
 Alpha  occ. eigenvalues --  -10.60588 -10.60103 -10.60102 -10.59688 -10.59688
 Alpha  occ. eigenvalues --   -1.46054  -1.46053  -1.45406  -1.45405  -1.36316
 Alpha  occ. eigenvalues --   -1.36316  -1.35679  -1.35679  -1.35419  -1.35417
 Alpha  occ. eigenvalues --   -1.35365  -1.35365  -1.27832  -1.19803  -1.16042
 Alpha  occ. eigenvalues --   -1.01807  -1.01692  -0.94559  -0.93958  -0.91057
 Alpha  occ. eigenvalues --   -0.91050  -0.88681  -0.86881  -0.82105  -0.81765
 Alpha  occ. eigenvalues --   -0.81738  -0.78739  -0.77577  -0.74913  -0.74861
 Alpha  occ. eigenvalues --   -0.74347  -0.73202  -0.70748  -0.70307  -0.70224
 Alpha  occ. eigenvalues --   -0.70168  -0.69895  -0.69891  -0.69726  -0.69689
 Alpha  occ. eigenvalues --   -0.69388  -0.67410  -0.65960  -0.65382  -0.62659
 Alpha  occ. eigenvalues --   -0.62085  -0.61947  -0.60329  -0.59256  -0.59203
 Alpha  occ. eigenvalues --   -0.58808  -0.58654  -0.58612  -0.58213  -0.58140
 Alpha  occ. eigenvalues --   -0.57920  -0.57458  -0.57373  -0.57018  -0.56987
 Alpha  occ. eigenvalues --   -0.55683  -0.55349  -0.54566  -0.54499  -0.54296
 Alpha  occ. eigenvalues --   -0.53715  -0.53586  -0.53447  -0.53051  -0.53026
 Alpha  occ. eigenvalues --   -0.52273  -0.52239  -0.52070  -0.52064  -0.51383
 Alpha  occ. eigenvalues --   -0.51377  -0.50728  -0.50722  -0.50170  -0.50103
 Alpha  occ. eigenvalues --   -0.49730  -0.49172  -0.48955  -0.46905  -0.46490
 Alpha  occ. eigenvalues --   -0.45905  -0.45819  -0.44442  -0.44402  -0.42465
 Alpha  occ. eigenvalues --   -0.40739  -0.37221  -0.35771  -0.35751  -0.34982
 Alpha  occ. eigenvalues --   -0.34977
 Alpha virt. eigenvalues --   -0.06575  -0.04835  -0.02273  -0.02266   0.03902
 Alpha virt. eigenvalues --    0.06924   0.09154   0.10075   0.10383   0.11836
 Alpha virt. eigenvalues --    0.12305   0.13745   0.14051   0.16351   0.16497
 Alpha virt. eigenvalues --    0.16517   0.16842   0.17344   0.17378   0.17965
 Alpha virt. eigenvalues --    0.18695   0.19539   0.19605   0.21474   0.21551
 Alpha virt. eigenvalues --    0.23105   0.23137   0.23792   0.24527   0.24720
 Alpha virt. eigenvalues --    0.25606   0.26281   0.26973   0.27509   0.27743
 Alpha virt. eigenvalues --    0.28035   0.28304   0.28752   0.30099   0.30470
 Alpha virt. eigenvalues --    0.30716   0.31935   0.31967   0.32958   0.33573
 Alpha virt. eigenvalues --    0.33981   0.34526   0.34777   0.35585   0.37010
 Alpha virt. eigenvalues --    0.38511   0.39313   0.39457   0.40547   0.41080
 Alpha virt. eigenvalues --    0.41533   0.42075   0.43171   0.43798   0.44583
 Alpha virt. eigenvalues --    0.45129   0.45315   0.46454   0.46784   0.47059
 Alpha virt. eigenvalues --    0.47182   0.47890   0.48672   0.49831   0.50544
 Alpha virt. eigenvalues --    0.51348   0.51825   0.52086   0.52146   0.52589
 Alpha virt. eigenvalues --    0.52911   0.54015   0.55024   0.55500   0.55582
 Alpha virt. eigenvalues --    0.57539   0.58964   0.59004   0.59735   0.60375
 Alpha virt. eigenvalues --    0.61135   0.61484   0.62127   0.63496   0.64968
 Alpha virt. eigenvalues --    0.65498   0.66901   0.67150   0.67553   0.68511
 Alpha virt. eigenvalues --    0.69004   0.69274   0.70240   0.70393   0.70472
 Alpha virt. eigenvalues --    0.70659   0.71622   0.71782   0.72809   0.73093
 Alpha virt. eigenvalues --    0.73620   0.74050   0.74322   0.75192   0.75341
 Alpha virt. eigenvalues --    0.75946   0.76380   0.76483   0.77632   0.78117
 Alpha virt. eigenvalues --    0.79692   0.79809   0.80878   0.81324   0.83135
 Alpha virt. eigenvalues --    0.84625   0.85134   0.86198   0.86699   0.87127
 Alpha virt. eigenvalues --    0.90157   0.90287   0.90949   0.91838   0.94128
 Alpha virt. eigenvalues --    0.98146   0.98920   1.00831   1.02954   1.07131
 Alpha virt. eigenvalues --    1.07442   1.09440   1.10318   1.10971   1.12556
 Alpha virt. eigenvalues --    1.12619   1.12789   1.14792   1.15669   1.15889
 Alpha virt. eigenvalues --    1.16266   1.17485   1.18285   1.18747   1.19370
 Alpha virt. eigenvalues --    1.20149   1.20209   1.21090   1.21415   1.22489
 Alpha virt. eigenvalues --    1.23007   1.23435   1.23490   1.24674   1.25415
 Alpha virt. eigenvalues --    1.25688   1.26668   1.26823   1.27438   1.28384
 Alpha virt. eigenvalues --    1.29685   1.31023   1.31589   1.32289   1.33320
 Alpha virt. eigenvalues --    1.34703   1.34975   1.35091   1.35461   1.37368
 Alpha virt. eigenvalues --    1.37608   1.38445   1.39611   1.39869   1.40164
 Alpha virt. eigenvalues --    1.40718   1.40975   1.42723   1.42767   1.43616
 Alpha virt. eigenvalues --    1.43750   1.46939   1.47931   1.48645   1.49221
 Alpha virt. eigenvalues --    1.49487   1.49740   1.52763   1.52992   1.53220
 Alpha virt. eigenvalues --    1.53406   1.54790   1.54909   1.55258   1.55309
 Alpha virt. eigenvalues --    1.55881   1.56693   1.57998   1.58260   1.58591
 Alpha virt. eigenvalues --    1.58615   1.61416   1.61478   1.62198   1.65187
 Alpha virt. eigenvalues --    1.66559   1.66920   1.67195   1.67400   1.67971
 Alpha virt. eigenvalues --    1.69571   1.69574   1.70221   1.70777   1.72174
 Alpha virt. eigenvalues --    1.73709   1.74258   1.74502   1.75631   1.75645
 Alpha virt. eigenvalues --    1.76416   1.77243   1.77495   1.77855   1.78194
 Alpha virt. eigenvalues --    1.78614   1.79155   1.79914   1.80714   1.82274
 Alpha virt. eigenvalues --    1.82849   1.83056   1.83947   1.86859   1.87454
 Alpha virt. eigenvalues --    1.87750   1.88105   1.89888   1.90743   1.90792
 Alpha virt. eigenvalues --    1.91694   1.93256   1.93298   1.95469   1.95542
 Alpha virt. eigenvalues --    1.95723   1.95958   1.96310   1.96357   1.96377
 Alpha virt. eigenvalues --    1.96802   1.97239   1.97877   2.00537   2.00690
 Alpha virt. eigenvalues --    2.02124   2.02640   2.04736   2.05143   2.06019
 Alpha virt. eigenvalues --    2.06615   2.07181   2.09088   2.09257   2.09982
 Alpha virt. eigenvalues --    2.10290   2.10441   2.10575   2.10929   2.13005
 Alpha virt. eigenvalues --    2.14168   2.14263   2.15382   2.16551   2.16869
 Alpha virt. eigenvalues --    2.22012   2.22320   2.24429   2.24513   2.25984
 Alpha virt. eigenvalues --    2.26441   2.28119   2.28563   2.29239   2.29626
 Alpha virt. eigenvalues --    2.30301   2.33405   2.33421   2.34763   2.35144
 Alpha virt. eigenvalues --    2.35149   2.36687   2.38227   2.41111   2.45263
 Alpha virt. eigenvalues --    2.45845   2.46203   2.50328   2.51510   2.54811
 Alpha virt. eigenvalues --    2.55440   2.57164   2.57489   2.60560   2.60895
 Alpha virt. eigenvalues --    2.62102   2.62872   2.63899   2.64057   2.66907
 Alpha virt. eigenvalues --    2.68916   2.71165   2.71186   2.74137   2.76412
 Alpha virt. eigenvalues --    2.76755   2.81910   2.82476   2.83621   2.83897
 Alpha virt. eigenvalues --    2.85211   2.85367   2.86618   2.89328   2.91292
 Alpha virt. eigenvalues --    2.93877   2.94264   2.95801   2.97053   3.03518
 Alpha virt. eigenvalues --    3.07213   3.07216   3.07923   3.07983   3.08662
 Alpha virt. eigenvalues --    3.09533   3.10421   3.10436   3.11221   3.11221
 Alpha virt. eigenvalues --    3.11649   3.11658   3.11790   3.11795   3.12105
 Alpha virt. eigenvalues --    3.12111   3.12283   3.12374   3.13128   3.13230
 Alpha virt. eigenvalues --    3.13366   3.13555   3.14213   3.14229   3.14370
 Alpha virt. eigenvalues --    3.14524   3.15564   3.15568   3.17317   3.17521
 Alpha virt. eigenvalues --    3.18931   3.20789   3.20851   3.23357   3.23380
 Alpha virt. eigenvalues --    3.24527   3.25305   3.25371   3.26308   3.26434
 Alpha virt. eigenvalues --    3.28259   3.29397   3.30708   3.31274   3.46550
 Alpha virt. eigenvalues --    3.47948   3.50926   3.50927   3.52728   3.53544
 Alpha virt. eigenvalues --    3.59208   3.59229   3.61633   3.62250   3.62452
 Alpha virt. eigenvalues --    3.62544   3.63306   3.63763   3.65047   3.65724
 Alpha virt. eigenvalues --    3.71741   3.71771   3.72958   3.72960   3.73985
 Alpha virt. eigenvalues --    3.77842   3.88668   3.88674   3.91558   3.91564
 Alpha virt. eigenvalues --    3.92481   3.92496   3.95303   3.95359
          Condensed to atoms (all electrons):
               1          2          3          4          5          6
     1  O    8.107336  -0.072342  -0.072361   0.323358   0.323487  -0.149231
     2  O   -0.072342   7.578340  -0.003655   0.773494  -0.001462  -0.135922
     3  O   -0.072361  -0.003655   7.578202  -0.001464   0.773545  -0.001256
     4  C    0.323358   0.773494  -0.001464   4.544121  -0.014904   0.180644
     5  C    0.323487  -0.001462   0.773545  -0.014904   4.543999   0.003007
     6  C   -0.149231  -0.135922  -0.001256   0.180644   0.003007   5.836268
     7  C    0.004343   0.014640   0.000021  -0.059906   0.000083   0.225622
     8  C    0.011505   0.003019   0.000029  -0.084864   0.000195   0.219028
     9  C   -0.000013   0.001459   0.000000   0.018250   0.000001   0.097751
    10  H    0.000511   0.011680   0.000002  -0.014594  -0.000004  -0.076489
    11  C    0.000734  -0.000076   0.000000   0.013003   0.000016   0.097744
    12  H    0.009197   0.000122  -0.000033  -0.019137  -0.000252  -0.059905
    13  C    0.000008  -0.000023  -0.000000  -0.000971   0.000002  -0.174778
    14  H    0.000001  -0.000012   0.000000  -0.000366  -0.000000   0.016060
    15  C   -0.149282  -0.001261  -0.135972   0.003036   0.180752  -0.001153
    16  C    0.004359   0.000021   0.014657   0.000084  -0.059998   0.000047
    17  C    0.011524   0.000029   0.003026   0.000191  -0.084996  -0.000573
    18  C   -0.000014   0.000000   0.001461   0.000001   0.018264   0.000000
    19  H    0.000512   0.000002   0.011694  -0.000005  -0.014613   0.000002
    20  C    0.000733   0.000000  -0.000076   0.000017   0.013024  -0.000019
    21  H    0.009222  -0.000032   0.000124  -0.000253  -0.019181   0.000048
    22  C    0.000008  -0.000000  -0.000023   0.000002  -0.000979  -0.000000
    23  H    0.000001   0.000000  -0.000012  -0.000000  -0.000366  -0.000000
    24  C    0.000000   0.000000   0.000000   0.000040  -0.000000  -0.000687
    25  H    0.000000   0.000000   0.000000  -0.000001   0.000000   0.000065
    26  H    0.000000   0.000000   0.000000   0.000000   0.000000  -0.000014
    27  C    0.000000   0.000000   0.000000  -0.000000   0.000040   0.000000
    28  H    0.000000   0.000000   0.000000   0.000000   0.000000  -0.000000
    29  H    0.000000   0.000000   0.000000   0.000000  -0.000001  -0.000000
    30  C   -0.000000  -0.000000  -0.000000  -0.000000   0.000001   0.000000
    31  C   -0.000000  -0.000000  -0.000000   0.000001  -0.000000   0.000269
    32  F   -0.000000  -0.000000  -0.000000   0.000000  -0.000000   0.000033
    33  F    0.000000   0.000000   0.000000   0.000000   0.000000   0.000000
    34  F   -0.000000   0.000000  -0.000000   0.000000   0.000000   0.000019
    35  F    0.000000   0.000000   0.000000   0.000000   0.000000  -0.000000
    36  F   -0.000000  -0.000000   0.000000   0.000000   0.000000  -0.000000
    37  F   -0.000000  -0.000000  -0.000000  -0.000000   0.000000   0.000000
    38  C   -0.000040   0.000000   0.000000  -0.000001  -0.000184   0.000000
    39  C   -0.000040   0.000000   0.000000  -0.000185  -0.000001   0.013386
    40  F   -0.000000  -0.000000   0.000000  -0.000000  -0.000000  -0.000074
    41  F    0.000000  -0.000000  -0.000000  -0.000020  -0.000000   0.001748
    42  F   -0.000000  -0.000000  -0.000000  -0.000000  -0.000000  -0.000066
    43  F   -0.000000   0.000000  -0.000000  -0.000000  -0.000000  -0.000000
    44  F    0.000000  -0.000000  -0.000000  -0.000000  -0.000020   0.000001
    45  F   -0.000000  -0.000000  -0.000000  -0.000000  -0.000000   0.000000
               7          8          9         10         11         12
     1  O    0.004343   0.011505  -0.000013   0.000511   0.000734   0.009197
     2  O    0.014640   0.003019   0.001459   0.011680  -0.000076   0.000122
     3  O    0.000021   0.000029   0.000000   0.000002   0.000000  -0.000033
     4  C   -0.059906  -0.084864   0.018250  -0.014594   0.013003  -0.019137
     5  C    0.000083   0.000195   0.000001  -0.000004   0.000016  -0.000252
     6  C    0.225622   0.219028   0.097751  -0.076489   0.097744  -0.059905
     7  C    5.065138   0.056589   0.270924   0.465868  -0.155404   0.013623
     8  C    0.056589   5.104104  -0.116763   0.013985   0.331506   0.459663
     9  C    0.270924  -0.116763   5.152503  -0.066858   0.060481  -0.002185
    10  H    0.465868   0.013985  -0.066858   0.618309  -0.001693  -0.000172
    11  C   -0.155404   0.331506   0.060481  -0.001693   5.753665  -0.069110
    12  H    0.013623   0.459663  -0.002185  -0.000172  -0.069110   0.620401
    13  C    0.128022   0.048320   0.211401   0.015647   0.135710   0.016621
    14  H   -0.065576  -0.001705   0.467017  -0.011216   0.017587   0.000011
    15  C    0.000048  -0.000570   0.000000   0.000002  -0.000019   0.000041
    16  C   -0.000000  -0.000007   0.000000  -0.000000  -0.000000  -0.000014
    17  C   -0.000007  -0.000333   0.000000   0.000000   0.000004   0.000963
    18  C    0.000000   0.000000  -0.000000   0.000000  -0.000000  -0.000000
    19  H   -0.000000   0.000000   0.000000  -0.000000  -0.000000  -0.000001
    20  C   -0.000000   0.000004  -0.000000  -0.000000   0.000001   0.000042
    21  H   -0.000015   0.000974  -0.000000  -0.000001   0.000043   0.000289
    22  C    0.000000   0.000000   0.000000   0.000000   0.000000  -0.000002
    23  H   -0.000000   0.000000   0.000000  -0.000000   0.000000   0.000000
    24  C    0.010263   0.011676  -0.098904  -0.000264  -0.082756  -0.000108
    25  H   -0.000210  -0.000371   0.011486   0.000003  -0.035064  -0.000020
    26  H    0.000762  -0.000284  -0.013030   0.000001   0.007783   0.000004
    27  C   -0.000000  -0.000000  -0.000000  -0.000000   0.000000   0.000000
    28  H   -0.000000   0.000000   0.000000  -0.000000   0.000000  -0.000000
    29  H   -0.000000   0.000000   0.000000  -0.000000   0.000000  -0.000000
    30  C    0.000000  -0.000000  -0.000000   0.000000  -0.000000   0.000000
    31  C   -0.000343  -0.000899  -0.003529  -0.000002   0.000794  -0.000015
    32  F   -0.000042  -0.000354  -0.002326   0.000000   0.003335  -0.000000
    33  F   -0.000000  -0.000001   0.000223  -0.000000   0.000021  -0.000000
    34  F    0.000063  -0.000009   0.015671  -0.000014  -0.000050  -0.000000
    35  F    0.000000   0.000000   0.000000   0.000000   0.000000  -0.000000
    36  F    0.000000  -0.000000  -0.000000   0.000000  -0.000000   0.000000
    37  F    0.000000  -0.000000  -0.000000   0.000000  -0.000000   0.000000
    38  C    0.000000  -0.000003  -0.000000   0.000000  -0.000000   0.000002
    39  C   -0.001854  -0.062702   0.012027   0.000032   0.242147  -0.016794
    40  F   -0.000013   0.000058   0.000090   0.000000  -0.065374   0.000178
    41  F   -0.000021  -0.001111  -0.000022  -0.000000  -0.077865   0.012059
    42  F   -0.000016   0.001314  -0.000027  -0.000000  -0.055304   0.000243
    43  F    0.000000  -0.000000  -0.000000  -0.000000  -0.000000   0.000000
    44  F    0.000000  -0.000001  -0.000000  -0.000000  -0.000001  -0.000025
    45  F    0.000000   0.000000   0.000000  -0.000000  -0.000000  -0.000000
              13         14         15         16         17         18
     1  O    0.000008   0.000001  -0.149282   0.004359   0.011524  -0.000014
     2  O   -0.000023  -0.000012  -0.001261   0.000021   0.000029   0.000000
     3  O   -0.000000   0.000000  -0.135972   0.014657   0.003026   0.001461
     4  C   -0.000971  -0.000366   0.003036   0.000084   0.000191   0.000001
     5  C    0.000002  -0.000000   0.180752  -0.059998  -0.084996   0.018264
     6  C   -0.174778   0.016060  -0.001153   0.000047  -0.000573   0.000000
     7  C    0.128022  -0.065576   0.000048  -0.000000  -0.000007   0.000000
     8  C    0.048320  -0.001705  -0.000570  -0.000007  -0.000333   0.000000
     9  C    0.211401   0.467017   0.000000   0.000000   0.000000  -0.000000
    10  H    0.015647  -0.011216   0.000002  -0.000000   0.000000   0.000000
    11  C    0.135710   0.017587  -0.000019  -0.000000   0.000004  -0.000000
    12  H    0.016621   0.000011   0.000041  -0.000014   0.000963  -0.000000
    13  C    5.613661  -0.085728  -0.000000   0.000000   0.000000   0.000000
    14  H   -0.085728   0.638037  -0.000000  -0.000000   0.000000   0.000000
    15  C   -0.000000  -0.000000   5.835871   0.225809   0.219334   0.097709
    16  C    0.000000  -0.000000   0.225809   5.065285   0.056432   0.270867
    17  C    0.000000   0.000000   0.219334   0.056432   5.104159  -0.116746
    18  C    0.000000   0.000000   0.097709   0.270867  -0.116746   5.152405
    19  H    0.000000  -0.000000  -0.076459   0.465871   0.013976  -0.066860
    20  C    0.000000   0.000000   0.097645  -0.155408   0.331451   0.060464
    21  H   -0.000002   0.000000  -0.059790   0.013611   0.459638  -0.002185
    22  C   -0.000000   0.000000  -0.174699   0.128015   0.048294   0.211533
    23  H    0.000000  -0.000000   0.016056  -0.065577  -0.001705   0.467006
    24  C    0.253383  -0.012672   0.000000  -0.000000  -0.000000  -0.000000
    25  H    0.012191   0.000200  -0.000000  -0.000000   0.000000   0.000000
    26  H   -0.002123   0.003350  -0.000000  -0.000000   0.000000   0.000000
    27  C    0.000000   0.000000  -0.000686   0.010253   0.011669  -0.098872
    28  H   -0.000000  -0.000000  -0.000014   0.000765  -0.000282  -0.013043
    29  H    0.000000   0.000000   0.000066  -0.000210  -0.000371   0.011481
    30  C   -0.000000   0.000000   0.000269  -0.000343  -0.000899  -0.003533
    31  C   -0.030818  -0.000642   0.000000   0.000000  -0.000000  -0.000000
    32  F    0.013619   0.000288   0.000000   0.000000  -0.000000  -0.000000
    33  F    0.005419   0.000031  -0.000000   0.000000   0.000000   0.000000
    34  F   -0.016154   0.006348  -0.000000   0.000000  -0.000000  -0.000000
    35  F    0.000000   0.000000   0.000000  -0.000000  -0.000001   0.000223
    36  F    0.000000   0.000000   0.000019   0.000062  -0.000009   0.015676
    37  F    0.000000  -0.000000   0.000033  -0.000040  -0.000351  -0.002322
    38  C    0.000000  -0.000000   0.013372  -0.001853  -0.062690   0.012025
    39  C   -0.031146  -0.000131   0.000000   0.000000  -0.000003  -0.000000
    40  F   -0.007458   0.000003  -0.000000   0.000000  -0.000000  -0.000000
    41  F    0.004231   0.000000   0.000001   0.000000  -0.000001  -0.000000
    42  F   -0.015600   0.000001   0.000000   0.000000   0.000000   0.000000
    43  F    0.000000  -0.000000  -0.000074  -0.000013   0.000043   0.000091
    44  F   -0.000000   0.000000   0.001748  -0.000021  -0.001126  -0.000022
    45  F   -0.000000   0.000000  -0.000066  -0.000016   0.001327  -0.000028
              19         20         21         22         23         24
     1  O    0.000512   0.000733   0.009222   0.000008   0.000001   0.000000
     2  O    0.000002   0.000000  -0.000032  -0.000000   0.000000   0.000000
     3  O    0.011694  -0.000076   0.000124  -0.000023  -0.000012   0.000000
     4  C   -0.000005   0.000017  -0.000253   0.000002  -0.000000   0.000040
     5  C   -0.014613   0.013024  -0.019181  -0.000979  -0.000366  -0.000000
     6  C    0.000002  -0.000019   0.000048  -0.000000  -0.000000  -0.000687
     7  C   -0.000000  -0.000000  -0.000015   0.000000  -0.000000   0.010263
     8  C    0.000000   0.000004   0.000974   0.000000   0.000000   0.011676
     9  C    0.000000  -0.000000  -0.000000   0.000000   0.000000  -0.098904
    10  H   -0.000000  -0.000000  -0.000001   0.000000  -0.000000  -0.000264
    11  C   -0.000000   0.000001   0.000043   0.000000   0.000000  -0.082756
    12  H   -0.000001   0.000042   0.000289  -0.000002   0.000000  -0.000108
    13  C    0.000000   0.000000  -0.000002  -0.000000   0.000000   0.253383
    14  H   -0.000000   0.000000   0.000000   0.000000  -0.000000  -0.012672
    15  C   -0.076459   0.097645  -0.059790  -0.174699   0.016056   0.000000
    16  C    0.465871  -0.155408   0.013611   0.128015  -0.065577  -0.000000
    17  C    0.013976   0.331451   0.459638   0.048294  -0.001705  -0.000000
    18  C   -0.066860   0.060464  -0.002185   0.211533   0.467006  -0.000000
    19  H    0.618258  -0.001692  -0.000172   0.015645  -0.011214  -0.000000
    20  C   -0.001692   5.753678  -0.069154   0.135731   0.017586   0.000000
    21  H   -0.000172  -0.069154   0.620348   0.016617   0.000011   0.000000
    22  C    0.015645   0.135731   0.016617   5.613599  -0.085713   0.000000
    23  H   -0.011214   0.017586   0.000011  -0.085713   0.638060   0.000000
    24  C   -0.000000   0.000000   0.000000   0.000000   0.000000   5.149429
    25  H   -0.000000   0.000000  -0.000000   0.000000   0.000000   0.327399
    26  H   -0.000000   0.000000  -0.000000  -0.000000  -0.000000   0.336847
    27  C   -0.000264  -0.082690  -0.000108   0.253241  -0.012668   0.000000
    28  H    0.000001   0.007786   0.000004  -0.002160   0.003351  -0.000000
    29  H    0.000003  -0.035061  -0.000020   0.012197   0.000201  -0.000000
    30  C   -0.000002   0.000785  -0.000015  -0.030787  -0.000644   0.000000
    31  C    0.000000  -0.000000   0.000000  -0.000000   0.000000   0.342903
    32  F    0.000000  -0.000000   0.000000   0.000000  -0.000000  -0.079980
    33  F    0.000000   0.000000  -0.000000   0.000000   0.000000  -0.070325
    34  F    0.000000  -0.000000   0.000000   0.000000   0.000000  -0.066894
    35  F   -0.000000   0.000021  -0.000000   0.005423   0.000031   0.000000
    36  F   -0.000014  -0.000052  -0.000000  -0.016124   0.006337   0.000000
    37  F    0.000000   0.003331  -0.000000   0.013581   0.000287   0.000000
    38  C    0.000032   0.242151  -0.016786  -0.031092  -0.000131  -0.000000
    39  C    0.000000  -0.000000   0.000003   0.000000  -0.000000  -0.008868
    40  F   -0.000000  -0.000000   0.000000   0.000000  -0.000000  -0.006208
    41  F   -0.000000  -0.000001  -0.000024  -0.000000   0.000000  -0.000097
    42  F   -0.000000  -0.000000  -0.000000  -0.000000   0.000000   0.004857
    43  F    0.000000  -0.065386   0.000177  -0.007457   0.000003   0.000000
    44  F   -0.000000  -0.077857   0.012068   0.004231   0.000000  -0.000000
    45  F   -0.000000  -0.055297   0.000243  -0.015606   0.000001  -0.000000
              25         26         27         28         29         30
     1  O    0.000000   0.000000   0.000000   0.000000   0.000000  -0.000000
     2  O    0.000000   0.000000   0.000000   0.000000   0.000000  -0.000000
     3  O    0.000000   0.000000   0.000000   0.000000   0.000000  -0.000000
     4  C   -0.000001   0.000000  -0.000000   0.000000   0.000000  -0.000000
     5  C    0.000000   0.000000   0.000040   0.000000  -0.000001   0.000001
     6  C    0.000065  -0.000014   0.000000  -0.000000  -0.000000   0.000000
     7  C   -0.000210   0.000762  -0.000000  -0.000000  -0.000000   0.000000
     8  C   -0.000371  -0.000284  -0.000000   0.000000   0.000000  -0.000000
     9  C    0.011486  -0.013030  -0.000000   0.000000   0.000000  -0.000000
    10  H    0.000003   0.000001  -0.000000  -0.000000  -0.000000   0.000000
    11  C   -0.035064   0.007783   0.000000   0.000000   0.000000  -0.000000
    12  H   -0.000020   0.000004   0.000000  -0.000000  -0.000000   0.000000
    13  C    0.012191  -0.002123   0.000000  -0.000000   0.000000  -0.000000
    14  H    0.000200   0.003350   0.000000  -0.000000   0.000000   0.000000
    15  C   -0.000000  -0.000000  -0.000686  -0.000014   0.000066   0.000269
    16  C   -0.000000  -0.000000   0.010253   0.000765  -0.000210  -0.000343
    17  C    0.000000   0.000000   0.011669  -0.000282  -0.000371  -0.000899
    18  C    0.000000   0.000000  -0.098872  -0.013043   0.011481  -0.003533
    19  H   -0.000000  -0.000000  -0.000264   0.000001   0.000003  -0.000002
    20  C    0.000000   0.000000  -0.082690   0.007786  -0.035061   0.000785
    21  H   -0.000000  -0.000000  -0.000108   0.000004  -0.000020  -0.000015
    22  C    0.000000  -0.000000   0.253241  -0.002160   0.012197  -0.030787
    23  H    0.000000  -0.000000  -0.012668   0.003351   0.000201  -0.000644
    24  C    0.327399   0.336847   0.000000  -0.000000  -0.000000   0.000000
    25  H    0.563904  -0.014576  -0.000000  -0.000000   0.000000  -0.000000
    26  H   -0.014576   0.587519  -0.000000  -0.000000  -0.000000   0.000000
    27  C   -0.000000  -0.000000   5.149547   0.336887   0.327387   0.342895
    28  H   -0.000000  -0.000000   0.336887   0.587549  -0.014593   0.003455
    29  H    0.000000  -0.000000   0.327387  -0.014593   0.563924   0.004821
    30  C   -0.000000   0.000000   0.342895   0.003455   0.004821   4.051137
    31  C    0.004794   0.003443   0.000000   0.000000  -0.000000  -0.000000
    32  F    0.000379   0.003385   0.000000  -0.000000   0.000000   0.000000
    33  F    0.004213   0.002415   0.000000   0.000000   0.000000   0.000000
    34  F    0.003242  -0.000672   0.000000   0.000000   0.000000   0.000000
    35  F    0.000000   0.000000  -0.070328   0.002418   0.004204   0.365242
    36  F    0.000000   0.000000  -0.066948  -0.000675   0.003242   0.352241
    37  F    0.000000  -0.000000  -0.079928   0.003385   0.000375   0.361415
    38  C   -0.000000   0.000000  -0.008903  -0.000543   0.021317   0.000830
    39  C    0.021313  -0.000543  -0.000000   0.000000  -0.000000   0.000000
    40  F    0.009781  -0.000038   0.000000   0.000000   0.000000  -0.000000
    41  F    0.000329   0.000001  -0.000000   0.000000  -0.000000   0.000000
    42  F    0.001817   0.000227  -0.000000   0.000000  -0.000000   0.000000
    43  F    0.000000   0.000000  -0.006209  -0.000037   0.009783   0.000314
[...]
 0687042,0.00941041,0.00510853,0.00042571,-0.00045694,0.00066255,-0.002
 48689,0.00173191,-0.00030282,0.00002640,0.00028449,-0.00007302,-0.0000
 5525,-0.00000334,-0.00001379,0.00001297,-0.00001529,-0.00000945,0.0000
 3285,0.00000444,-0.00002584,-0.00000820,-0.00000650,-0.00001227,0.0000
 0714,-0.00000598,0.00000559,-0.00003308,0.00002468,-0.00001593,0.00002
 178,-0.00002231,0.00007181,0.00003268,0.00001005,0.00000223,-0.0000035
 6,-0.00000186,0.00000257,-0.00256263,-0.00069296,-0.00289445,-0.001387
 67,-0.00214908,0.00154504,0.00009488,-0.00107926,0.00102052,-0.0000077
 4,0.00000408,0.00001434,-0.00000719,0.00000082,0.00000266,0.00000520,-
 0.00000399,0.00000546,0.00018360,0.00001326,0.00001873,0.00302656,0.00
 315002,-0.00087883,-0.00382373,-0.00235464,0.00299179,-0.00034401,-0.0
 0035969,-0.00004265,-0.00049149,-0.00102557,0.00083617,-0.00008694,-0.
 00004445,-0.00000464,-0.00003961,0.00000206,0.00000653,-0.00006662,0.0
 0002116,-0.00002930,0.00022616,0.00001247,0.00023308,-0.11529822,0.072
 84913,0.04217456,0.01690168,-0.00775404,-0.00340637,-0.06046651,0.0396
 3630,0.03968061,0.15824452,0.00259967,-0.00028537,-0.00007899,0.001069
 31,-0.00098866,0.00031798,0.00059249,-0.00030435,-0.00013402,-0.003096
 30,0.00049596,0.00012455,-0.00213155,0.00061809,0.00020739,0.00120569,
 -0.00068156,0.00256197,0.00052168,-0.00072584,0.00007380,-0.00486383,-
 0.00428744,0.00072620,0.00017387,0.00041360,0.00094709,-0.00010018,0.0
 0001487,-0.00018285,0.02608865,-0.04075197,-0.02173101,-0.00018309,-0.
 00016198,-0.00111274,0.00321562,0.00106861,0.00058587,-0.00007070,-0.0
 0026058,0.00000095,0.00030947,0.00001523,-0.00000301,-0.00007249,0.000
 10419,0.00004927,0.00000717,-0.00001778,0.00000356,0.00004535,0.000091
 71,0.00004823,-0.00005101,-0.00000137,0.00000061,0.00003609,0.00002899
 ,0.00000450,-0.00006981,-0.00012119,-0.00008443,-0.00000155,-0.0000347
 1,-0.00000080,0.00001506,0.00000464,0.00000561,-0.00165141,-0.00087750
 ,-0.00043914,-0.00238199,-0.00244114,-0.00093403,-0.00026581,0.0002586
 5,0.00016348,0.00001013,-0.00000425,-0.00005253,0.00001388,0.00001002,
 -0.00000145,0.00001595,0.00000305,0.00000047,-0.00014148,-0.00023691,0
 .00010315,-0.00235040,-0.00557138,-0.00203557,0.00077853,0.00235965,0.
 00193953,-0.00029923,0.00117050,0.00048834,0.00032937,0.00144633,-0.00
 014737,0.00011675,0.00010702,-0.00002189,0.00003340,0.00006577,-0.0000
 0568,0.00001050,0.00007844,-0.00004147,0.00016655,-0.00065407,-0.00022
 704,0.07234988,-0.23431160,-0.08010487,-0.00174128,-0.00357677,-0.0372
 6066,0.02124957,0.01323821,-0.00718313,-0.11134404,0.27409574,-0.00024
 730,-0.00005444,0.00012502,-0.00009105,-0.00001701,0.00008003,-0.00001
 402,0.00005387,0.00007205,0.00035957,-0.00000383,-0.00014746,0.0000765
 7,-0.00007917,-0.00011672,0.00030541,0.00021641,-0.00076567,-0.0004902
 0,0.00019672,-0.00003279,0.00042830,-0.00104587,0.00081863,-0.00023459
 ,-0.00060554,0.00011218,-0.00003255,-0.00001987,0.00003210,-0.00052911
 ,0.00453735,0.00998332,-0.00022936,0.00030819,0.00003497,0.00049104,0.
 00033973,0.00001934,-0.00000375,-0.00009648,-0.00003595,-0.00001114,0.
 00000933,0.00001739,-0.00001144,0.00000255,0.00000585,0.00001381,-0.00
 001008,0.00000644,-0.00000208,0.00001020,0.00001181,-0.00000301,0.0000
 0543,-0.00000823,-0.00002653,-0.00000009,0.00001991,0.00002017,-0.0000
 0991,-0.00004522,0.00000494,-0.00000106,-0.00000088,-0.00000160,0.0000
 0280,-0.00000427,-0.00044258,0.00057652,0.00044829,-0.00017943,-0.0008
 5154,-0.00086763,0.00006495,0.00011923,0.00002819,-0.00000159,-0.00000
 575,0.00000500,0.00000031,-0.00000085,-0.00000071,0.00000479,0.0000005
 1,-0.00000384,-0.00003686,0.00000734,-0.00009696,-0.00348582,-0.003660
 81,-0.00188684,0.00508249,0.00306104,-0.00239734,0.00065138,0.00019063
 ,0.00046170,0.00038808,0.00093099,0.00010230,0.00001768,0.00000819,0.0
 0002011,0.00000027,0.00000723,0.00003312,0.00002315,-0.00001718,0.0000
 4029,0.00019197,-0.00009103,-0.00019582,0.04229197,-0.08083020,-0.1250
 9609,0.00774861,-0.05345294,-0.06499525,0.03275991,-0.01304064,-0.0033
 9976,-0.08466105,0.14322799,0.18743551,-0.00017086,-0.00027269,-0.0000
 4950,-0.00005700,-0.00018374,0.00007917,-0.00004453,-0.00022988,-0.000
 08208,0.00029231,0.00029886,-0.00009299,-0.00005466,0.00030583,0.00007
 931,-0.00005244,-0.00000464,-0.00000985,0.00000456,0.00001194,-0.00000
 548,0.00004670,0.00000084,-0.00002774,-0.00000782,-0.00000460,-0.00000
 484,0.00000347,0.00000462,0.00000182,-0.00004970,-0.00003340,-0.000008
 37,0.00002993,0.00003899,0.00005911,0.00004182,-0.00000851,0.00000209,
 -0.00000433,0.00000088,0.00000090,0.00062631,0.00024779,0.00056521,0.0
 0055181,-0.00014307,-0.00015165,-0.00029674,-0.00047641,0.00036455,0.0
 0046403,-0.00113502,0.00021176,0.00008665,0.00007102,-0.00008291,0.007
 01440,-0.00140567,-0.01123593,0.00035783,0.00081823,-0.00012493,-0.002
 88718,-0.00136933,-0.00051804,0.00002365,-0.00026954,-0.00009518,-0.00
 000976,-0.00000168,0.00001643,0.00000977,0.00000445,0.00000466,-0.0000
 0754,-0.00000113,0.00000252,-0.00210860,-0.00226700,0.00052113,0.00009
 573,0.00034795,0.00029240,-0.00059473,0.00197369,0.00150911,0.00002885
 ,0.00178827,-0.00205793,0.00019678,0.00000106,-0.00002150,-0.00007009,
 -0.00002433,-0.00001812,-0.00008789,0.00004159,0.00000287,-0.00004680,
 -0.00001259,0.00002689,0.00014220,0.00005723,0.00026287,-0.00042958,0.
 00024373,0.00140294,0.00050327,-0.00049068,0.00062727,-0.11320460,-0.0
 0702925,-0.07924837,0.00036690,0.00007963,0.00017114,-0.00009690,-0.00
 000347,-0.00012238,-0.00019358,-0.00006394,-0.00002925,-0.00007267,-0.
 00000273,-0.00002341,0.15336862,-0.00171119,-0.00008885,0.00011402,-0.
 00037323,-0.00017830,0.00010324,-0.00070889,-0.00043245,-0.00030590,0.
 00132888,0.00035235,-0.00017312,0.00208867,0.00006811,0.00026382,-0.00
 019094,0.00000949,0.00001390,0.00003941,0.00006060,-0.00002810,-0.0000
 0474,-0.00000688,0.00000526,-0.00002748,0.00005290,-0.00002442,0.00003
 032,-0.00000459,-0.00000454,-0.00003041,0.00002363,0.00000860,0.000050
 74,-0.00007584,0.00002214,-0.00000212,-0.00002025,0.00000016,-0.000009
 59,0.00000112,-0.00000586,-0.00001378,-0.00197634,0.00098962,-0.000672
 59,-0.00047719,-0.00040632,0.00286822,-0.00011329,-0.00140217,-0.00028
 576,-0.00002084,0.00108237,0.00002070,0.00013334,-0.00007729,-0.014872
 56,0.00034868,-0.03411691,-0.00017224,0.00028335,-0.00071957,-0.001723
 91,-0.00017102,0.00025294,0.00005265,-0.00009015,-0.00001804,-0.000005
 85,0.00000158,0.00003339,-0.00000863,0.00000123,-0.00000300,-0.0000074
 9,0.00000692,0.00000017,0.00039459,0.00024572,-0.00156925,0.00006003,0
 .00015817,0.00016431,0.00092258,-0.00058510,-0.00043097,0.00039648,-0.
 00207962,0.00086828,0.00004162,-0.00015535,-0.00011336,0.00001585,0.00
 006262,0.00004999,-0.00005160,0.00005799,0.00002357,-0.00001447,0.0000
 3957,0.00001777,0.00041154,0.00062576,-0.00020422,0.00003101,0.0004912
 2,-0.00004427,-0.00050409,0.00087091,-0.00029593,-0.00742676,-0.085191
 08,-0.02346720,-0.00005409,-0.00036501,0.00001991,0.00000279,0.0000786
 8,-0.00002606,0.00005413,0.00010691,-0.00001410,-0.00002012,0.00015362
 ,0.00003011,-0.00265243,0.07854660,-0.00203722,-0.00033436,0.00019215,
 -0.00039172,-0.00045450,0.00030528,-0.00085427,-0.00077925,-0.00038788
 ,0.00156122,0.00078841,-0.00044568,0.00240683,0.00028361,0.00023496,-0
 .00023028,-0.00001503,0.00002261,0.00002133,0.00006474,-0.00002232,0.0
 0006246,0.00000947,-0.00002329,-0.00003460,0.00002389,-0.00000868,0.00
 002370,-0.00000648,-0.00001360,-0.00010294,-0.00002090,0.00001898,0.00
 009251,-0.00001280,0.00004393,0.00004647,-0.00002119,0.00000089,-0.000
 01513,-0.00000087,-0.00000987,-0.00083096,-0.00183760,0.00084885,-0.00
 021485,-0.00033239,-0.00038886,0.00347940,-0.00263809,-0.00270239,0.00
 000177,-0.00083233,0.00071985,0.00007844,0.00011749,-0.00010246,-0.020
 74676,-0.00892651,-0.03188030,0.00015565,0.00073955,-0.00067465,-0.002
 74725,0.00009524,0.00107272,0.00006906,-0.00015739,-0.00017018,-0.0000
 1704,0.00000484,0.00004920,0.00000847,0.00000527,-0.00000119,-0.000013
 57,0.00000531,0.00000164,0.00128045,-0.00050918,-0.00044450,0.00034888
 ,-0.00017558,-0.00026589,0.00281427,0.00007101,-0.00345589,-0.00218283
 ,0.00099325,-0.00090325,0.00019698,-0.00011592,-0.00022839,-0.00003626
 ,0.00003915,0.00006597,-0.00010973,0.00007575,0.00004579,-0.00006120,0
 .00000446,0.00008549,0.00094567,0.00043334,0.00018734,0.00028922,-0.00
 010410,0.00024403,0.00118219,-0.00076471,0.00044324,-0.07967475,-0.022
 87902,-0.26392568,0.00053340,-0.00009289,0.00000040,-0.00012224,0.0000
 2424,-0.00008867,-0.00028408,-0.00004643,0.00002051,-0.00013350,0.0001
 1533,0.00005779,0.13457366,-0.00747379,0.36951132,0.00175345,-0.000472
 64,-0.00032799,0.00029213,-0.00013608,-0.00001345,0.00074862,-0.000004
 80,-0.00000718,-0.00088669,0.00017128,0.00010381,-0.00258012,0.0005071
 6,0.00027203,0.00009922,-0.00000761,-0.00005528,-0.00001929,-0.0000389
 4,0.00001419,0.00010370,0.00000349,-0.00007501,0.00001156,-0.00005568,
 0.00000582,-0.00002326,0.00001831,0.00001531,-0.00005352,-0.00009789,-
 0.00004284,-0.00000422,0.00016270,0.00015418,0.00009101,0.00000126,0.0
 0000571,0.00000243,0.00000158,0.00001086,0.00213320,0.00114442,0.00045
 436,0.00022929,-0.00011784,-0.00008397,-0.00505135,-0.00434336,-0.0016
 3473,-0.00117353,-0.00012671,0.00002560,0.00020419,-0.00008166,-0.0000
 4543,-0.02267471,0.01092053,0.00552776,0.00277777,0.00042822,-0.000052
 24,0.00226772,0.00388171,0.00190820,0.00003895,0.00038739,0.00017721,-
 0.00001374,-0.00000963,-0.00000028,0.00002513,0.00000806,0.00001533,-0
 .00000911,-0.00000956,0.00000579,0.00005420,-0.00054662,-0.00032056,-0
 .00006037,0.00024951,0.00021447,0.00102702,0.00003790,0.00000233,0.002
 02461,-0.00063360,-0.00153187,0.00039775,0.00014262,0.00013348,-0.0001
 7772,-0.00011785,-0.00011242,-0.00014871,0.00004158,-0.00003100,-0.000
 08318,-0.00005432,0.00001276,-0.00056471,-0.00013911,0.00022910,-0.000
 49378,0.00052944,0.00088269,-0.00070307,0.00042025,0.00051801,-0.28188
 620,0.07992342,0.04082985,0.00070546,0.00043592,0.00050274,-0.00019353
 ,-0.00005653,-0.00028283,-0.00037810,-0.00019222,-0.00010421,-0.000107
 48,-0.00014905,-0.00012395,-0.06067892,0.01518667,-0.03608026,0.423893
 72,-0.00221610,-0.00011032,0.00010991,-0.00046894,-0.00017066,0.000114
 38,-0.00074241,-0.00046977,-0.00022265,0.00167046,0.00034986,-0.000206
 20,0.00240385,0.00048570,0.00025211,-0.00022415,0.00001385,0.00002826,
 0.00005335,0.00007527,-0.00003558,-0.00003242,-0.00000737,0.00002093,-
 0.00003332,0.00007426,-0.00002993,0.00003808,-0.00000845,-0.00000733,-
 0.00001086,0.00005011,0.00001813,0.00005319,-0.00013014,-0.00000439,-0
 .00003047,-0.00002216,-0.00000079,-0.00001052,0.00000147,-0.00000863,0
 .00053162,0.00018179,-0.00005208,0.00055309,-0.00040380,-0.00023876,0.
 00046900,-0.00263300,-0.00119178,0.00197010,-0.00090542,-0.00032411,0.
 00006989,0.00001382,0.00001433,0.04082461,-0.01018478,-0.00993819,0.00
 143165,-0.00424652,-0.00184238,-0.00372114,-0.00549511,-0.00318040,-0.
 00002018,-0.00061635,-0.00016690,-0.00000179,0.00000301,0.00003518,-0.
 00001775,-0.00000105,-0.00000724,-0.00000551,0.00001031,-0.00000143,-0
 .00049563,0.00001322,-0.00042074,0.00014811,0.00011851,0.00002167,0.00
 003031,-0.00005106,0.00022947,0.00001852,-0.00176914,0.00110108,-0.000
 06809,-0.00020700,-0.00014169,0.00006573,0.00009923,0.00007903,-0.0000
 1357,0.00005081,0.00003054,0.00000931,0.00005978,0.00000847,0.00043741
 ,0.00055826,-0.00025508,0.00008480,0.00041069,-0.00012668,-0.00039186,
 0.00076849,-0.00034238,0.07312106,-0.11552677,-0.01832697,-0.00030527,
 -0.00054707,-0.00009457,0.00006570,0.00010783,0.00004713,0.00019469,0.
 00018592,0.00000418,0.00001846,0.00021217,0.00005978,0.01002887,0.0114
 3121,0.00837956,-0.08705959,0.11422107,-0.00109190,-0.00007620,0.00015
 246,-0.00019838,-0.00016565,0.00013922,-0.00037125,-0.00024262,-0.0000
 8411,0.00075195,0.00027750,-0.00022640,0.00120445,0.00024993,0.0000483
 5,-0.00010757,-0.00000415,0.00002324,0.00000740,0.00002602,-0.00000631
 ,0.00002373,0.00001103,0.00000003,-0.00001774,0.00001399,0.00000011,0.
 00001027,-0.00000786,-0.00000935,-0.00004510,0.00000633,0.00002132,0.0
 0005451,-0.00001760,-0.00001801,0.00000478,-0.00000710,-0.00000112,-0.
 00000640,-0.00000219,-0.00000655,0.00018996,-0.00001890,0.00015269,0.0
 0029319,-0.00021016,-0.00007256,0.00032772,-0.00107637,-0.00073463,0.0
 0092549,-0.00021894,-0.00075379,0.00002594,0.00001652,-0.00000258,0.02
 081574,-0.00986972,0.00456510,0.00053485,-0.00181444,-0.00124218,-0.00
 175245,-0.00357400,0.00003865,-0.00002774,-0.00020905,-0.00029649,-0.0
 0000466,0.00000484,0.00002092,0.00000049,0.00000037,-0.00000404,-0.000
 00405,0.00000406,-0.00000006,-0.00031688,-0.00022041,0.00027159,0.0001
 1046,-0.00003478,-0.00005166,0.00026792,0.00025145,-0.00051130,-0.0010
 6027,0.00047259,-0.00012623,-0.00001065,-0.00008103,-0.00014038,0.0000
 2720,0.00004469,0.00005919,-0.00001027,0.00002126,0.00002905,-0.000007
 14,0.00001267,0.00003830,0.00038560,0.00015897,0.00003964,0.00015268,-
 0.00008866,0.00001239,0.00047874,-0.00031207,0.00006284,0.03725438,-0.
 01851679,-0.08758693,0.00018516,-0.00009257,-0.00013494,-0.00003022,0.
 00001289,0.00001951,-0.00010742,-0.00000576,0.00004144,-0.00005392,0.0
 0008154,0.00006447,-0.05489001,0.01449602,-0.00156833,-0.04428384,0.01
 410491,0.09149313,-0.00017036,-0.00024161,-0.00009842,-0.00007773,-0.0
 0013215,0.00003104,-0.00005467,-0.00022374,-0.00010958,0.00032557,0.00
 022442,-0.00002777,-0.00002548,0.00024809,0.00017364,-0.00005753,0.000
 00366,-0.00001382,0.00001362,0.00001581,-0.00001007,0.00003276,-0.0000
 0523,-0.00002579,-0.00000849,0.00000704,-0.00001274,0.00000756,0.00000
 600,0.00000549,-0.00003352,-0.00002447,-0.00001556,0.00002246,0.000022
 41,0.00007208,0.00003262,-0.00001051,0.00000240,-0.00000365,0.00000196
 ,0.00000250,0.00064608,0.00049414,-0.00033792,0.00035883,-0.00021569,-
 0.00011099,-0.00017762,-0.00008203,-0.00044028,0.00039412,-0.00030674,
 -0.00101119,0.00009237,-0.00002501,0.00011903,0.00660094,-0.00967967,0
 .00543097,0.00043040,0.00046325,0.00066337,-0.00252353,-0.00170912,-0.
 00027921,0.00002489,-0.00028771,-0.00006836,-0.00000786,-0.00000383,0.
 00001479,0.00000512,0.00000406,0.00000540,-0.00000730,-0.00000064,0.00
 000269,-0.00254298,0.00065918,-0.00290139,0.00010506,0.00109620,0.0010
 0158,-0.00135565,0.00216552,0.00151655,0.00302535,-0.00323403,-0.00080
 870,0.00018454,-0.00001609,0.00001820,-0.00006684,-0.00002054,-0.00002
 867,-0.00008746,0.00004581,-0.00000521,-0.00003988,-0.00000118,0.00000
 660,-0.00034040,0.00037026,-0.00005308,-0.00048661,0.00105489,0.000820
 31,-0.00383258,0.00246201,0.00295263,-0.11639826,-0.07302683,0.0439743
 1,0.00022478,-0.00001521,0.00023503,-0.00007250,0.00001961,-0.00013468
 ,-0.00010648,-0.00001697,-0.00005425,-0.00004575,0.00001329,-0.0000429
 6,0.01697133,0.00754807,-0.00325057,-0.06091579,-0.03842231,0.04036522
 ,0.15994051,-0.00260403,-0.00026193,0.00008619,-0.00059428,-0.00029753
 ,0.00013987,-0.00107755,-0.00098359,-0.00029979,0.00213453,0.00059824,
 -0.00021902,0.00310550,0.00046892,-0.00013609,-0.00030904,0.00001741,0
 .00000315,0.00007295,0.00010266,-0.00005077,-0.00000732,-0.00001758,-0
 .00000298,-0.00004464,0.00009103,-0.00004941,0.00005089,-0.00000190,-0
 .00000076,-0.00003605,0.00002938,-0.00000451,0.00006906,-0.00012032,0.
 00008510,0.00000114,-0.00003460,0.00000131,-0.00001501,0.00000459,-0.0
 0000577,-0.00120995,-0.00072175,-0.00256074,-0.00053830,-0.00072470,-0
 .00006181,0.00484006,-0.00431578,-0.00063812,-0.00017750,0.00041203,-0
 .00094381,0.00009905,0.00001762,0.00018218,-0.02645105,-0.04019523,0.0
 2251152,0.00017482,-0.00015370,0.00111073,-0.00318087,0.00108780,-0.00
 060067,0.00006863,-0.00025728,0.00000313,-0.00001015,-0.00000325,0.000
 05254,-0.00001588,0.00000312,-0.00000062,-0.00001375,0.00001017,0.0000
 0126,0.00165537,-0.00089532,0.00048232,0.00026796,0.00024396,-0.000174
 85,0.00236945,-0.00244390,0.00094723,0.00223469,-0.00547545,0.00209949
 ,0.00013779,-0.00023946,-0.00010099,-0.00000908,0.00007955,0.00004106,
 -0.00011501,0.00010771,0.00002052,-0.00003262,0.00006598,0.00000511,0.
 00031996,0.00115456,-0.00049937,-0.00030953,0.00142869,0.00012031,-0.0
 0064554,0.00226613,-0.00204287,-0.07252006,-0.23055729,0.08150843,-0.0
 0016986,-0.00064738,0.00023265,0.00000401,0.00015105,-0.00011584,0.000
 14932,0.00020882,-0.00008350,-0.00001184,0.00024140,-0.00000787,0.0017
 2027,-0.00218014,0.03625744,-0.02015215,0.01400930,0.00659946,0.110775
 62,0.26772799,-0.00020447,0.00006258,0.00012269,-0.00000474,-0.0000477
 3,0.00007063,-0.00007335,0.00003506,0.00008462,0.00004239,0.00006693,-
 0.00011441,0.00030899,-0.00000888,-0.00014520,-0.00000617,-0.00000925,
 0.00001749,-0.00001265,-0.00000405,0.00000672,0.00001400,0.00001036,0.
 00000633,-0.00000143,-0.00001147,0.00001278,-0.00000388,-0.00000551,-0
 .00000813,-0.00002594,0.00000014,0.00001998,0.00001912,0.00001098,-0.0
 0004676,0.00000492,0.00000157,-0.00000092,-0.00000137,-0.00000293,-0.0
 0000413,0.00032367,-0.00021929,-0.00072025,-0.00048290,-0.00018173,-0.
 00002864,0.00035686,0.00112662,0.00081210,-0.00022717,0.00060245,0.000
 11780,-0.00003401,0.00002034,0.00002881,-0.00013030,-0.00371320,0.0096
 8899,-0.00023448,-0.00030336,0.00002181,0.00054058,-0.00036113,0.00003
 467,-0.00000419,0.00010011,-0.00003756,-0.00000138,0.00000589,0.000004
 06,0.00000504,-0.00000066,-0.00000382,0.00000054,0.00000067,-0.0000007
 5,-0.00047485,-0.00055093,0.00044844,0.00005949,-0.00012289,0.00003352
 ,-0.00021128,0.00087834,-0.00089706,-0.00350068,0.00375054,-0.00198417
 ,-0.00003920,-0.00000477,-0.00009520,0.00002345,0.00001638,0.00003937,
 0.00001950,-0.00000975,0.00001991,0.00000076,-0.00000775,0.00003313,0.
 00064649,-0.00020679,0.00047394,0.00038713,-0.00095728,0.00011528,0.00
 509316,-0.00318803,-0.00232565,0.04408845,0.08223700,-0.12774620,0.000
 19537,0.00009692,-0.00020109,-0.00002368,-0.00003145,0.00006017,-0.000
 12680,-0.00006119,0.00006680,-0.00004270,0.00000527,0.00006165,0.00812
 265,0.05236483,-0.06646102,0.03318772,0.01250783,-0.00371569,-0.087572
 63,-0.14389081,0.19213499\\0.00000135,0.00000592,-0.00000316,-0.000000
 03,0.00000208,-0.00000344,0.00000013,0.00000455,-0.00000157,-0.0000036
 3,-0.00000597,0.00000843,0.00000268,-0.00001229,0.00000434,-0.00000498
 ,0.00000585,-0.00000380,-0.00000143,-0.00000730,0.00000325,-0.00000295
 ,0.00000061,-0.00000577,-0.00000842,-0.00000255,0.00000141,0.00000090,
 0.00000883,-0.00000473,0.00000129,-0.00000841,0.00000869,-0.00000665,-
 0.00000228,0.00000299,0.00001123,-0.00000230,0.00000425,0.00001018,0.0
 0000365,-0.00000315,0.00000565,0.00000778,-0.00000019,0.00000170,-0.00
 000721,-0.00000396,0.00000381,0.00000259,0.00000463,0.00000871,-0.0000
 0096,0.00000325,-0.00000104,0.00000905,0.00000419,-0.00000718,-0.00000
 622,-0.00001480,0.00000625,-0.00000206,-0.00000204,-0.00000677,-0.0000
 0571,-0.00000317,-0.00000914,0.00000321,0.00000267,-0.00000560,0.00000
 411,-0.00001196,0.00000177,-0.00000366,0.00000176,0.00000039,0.0000017
 6,0.00000420,0.00000621,0.00000394,0.00001128,-0.00000112,0.00000205,-
 0.00000785,-0.00000233,-0.00000552,0.00000162,0.00001606,0.00000407,-0
 .00000385,-0.00001578,0.00000465,-0.00000009,0.00001540,0.00000905,-0.
 00000577,0.00000758,-0.00000308,-0.00000047,0.00000046,-0.00000591,-0.
 00000034,-0.00000618,-0.00000297,-0.00000066,-0.00000270,-0.00000324,0
 .00000423,0.00000042,0.00000006,-0.00001174,-0.00001707,0.00000628,0.0
 0000433,0.00001854,0.00000291,-0.00000781,-0.00001147,-0.00000293,0.00
 000489,-0.00000253,-0.00000157,0.00000409,-0.00001380,0.00000029,0.000
 00851,0.00000784,-0.00000088,0.00000050,0.00000477,-0.00000353,-0.0000
 0326,-0.00000252,0.00000329,0.00001007\\\@


 I WANT IT ALL - RICH, THIN, AND CHOCOLATE.
 Job cpu time:       0 days 11 hours 11 minutes 55.3 seconds.
 Elapsed time:       0 days  0 hours 10 minutes 35.3 seconds.
 File lengths (MBytes):  RWF=   1661 Int=      0 D2E=      0 Chk=     25 Scr=      1
 Normal termination of Gaussian 16 at Sat Sep 30 23:30:41 2023.
