 Entering Gaussian System, Link 0=/home/users/astar/bmsi/zhangx5/programs/g16/g16
 Input=/home/users/astar/bmsi/zhangx5/scratch/udc3_mCF3_monomer_c1/udc3_mCF3_monomer_c1.com
 Output=/home/users/astar/bmsi/zhangx5/scratch/udc3_mCF3_monomer_c1/udc3_mCF3_monomer_c1.log
 Initial command:
 /home/users/astar/bmsi/zhangx5/programs/g16/l1.exe "/scratch/users/astar/bmsi/zhangx5/udc3_mCF3_monomer_c1/Gau-3953906.inp" -scrdir="/scratch/users/astar/bmsi/zhangx5/udc3_mCF3_monomer_c1/"
 Entering Link 1 = /home/users/astar/bmsi/zhangx5/programs/g16/l1.exe PID=   3953908.
  
 Copyright (c) 1988-2017, Gaussian, Inc.  All Rights Reserved.
  
 This is part of the Gaussian(R) 16 program.  It is based on
 the Gaussian(R) 09 system (copyright 2009, Gaussian, Inc.),
 the Gaussian(R) 03 system (copyright 2003, Gaussian, Inc.),
 the Gaussian(R) 98 system (copyright 1998, Gaussian, Inc.),
 the Gaussian(R) 94 system (copyright 1995, Gaussian, Inc.),
 the Gaussian 92(TM) system (copyright 1992, Gaussian, Inc.),
 the Gaussian 90(TM) system (copyright 1990, Gaussian, Inc.),
 the Gaussian 88(TM) system (copyright 1988, Gaussian, Inc.),
 the Gaussian 86(TM) system (copyright 1986, Carnegie Mellon
 University), and the Gaussian 82(TM) system (copyright 1983,
 Carnegie Mellon University). Gaussian is a federally registered
 trademark of Gaussian, Inc.
  
 This software contains proprietary and confidential information,
 including trade secrets, belonging to Gaussian, Inc.
  
 This software is provided under written license and may be
 used, copied, transmitted, or stored only in accord with that
 written license.
  
 The following legend is applicable only to US Government
 contracts under FAR:
  
                    RESTRICTED RIGHTS LEGEND
  
 Use, reproduction and disclosure by the US Government is
 subject to restrictions as set forth in subparagraphs (a)
 and (c) of the Commercial Computer Software - Restricted
 Rights clause in FAR 52.227-19.
  
 Gaussian, Inc.
 340 Quinnipiac St., Bldg. 40, Wallingford CT 06492
  
  
 ---------------------------------------------------------------
 Warning -- This program may not be used in any manner that
 competes with the business of Gaussian, Inc. or will provide
 assistance to any competitor of Gaussian, Inc.  The licensee
 of this program is prohibited from giving any competitor of
 Gaussian, Inc. access to this program.  By using this program,
 the user acknowledges that Gaussian, Inc. is engaged in the
 business of creating and licensing software in the field of
 computational chemistry and represents and warrants to the
 licensee that it is not a competitor of Gaussian, Inc. and that
 it will not use this program in any manner prohibited above.
 ---------------------------------------------------------------
  

 Cite this work as:
 Gaussian 16, Revision B.01,
 M. J. Frisch, G. W. Trucks, H. B. Schlegel, G. E. Scuseria, 
 M. A. Robb, J. R. Cheeseman, G. Scalmani, V. Barone, 
 G. A. Petersson, H. Nakatsuji, X. Li, M. Caricato, A. V. Marenich, 
 J. Bloino, B. G. Janesko, R. Gomperts, B. Mennucci, H. P. Hratchian, 
 J. V. Ortiz, A. F. Izmaylov, J. L. Sonnenberg, D. Williams-Young, 
 F. Ding, F. Lipparini, F. Egidi, J. Goings, B. Peng, A. Petrone, 
 T. Henderson, D. Ranasinghe, V. G. Zakrzewski, J. Gao, N. Rega, 
 G. Zheng, W. Liang, M. Hada, M. Ehara, K. Toyota, R. Fukuda, 
 J. Hasegawa, M. Ishida, T. Nakajima, Y. Honda, O. Kitao, H. Nakai, 
 T. Vreven, K. Throssell, J. A. Montgomery, Jr., J. E. Peralta, 
 F. Ogliaro, M. J. Bearpark, J. J. Heyd, E. N. Brothers, K. N. Kudin, 
 V. N. Staroverov, T. A. Keith, R. Kobayashi, J. Normand, 
 K. Raghavachari, A. P. Rendell, J. C. Burant, S. S. Iyengar, 
 J. Tomasi, M. Cossi, J. M. Millam, M. Klene, C. Adamo, R. Cammi, 
 J. W. Ochterski, R. L. Martin, K. Morokuma, O. Farkas, 
 J. B. Foresman, and D. J. Fox, Gaussian, Inc., Wallingford CT, 2016.
 
 ******************************************
 Gaussian 16:  ES64L-G16RevB.01 20-Dec-2017
                30-Sep-2023 
 ******************************************
 %chk=udc3_mCF3_monomer_c1.chk
 %nprocshared=64
 Will use up to   64 processors via shared memory.
 %mem=64GB
 ------------------------
 # opt freq m062x def2svp
 ------------------------
 1/18=20,19=15,26=3,38=1/1,3;
 2/9=110,12=2,17=6,18=5,40=1/2;
 3/5=43,7=101,11=2,25=1,30=1,71=1,74=-55/1,2,3;
 4//1;
 5/5=2,38=5/2;
 6/7=2,8=2,9=2,10=2,28=1/1;
 7//1,2,3,16;
 1/18=20,19=15,26=3/3(2);
 2/9=110/2;
 99//99;
 2/9=110/2;
 3/5=43,7=101,11=2,25=1,30=1,71=1,74=-55/1,2,3;
 4/5=5,16=3,69=1/1;
 5/5=2,38=5/2;
 7//1,2,3,16;
 1/18=20,19=15,26=3/3(-5);
 2/9=110/2;
 6/7=2,8=2,9=2,10=2,19=2,28=1/1;
 99/9=1/99;
 ------------
 Gaussian job
 ------------
 Symbolic Z-matrix:
 Charge =  0 Multiplicity = 1
 O                     0.00032   1.94191   0.00203 
 O                     1.10252   3.74735   0.82545 
 O                    -1.10162   3.74744  -0.82153 
 C                     1.10492   2.60587   0.48089 
 C                    -1.10407   2.60584  -0.47737 
 C                     2.27318   1.69383   0.56888 
 C                     3.43852   2.17338   1.16273 
 C                     2.23776   0.39404   0.07845 
 C                     4.54872   1.36025   1.26256 
 H                     3.4533    3.18464   1.53918 
 C                     3.35965  -0.416     0.17564 
 H                     1.34043   0.01583  -0.38489 
 C                     4.5333    0.05747   0.77015 
 H                     5.4479    1.73888   1.72349 
 C                    -2.27202   1.69356  -0.56674 
 C                    -3.43629   2.17262  -1.16311 
 C                    -2.23749   0.39417  -0.07518 
 C                    -4.54626   1.35939  -1.26444 
 H                    -3.45037   3.1836   -1.54033 
 C                    -3.35927  -0.41589  -0.17366 
 H                    -1.34103   0.01631   0.39012 
 C                    -4.53177   0.05703  -0.77084 
 H                    -5.44453   1.73759  -1.72747 
 C                     5.79055  -0.766     0.86263 
 H                     5.62466  -1.82439   0.66608 
 H                     6.24141  -0.66206   1.85235 
 C                    -5.78882  -0.76654  -0.86523 
 H                    -6.23746  -0.66363  -1.85607 
 H                    -5.6234   -1.82473  -0.6672 
 C                    -6.81984  -0.27063   0.14457 
 C                     6.81926  -0.27116  -0.15004 
 F                     7.30732   0.93629   0.1768 
 F                     6.31841  -0.15519  -1.38317 
 F                     7.86864  -1.09682  -0.22474 
 F                    -7.86956  -1.09615   0.21741 
 F                    -7.30702   0.93655  -0.18453 
 F                    -6.32201  -0.15369   1.37875 
 C                    -3.2687   -1.83006   0.34611 
 C                     3.26793  -1.83068  -0.34249 
 F                     2.08497  -2.10061  -0.90048 
 F                     4.19802  -2.117    -1.26604 
 F                     3.4346   -2.73387   0.64562 
 F                    -2.08707  -2.09929   0.90736 
 F                    -4.20103  -2.11554   1.26757 
 F                    -3.43273  -2.73423  -0.64153 
 

 GradGradGradGradGradGradGradGradGradGradGradGradGradGradGradGradGradGrad
 Berny optimization.
 Initialization pass.
                           ----------------------------
                           !    Initial Parameters    !
                           ! (Angstroms and Degrees)  !
 --------------------------                            --------------------------
 ! Name  Definition              Value          Derivative Info.                !
 --------------------------------------------------------------------------------
 ! R1    R(1,4)                  1.3749         estimate D2E/DX2                !
 ! R2    R(1,5)                  1.3749         estimate D2E/DX2                !
 ! R3    R(2,4)                  1.1924         estimate D2E/DX2                !
 ! R4    R(3,5)                  1.1923         estimate D2E/DX2                !
 ! R5    R(4,6)                  1.4847         estimate D2E/DX2                !
 ! R6    R(5,15)                 1.4847         estimate D2E/DX2                !
 ! R7    R(6,7)                  1.3931         estimate D2E/DX2                !
 ! R8    R(6,8)                  1.3897         estimate D2E/DX2                !
 ! R9    R(7,9)                  1.3797         estimate D2E/DX2                !
 ! R10   R(7,10)                 1.0792         estimate D2E/DX2                !
 ! R11   R(8,11)                 1.3872         estimate D2E/DX2                !
 ! R12   R(8,12)                 1.0784         estimate D2E/DX2                !
 ! R13   R(9,13)                 1.3928         estimate D2E/DX2                !
 ! R14   R(9,14)                 1.079          estimate D2E/DX2                !
 ! R15   R(11,13)                1.3982         estimate D2E/DX2                !
 ! R16   R(11,39)                1.5094         estimate D2E/DX2                !
 ! R17   R(13,24)                1.5058         estimate D2E/DX2                !
 ! R18   R(15,16)                1.3931         estimate D2E/DX2                !
 ! R19   R(15,17)                1.3897         estimate D2E/DX2                !
 ! R20   R(16,18)                1.3797         estimate D2E/DX2                !
 ! R21   R(16,19)                1.0791         estimate D2E/DX2                !
 ! R22   R(17,20)                1.3872         estimate D2E/DX2                !
 ! R23   R(17,21)                1.0784         estimate D2E/DX2                !
 ! R24   R(18,22)                1.3928         estimate D2E/DX2                !
 ! R25   R(18,23)                1.079          estimate D2E/DX2                !
 ! R26   R(20,22)                1.3982         estimate D2E/DX2                !
 ! R27   R(20,38)                1.5094         estimate D2E/DX2                !
 ! R28   R(22,27)                1.5058         estimate D2E/DX2                !
 ! R29   R(24,25)                1.0892         estimate D2E/DX2                !
 ! R30   R(24,26)                1.0925         estimate D2E/DX2                !
 ! R31   R(24,31)                1.526          estimate D2E/DX2                !
 ! R32   R(27,28)                1.0925         estimate D2E/DX2                !
 ! R33   R(27,29)                1.0892         estimate D2E/DX2                !
 ! R34   R(27,30)                1.526          estimate D2E/DX2                !
 ! R35   R(30,35)                1.3374         estimate D2E/DX2                !
 ! R36   R(30,36)                1.3427         estimate D2E/DX2                !
 ! R37   R(30,37)                1.3359         estimate D2E/DX2                !
 ! R38   R(31,32)                1.3427         estimate D2E/DX2                !
 ! R39   R(31,33)                1.336          estimate D2E/DX2                !
 ! R40   R(31,34)                1.3373         estimate D2E/DX2                !
 ! R41   R(38,43)                1.3356         estimate D2E/DX2                !
 ! R42   R(38,44)                1.3416         estimate D2E/DX2                !
 ! R43   R(38,45)                1.349          estimate D2E/DX2                !
 ! R44   R(39,40)                1.3355         estimate D2E/DX2                !
 ! R45   R(39,41)                1.3416         estimate D2E/DX2                !
 ! R46   R(39,42)                1.349          estimate D2E/DX2                !
 ! A1    A(4,1,5)              122.2483         estimate D2E/DX2                !
 ! A2    A(1,4,2)              124.1493         estimate D2E/DX2                !
 ! A3    A(1,4,6)              110.8643         estimate D2E/DX2                !
 ! A4    A(2,4,6)              124.9274         estimate D2E/DX2                !
 ! A5    A(1,5,3)              124.1484         estimate D2E/DX2                !
 ! A6    A(1,5,15)             110.8642         estimate D2E/DX2                !
 ! A7    A(3,5,15)             124.9279         estimate D2E/DX2                !
 ! A8    A(4,6,7)              118.1656         estimate D2E/DX2                !
 ! A9    A(4,6,8)              122.2479         estimate D2E/DX2                !
 ! A10   A(7,6,8)              119.5862         estimate D2E/DX2                !
 ! A11   A(6,7,9)              120.071          estimate D2E/DX2                !
 ! A12   A(6,7,10)             118.8647         estimate D2E/DX2                !
 ! A13   A(9,7,10)             121.0643         estimate D2E/DX2                !
 ! A14   A(6,8,11)             120.0554         estimate D2E/DX2                !
 ! A15   A(6,8,12)             120.0573         estimate D2E/DX2                !
 ! A16   A(11,8,12)            119.8858         estimate D2E/DX2                !
 ! A17   A(7,9,13)             121.1144         estimate D2E/DX2                !
 ! A18   A(7,9,14)             119.6454         estimate D2E/DX2                !
 ! A19   A(13,9,14)            119.239          estimate D2E/DX2                !
 ! A20   A(8,11,13)            120.7245         estimate D2E/DX2                !
 ! A21   A(8,11,39)            118.3018         estimate D2E/DX2                !
 ! A22   A(13,11,39)           120.9534         estimate D2E/DX2                !
 ! A23   A(9,13,11)            118.4467         estimate D2E/DX2                !
 ! A24   A(9,13,24)            118.7221         estimate D2E/DX2                !
 ! A25   A(11,13,24)           122.8048         estimate D2E/DX2                !
 ! A26   A(5,15,16)            118.1582         estimate D2E/DX2                !
 ! A27   A(5,15,17)            122.2552         estimate D2E/DX2                !
 ! A28   A(16,15,17)           119.5864         estimate D2E/DX2                !
 ! A29   A(15,16,18)           120.0723         estimate D2E/DX2                !
 ! A30   A(15,16,19)           118.8625         estimate D2E/DX2                !
 ! A31   A(18,16,19)           121.0652         estimate D2E/DX2                !
 ! A32   A(15,17,20)           120.0537         estimate D2E/DX2                !
 ! A33   A(15,17,21)           120.06           estimate D2E/DX2                !
 ! A34   A(20,17,21)           119.8847         estimate D2E/DX2                !
 ! A35   A(16,18,22)           121.1136         estimate D2E/DX2                !
 ! A36   A(16,18,23)           119.6453         estimate D2E/DX2                !
 ! A37   A(22,18,23)           119.2399         estimate D2E/DX2                !
 ! A38   A(17,20,22)           120.7261         estimate D2E/DX2                !
 ! A39   A(17,20,38)           118.3043         estimate D2E/DX2                !
 ! A40   A(22,20,38)           120.9494         estimate D2E/DX2                !
 ! A41   A(18,22,20)           118.4462         estimate D2E/DX2                !
 ! A42   A(18,22,27)           118.7191         estimate D2E/DX2                !
 ! A43   A(20,22,27)           122.8086         estimate D2E/DX2                !
 ! A44   A(13,24,25)           113.1507         estimate D2E/DX2                !
 ! A45   A(13,24,26)           110.3757         estimate D2E/DX2                !
 ! A46   A(13,24,31)           110.168          estimate D2E/DX2                !
 ! A47   A(25,24,26)           108.5885         estimate D2E/DX2                !
 ! A48   A(25,24,31)           107.3395         estimate D2E/DX2                !
 ! A49   A(26,24,31)           106.9854         estimate D2E/DX2                !
 ! A50   A(22,27,28)           110.3735         estimate D2E/DX2                !
 ! A51   A(22,27,29)           113.1528         estimate D2E/DX2                !
 ! A52   A(22,27,30)           110.1709         estimate D2E/DX2                !
 ! A53   A(28,27,29)           108.5878         estimate D2E/DX2                !
 ! A54   A(28,27,30)           106.9832         estimate D2E/DX2                !
 ! A55   A(29,27,30)           107.3395         estimate D2E/DX2                !
 ! A56   A(27,30,35)           111.4538         estimate D2E/DX2                !
 ! A57   A(27,30,36)           112.0317         estimate D2E/DX2                !
 ! A58   A(27,30,37)           112.8305         estimate D2E/DX2                !
 ! A59   A(35,30,36)           106.4696         estimate D2E/DX2                !
 ! A60   A(35,30,37)           107.2295         estimate D2E/DX2                !
 ! A61   A(36,30,37)           106.4357         estimate D2E/DX2                !
 ! A62   A(24,31,32)           112.0308         estimate D2E/DX2                !
 ! A63   A(24,31,33)           112.8269         estimate D2E/DX2                !
 ! A64   A(24,31,34)           111.4588         estimate D2E/DX2                !
 ! A65   A(32,31,33)           106.4317         estimate D2E/DX2                !
 ! A66   A(32,31,34)           106.4729         estimate D2E/DX2                !
 ! A67   A(33,31,34)           107.2296         estimate D2E/DX2                !
 ! A68   A(20,38,43)           112.7473         estimate D2E/DX2                !
 ! A69   A(20,38,44)           113.2159         estimate D2E/DX2                !
 ! A70   A(20,38,45)           111.6267         estimate D2E/DX2                !
 ! A71   A(43,38,44)           106.4582         estimate D2E/DX2                !
 ! A72   A(43,38,45)           106.2678         estimate D2E/DX2                !
 ! A73   A(44,38,45)           106.0051         estimate D2E/DX2                !
 ! A74   A(11,39,40)           112.7489         estimate D2E/DX2                !
 ! A75   A(11,39,41)           113.2161         estimate D2E/DX2                !
 ! A76   A(11,39,42)           111.6269         estimate D2E/DX2                !
 ! A77   A(40,39,41)           106.4584         estimate D2E/DX2                !
 ! A78   A(40,39,42)           106.2684         estimate D2E/DX2                !
 ! A79   A(41,39,42)           106.0021         estimate D2E/DX2                !
 ! D1    D(5,1,4,2)             18.7722         estimate D2E/DX2                !
 ! D2    D(5,1,4,6)           -163.9056         estimate D2E/DX2                !
 ! D3    D(4,1,5,3)             18.6902         estimate D2E/DX2                !
 ! D4    D(4,1,5,15)          -163.9995         estimate D2E/DX2                !
 ! D5    D(1,4,6,7)           -173.6223         estimate D2E/DX2                !
 ! D6    D(1,4,6,8)              6.5606         estimate D2E/DX2                !
 ! D7    D(2,4,6,7)              3.6747         estimate D2E/DX2                !
 ! D8    D(2,4,6,8)           -176.1424         estimate D2E/DX2                !
 ! D9    D(1,5,15,16)         -173.5277         estimate D2E/DX2                !
 ! D10   D(1,5,15,17)            6.66           estimate D2E/DX2                !
 ! D11   D(3,5,15,16)            3.7573         estimate D2E/DX2                !
 ! D12   D(3,5,15,17)         -176.0551         estimate D2E/DX2                !
 ! D13   D(4,6,7,9)           -179.8587         estimate D2E/DX2                !
 ! D14   D(4,6,7,10)             0.1488         estimate D2E/DX2                !
 ! D15   D(8,6,7,9)             -0.0366         estimate D2E/DX2                !
 ! D16   D(8,6,7,10)           179.9709         estimate D2E/DX2                !
 ! D17   D(4,6,8,11)           179.513          estimate D2E/DX2                !
 ! D18   D(4,6,8,12)            -0.034          estimate D2E/DX2                !
 ! D19   D(7,6,8,11)            -0.3015         estimate D2E/DX2                !
 ! D20   D(7,6,8,12)          -179.8485         estimate D2E/DX2                !
 ! D21   D(6,7,9,13)             0.3815         estimate D2E/DX2                !
 ! D22   D(6,7,9,14)           179.9762         estimate D2E/DX2                !
 ! D23   D(10,7,9,13)         -179.6262         estimate D2E/DX2                !
 ! D24   D(10,7,9,14)           -0.0315         estimate D2E/DX2                !
 ! D25   D(6,8,11,13)            0.3024         estimate D2E/DX2                !
 ! D26   D(6,8,11,39)          178.6795         estimate D2E/DX2                !
 ! D27   D(12,8,11,13)         179.8501         estimate D2E/DX2                !
 ! D28   D(12,8,11,39)          -1.7727         estimate D2E/DX2                !
 ! D29   D(7,9,13,11)           -0.378          estimate D2E/DX2                !
 ! D30   D(7,9,13,24)          177.8081         estimate D2E/DX2                !
 ! D31   D(14,9,13,11)        -179.9743         estimate D2E/DX2                !
 ! D32   D(14,9,13,24)          -1.7881         estimate D2E/DX2                !
 ! D33   D(8,11,13,9)            0.0351         estimate D2E/DX2                !
 ! D34   D(8,11,13,24)        -178.0724         estimate D2E/DX2                !
 ! D35   D(39,11,13,9)        -178.2988         estimate D2E/DX2                !
 ! D36   D(39,11,13,24)          3.5937         estimate D2E/DX2                !
 ! D37   D(8,11,39,40)           2.8624         estimate D2E/DX2                !
 ! D38   D(8,11,39,41)         123.8027         estimate D2E/DX2                !
 ! D39   D(8,11,39,42)        -116.6766         estimate D2E/DX2                !
 ! D40   D(13,11,39,40)       -178.7643         estimate D2E/DX2                !
 ! D41   D(13,11,39,41)        -57.824          estimate D2E/DX2                !
 ! D42   D(13,11,39,42)         61.6967         estimate D2E/DX2                !
 ! D43   D(9,13,24,25)         166.9296         estimate D2E/DX2                !
 ! D44   D(9,13,24,26)          45.0161         estimate D2E/DX2                !
 ! D45   D(9,13,24,31)         -72.9144         estimate D2E/DX2                !
 ! D46   D(11,13,24,25)        -14.9679         estimate D2E/DX2                !
 ! D47   D(11,13,24,26)       -136.8814         estimate D2E/DX2                !
 ! D48   D(11,13,24,31)        105.1881         estimate D2E/DX2                !
 ! D49   D(5,15,16,18)        -179.8612         estimate D2E/DX2                !
 ! D50   D(5,15,16,19)           0.1488         estimate D2E/DX2                !
 ! D51   D(17,15,16,18)         -0.0436         estimate D2E/DX2                !
 ! D52   D(17,15,16,19)        179.9663         estimate D2E/DX2                !
 ! D53   D(5,15,17,20)         179.5023         estimate D2E/DX2                !
 ! D54   D(5,15,17,21)          -0.038          estimate D2E/DX2                !
 ! D55   D(16,15,17,20)         -0.3075         estimate D2E/DX2                !
 ! D56   D(16,15,17,21)       -179.8477         estimate D2E/DX2                !
 ! D57   D(15,16,18,22)          0.3933         estimate D2E/DX2                !
 ! D58   D(15,16,18,23)        179.9864         estimate D2E/DX2                !
 ! D59   D(19,16,18,22)       -179.6169         estimate D2E/DX2                !
 ! D60   D(19,16,18,23)         -0.0238         estimate D2E/DX2                !
 ! D61   D(15,17,20,22)          0.3168         estimate D2E/DX2                !
 ! D62   D(15,17,20,38)        178.6955         estimate D2E/DX2                !
 ! D63   D(21,17,20,22)        179.8579         estimate D2E/DX2                !
 ! D64   D(21,17,20,38)         -1.7634         estimate D2E/DX2                !
 ! D65   D(16,18,22,20)         -0.3814         estimate D2E/DX2                !
 ! D66   D(16,18,22,27)        177.8127         estimate D2E/DX2                !
 ! D67   D(23,18,22,20)       -179.9762         estimate D2E/DX2                !
 ! D68   D(23,18,22,27)         -1.782          estimate D2E/DX2                !
 ! D69   D(17,20,22,18)          0.0253         estimate D2E/DX2                !
 ! D70   D(17,20,22,27)       -178.0903         estimate D2E/DX2                !
 ! D71   D(38,20,22,18)       -178.3102         estimate D2E/DX2                !
 ! D72   D(38,20,22,27)          3.5741         estimate D2E/DX2                !
 ! D73   D(17,20,38,43)          2.9002         estimate D2E/DX2                !
 ! D74   D(17,20,38,44)        123.8389         estimate D2E/DX2                !
 ! D75   D(17,20,38,45)       -116.6368         estimate D2E/DX2                !
 ! D76   D(22,20,38,43)       -178.7248         estimate D2E/DX2                !
 ! D77   D(22,20,38,44)        -57.7862         estimate D2E/DX2                !
 ! D78   D(22,20,38,45)         61.7381         estimate D2E/DX2                !
 ! D79   D(18,22,27,28)         45.0303         estimate D2E/DX2                !
 ! D80   D(18,22,27,29)        166.9426         estimate D2E/DX2                !
 ! D81   D(18,22,27,30)        -72.898          estimate D2E/DX2                !
 ! D82   D(20,22,27,28)       -136.859          estimate D2E/DX2                !
 ! D83   D(20,22,27,29)        -14.9466         estimate D2E/DX2                !
 ! D84   D(20,22,27,30)        105.2128         estimate D2E/DX2                !
 ! D85   D(13,24,31,32)         69.6458         estimate D2E/DX2                !
 ! D86   D(13,24,31,33)        -50.4475         estimate D2E/DX2                !
 ! D87   D(13,24,31,34)       -171.162          estimate D2E/DX2                !
 ! D88   D(25,24,31,32)       -166.7502         estimate D2E/DX2                !
 ! D89   D(25,24,31,33)         73.1565         estimate D2E/DX2                !
 ! D90   D(25,24,31,34)        -47.558          estimate D2E/DX2                !
 ! D91   D(26,24,31,32)        -50.3559         estimate D2E/DX2                !
 ! D92   D(26,24,31,33)       -170.4492         estimate D2E/DX2                !
 ! D93   D(26,24,31,34)         68.8363         estimate D2E/DX2                !
 ! D94   D(22,27,30,35)       -171.1807         estimate D2E/DX2                !
 ! D95   D(22,27,30,36)         69.6341         estimate D2E/DX2                !
 ! D96   D(22,27,30,37)        -50.4674         estimate D2E/DX2                !
 ! D97   D(28,27,30,35)         68.82           estimate D2E/DX2                !
 ! D98   D(28,27,30,36)        -50.3652         estimate D2E/DX2                !
 ! D99   D(28,27,30,37)       -170.4668         estimate D2E/DX2                !
 ! D100  D(29,27,30,35)        -47.5724         estimate D2E/DX2                !
 ! D101  D(29,27,30,36)       -166.7576         estimate D2E/DX2                !
 ! D102  D(29,27,30,37)         73.1409         estimate D2E/DX2                !
 --------------------------------------------------------------------------------
 Trust Radius=3.00D-01 FncErr=1.00D-07 GrdErr=1.00D-06 EigMax=2.50D+02 EigMin=1.00D-04
 Number of steps in this run=    237 maximum allowed number of steps=    270.
 GradGradGradGradGradGradGradGradGradGradGradGradGradGradGradGradGradGrad

                          Input orientation:                          
 ---------------------------------------------------------------------
 Center     Atomic      Atomic             Coordinates (Angstroms)
 Number     Number       Type             X           Y           Z
 ---------------------------------------------------------------------
      1          8           0        0.000320    1.941908    0.002033
      2          8           0        1.102520    3.747355    0.825445
      3          8           0       -1.101621    3.747439   -0.821530
      4          6           0        1.104919    2.605872    0.480890
      5          6           0       -1.104074    2.605843   -0.477368
      6          6           0        2.273178    1.693826    0.568877
      7          6           0        3.438522    2.173381    1.162732
      8          6           0        2.237761    0.394037    0.078450
      9          6           0        4.548721    1.360252    1.262559
     10          1           0        3.453300    3.184643    1.539176
     11          6           0        3.359651   -0.416002    0.175642
     12          1           0        1.340433    0.015828   -0.384887
     13          6           0        4.533297    0.057466    0.770147
     14          1           0        5.447899    1.738877    1.723494
     15          6           0       -2.272022    1.693556   -0.566738
     16          6           0       -3.436291    2.172621   -1.163111
     17          6           0       -2.237491    0.394173   -0.075182
     18          6           0       -4.546262    1.359386   -1.264436
     19          1           0       -3.450372    3.183596   -1.540329
     20          6           0       -3.359266   -0.415888   -0.173660
     21          1           0       -1.341035    0.016310    0.390117
     22          6           0       -4.531773    0.057028   -0.770844
     23          1           0       -5.444528    1.737594   -1.727466
     24          6           0        5.790553   -0.766000    0.862625
     25          1           0        5.624656   -1.824393    0.666078
     26          1           0        6.241413   -0.662061    1.852351
     27          6           0       -5.788822   -0.766538   -0.865225
     28          1           0       -6.237457   -0.663634   -1.856070
     29          1           0       -5.623397   -1.824728   -0.667202
     30          6           0       -6.819838   -0.270631    0.144572
     31          6           0        6.819257   -0.271159   -0.150042
     32          9           0        7.307318    0.936289    0.176795
     33          9           0        6.318410   -0.155188   -1.383166
     34          9           0        7.868637   -1.096819   -0.224737
     35          9           0       -7.869557   -1.096150    0.217414
     36          9           0       -7.307016    0.936546   -0.184530
     37          9           0       -6.322006   -0.153690    1.378751
     38          6           0       -3.268697   -1.830056    0.346106
     39          6           0        3.267928   -1.830676   -0.342492
     40          9           0        2.084968   -2.100615   -0.900475
     41          9           0        4.198019   -2.116997   -1.266040
     42          9           0        3.434601   -2.733870    0.645621
     43          9           0       -2.087067   -2.099285    0.907358
     44          9           0       -4.201031   -2.115545    1.267570
     45          9           0       -3.432729   -2.734228   -0.641533
 ---------------------------------------------------------------------
                    Distance matrix (angstroms):
                    1          2          3          4          5
     1  O    0.000000
     2  O    2.269910   0.000000
     3  O    2.269906   2.751502   0.000000
     4  C    1.374880   1.192353   2.805048   0.000000
     5  C    1.374890   2.805250   1.192348   2.407885   0.000000
     6  C    2.355577   2.377656   4.188058   1.484722   3.651334
     7  C    3.636212   2.836911   5.198832   2.469344   4.848931
     8  C    2.721743   3.618219   4.817337   2.517440   4.045847
     9  C    4.755544   4.214930   6.478306   3.744642   6.044248
    10  H    3.978727   2.520362   5.161102   2.640044   5.017082
    11  C    4.107917   4.780211   6.183165   3.782686   5.429807
    12  H    2.378107   3.930114   4.480983   2.741052   3.562632
    13  C    4.968803   5.038707   6.921101   4.281567   6.311139
    14  H    5.716709   4.870605   7.308055   4.599697   6.965900
    15  C    2.355572   4.188532   2.377645   3.651518   1.484708
    16  C    3.636081   5.199514   2.836796   4.849025   2.469243
    17  C    2.721992   4.817741   3.618235   4.046299   2.517513
    18  C    4.755490   6.479100   4.214797   6.044481   3.744568
    19  H    3.978434   5.161737   2.520163   5.016948   2.639848
    20  C    4.108149   6.183715   4.780166   5.430324   3.782722
    21  H    2.378606   4.481201   3.930233   3.563252   2.741234
    22  C    4.968901   6.921843   5.038616   6.311557   4.281555
    23  H    5.716580   7.308922   4.870425   6.966062   4.599581
    24  C    6.449820   6.507642   8.408898   5.785361   7.791071
    25  H    6.801407   7.177708   8.860084   6.331632   8.136970
    26  H    7.011103   6.848774   8.972930   6.240501   8.370362
    27  C    6.449960   8.409768   6.507515   7.791589   5.785348
    28  H    7.010796   8.973439   6.848697   8.370278   6.240347
    29  H    6.801589   8.860817   7.177696   8.137481   6.331689
    30  C    7.171485   8.909071   7.055228   8.437367   6.428908
    31  C    7.170682   7.055573   8.907319   6.428766   8.435843
    32  F    7.377942   6.842686   8.922414   6.430375   8.600398
    33  F    6.799621   6.878468   8.402547   6.186974   7.971012
    34  F    8.437754   8.387445  10.212175   7.743107   9.709947
    35  F    8.438670  10.214079   8.387176   9.711623   7.743335
    36  F    7.378531   8.924180   6.842062   8.601749   6.430302
    37  F    6.801374   8.405229   6.878405   7.973741   6.187649
    38  C    5.003256   7.102451   6.096560   6.230903   5.004088
    39  C    5.002834   6.096516   7.101958   5.003952   6.230193
    40  F    4.637054   6.175982   6.660354   5.001969   5.700856
    41  F    5.975231   6.953204   7.916778   5.909698   7.144187
    42  F    5.837070   6.890371   8.045943   5.828156   7.097409
    43  F    4.637676   6.660584   6.176110   5.701681   5.002197
    44  F    5.976274   7.918125   6.953075   7.145891   5.909945
    45  F    5.836630   8.045584   6.890462   7.096954   5.828031
                    6          7          8          9         10
     6  C    0.000000
     7  C    1.393077   0.000000
     8  C    1.389685   2.404903   0.000000
     9  C    2.402199   1.379741   2.770599   0.000000
    10  H    2.134643   1.079156   3.376201   2.145895   0.000000
    11  C    2.405500   2.772268   1.387172   2.397989   3.851316
    12  H    2.143678   3.384101   1.078388   3.848982   4.267038
    13  C    2.797556   2.414488   2.420994   1.392824   3.396621
    14  H    3.378464   2.130925   3.849643   1.079045   2.470351
    15  C    4.684920   5.985952   4.737421   7.069650   6.279931
    16  C    5.985572   7.257590   6.074512   8.384762   7.469472
    17  C    4.738148   6.075783   4.477888   6.983948   6.540487
    18  C    7.069488   8.385137   6.982708   9.439514   8.670917
    19  H    6.279107   7.468864   6.538878   8.669847   7.559367
    20  C    6.060255   7.395957   5.660941   8.231261   7.893585
    21  H    3.988553   5.300383   3.612145   6.103815   5.860402
    22  C    7.126102   8.470141   6.830920   9.396196   8.881417
    23  H    8.052211   9.351564   8.005251  10.437800   9.588339
    24  C    4.302204   3.776516   3.818763   2.494602   4.639833
    25  H    4.860012   4.583454   4.091186   3.413999   5.528791
    26  H    4.790031   4.046172   4.504586   2.702371   4.761175
    27  C    8.550199   9.894424   8.164772  10.766406  10.334883
    28  H    9.157997  10.525512   8.757303  11.408927  10.965752
    29  H    8.732928  10.072335   8.202239  10.832362  10.599450
    30  C    9.312469  10.594517   9.082194  11.539229  10.928001
    31  C    5.004482   4.373616   4.635170   3.132455   5.111329
    32  F    5.105894   4.179718   5.099423   2.994743   4.665257
    33  F    4.857286   4.494172   4.369173   3.525368   5.282368
    34  F    6.302910   5.678485   5.832781   4.389885   6.398242
    35  F   10.525330  11.809154  10.217527  12.701963  12.177000
    36  F    9.639565  10.900067   9.563798  11.951238  11.126972
    37  F    8.828726  10.036425   8.675275  10.976257  10.330866
    38  C    6.571131   7.853737   5.944688   8.492937   8.470884
    39  C    3.773889   4.281037   2.487527   3.794554   5.359894
    40  F    4.073353   4.935178   2.684200   4.767221   5.979814
    41  F    4.646967   4.988298   3.457681   4.313706   6.044107
    42  F    4.578131   4.934423   3.396750   4.287622   5.985615
    43  F    5.789128   6.989495   5.060423   7.491879   7.682106
    44  F    7.544194   8.761772   7.012136   9.414847   9.314211
    45  F    7.323260   8.634472   6.516048   9.170271   9.338411
                   11         12         13         14         15
    11  C    0.000000
    12  H    2.139605   0.000000
    13  C    1.398232   3.395617   0.000000
    14  H    3.376407   4.928026   2.138343   0.000000
    15  C    6.059464   3.987189   7.125758   8.052602   0.000000
    16  C    7.394461   5.298536   8.469103   9.351441   1.393085
    17  C    5.661033   3.611178   6.831656   8.006789   1.389682
    18  C    8.229780   6.101798   9.395367  10.438151   2.402211
    19  H    7.891645   5.858465   8.879749   9.587438   2.134621
    20  C    6.727990   4.724211   7.962876   9.263280   2.405486
    21  H    4.725393   2.791219   5.886756   7.129849   2.143703
    22  C    7.962045   5.885021   9.195116  10.423252   2.797563
    23  H    9.261391   7.127601  10.421991  11.426027   3.378465
    24  C    2.550241   4.687335   1.505769   2.670752   8.549714
    25  H    2.711889   4.779697   2.177909   3.721057   8.732315
    26  H    3.343119   5.429951   2.146286   2.531951   9.158575
    27  C    9.214165   7.188123  10.483300  11.800105   4.302213
    28  H    9.812934   7.749224  11.109733  12.455235   4.789927
    29  H    9.131815   7.208487  10.429145  11.873850   4.860054
    30  C   10.180574   8.182445  11.375090  12.531100   5.004659
    31  C    3.477919   5.491358   2.486031   3.070994   9.310483
    32  F    4.172861   6.063534   2.969779   2.548306   9.637948
    33  F    3.354425   5.079967   2.805104   3.741204   8.824961
    34  F    4.577638   6.624279   3.666968   4.206751  10.523123
    35  F   11.249865   9.296407  12.468646  13.698915   6.303154
    36  F   10.758108   8.698634  11.911222  12.921770   5.105909
    37  F    9.759649   7.864612  10.874400  11.926077   4.857943
    38  C    6.779646   5.018538   8.038263   9.519114   3.773921
    39  C    1.509364   2.669572   2.530653   4.665006   6.569745
    40  F    2.370816   2.302063   3.666416   5.739008   5.787095
    41  F    2.382162   3.673032   2.997792   5.036594   7.541271
    42  F    2.366223   3.606706   3.002365   5.022016   7.323760
    43  F    5.747659   4.229818   6.964167   8.495486   4.073427
    44  F    7.825896   6.162888   9.014316  10.400301   4.647043
    45  F    7.223460   5.514686   8.558269  10.220938   4.578002
                   16         17         18         19         20
    16  C    0.000000
    17  C    2.404910   0.000000
    18  C    1.379730   2.770629   0.000000
    19  H    1.079148   3.376183   2.145888   0.000000
    20  C    2.772242   1.387183   2.397989   3.851281   0.000000
    21  H    3.384124   1.078386   3.849010   4.267039   2.139602
    22  C    2.414475   2.421022   1.392832   3.396611   1.398232
    23  H    2.130906   3.849664   1.079037   2.470345   3.376406
    24  C    9.893117   8.165475  10.765287  10.332869   9.214969
    25  H   10.070890   8.202735  10.831016  10.597373   9.132355
    26  H   10.525511   8.759156  11.409406  10.964946   9.815210
    27  C    3.776479   3.818818   2.494570   4.639793   2.550287
    28  H    4.046118   4.504470   2.702366   4.761168   3.343033
    29  H    4.583466   4.091256   3.414014   5.528807   2.711956
    30  C    4.373546   4.635532   3.132316   5.111152   3.478207
    31  C   10.591253   9.081462  11.535838  10.923987  10.179579
    32  F   10.897201   9.563512  11.948369  11.123254  10.757658
    33  F   10.031018   8.672720  10.970376  10.324789   9.756449
    34  F   11.805557  10.216616  12.698174  12.172620  11.248648
    35  F    5.678430   5.833253   4.389741   6.398053   4.578037
    36  F    4.179475   5.099628   2.994453   4.664882   4.172999
    37  F    4.494456   4.370050   3.525493   5.282498   3.355079
    38  C    4.281033   2.487582   3.794543   5.359883   1.509381
    39  C    7.851520   5.943993   8.490468   8.468370   6.778631
    40  F    6.986689   5.058530   7.488477   7.679341   5.745107
    41  F    8.757517   7.009986   9.409978   9.309640   7.823019
    42  F    8.634485   6.517426   9.170455   9.337967   7.225019
    43  F    4.935224   2.684277   4.767256   5.979849   2.370847
    44  F    4.988126   3.457912   4.313396   6.043896   2.382130
    45  F    4.934493   3.396504   4.287848   5.985715   2.366221
                   21         22         23         24         25
    21  H    0.000000
    22  C    3.395630   0.000000
    23  H    4.928046   2.138352   0.000000
    24  C    7.189911  10.483130  11.798458   0.000000
    25  H    7.210076  10.428689  11.871969   1.089197   0.000000
    26  H    7.751892  11.111245  12.455306   1.092536   1.771623
    27  C    4.687382   1.505769   2.670707  11.707579  11.564231
    28  H    5.429792   2.146259   2.532029  12.331862  12.182706
    29  H    4.779746   2.177933   3.721061  11.564582  11.326798
    30  C    5.491804   2.486078   3.070663  12.640528  12.551955
    31  C    8.183200  11.372730  12.526922   1.525973   2.122653
    32  F    8.699763  11.909458  12.918122   2.380909   3.269880
    33  F    7.863908  10.869520  11.919224   2.386483   2.732570
    34  F    9.297051  12.465944  13.694249   2.368592   2.521579
    35  F    6.624877   3.667053   4.206356  13.679324  13.521296
    36  F    6.063826   2.969729   2.547781  13.249208  13.250452
    37  F    5.080981   2.805369   3.741057  12.139003  12.083952
    38  C    2.669623   2.530617   4.664983   9.136139   8.899110
    39  C    5.019025   8.036308   9.516176   2.991568   2.563478
    40  F    4.229006   6.960854   8.491706   4.315215   3.880693
    41  F    6.162383   9.010043  10.394686   2.982042   2.419502
    42  F    5.516835   8.559124  10.220787   3.077355   2.371478
    43  F    2.302139   3.666420   5.739032   7.989778   7.720393
    44  F    3.673459   2.997432   5.036190  10.090441   9.848385
    45  F    3.606237   3.002620   5.022328   9.550149   9.196406
                   26         27         28         29         30
    26  H    0.000000
    27  C   12.333802   0.000000
    28  H   13.018241   1.092537   0.000000
    29  H   12.184977   1.089194   1.771614   0.000000
    30  C   13.178239   1.525977   2.120421   2.122655   0.000000
    31  C    2.120445  12.638059  13.173547  12.549927  13.642276
    32  F    2.549189  13.247427  13.789606  13.249111  14.178654
    33  F    3.275885  12.133717  12.575054  12.079186  13.227277
    34  F    2.674167  13.676457  14.206716  13.518898  14.716326
    35  F   14.211999   2.368588   2.673978   2.521628   1.337422
    36  F   13.793634   2.380915   2.549231   3.269890   1.342731
    37  F   12.582615   2.386482   3.275861   2.732462   1.335931
    38  C    9.699236   2.991558   3.876036   2.563481   3.883686
    39  C    3.876159   9.134022   9.695631   8.897255  10.219295
    40  F    5.188788   7.986086   8.499461   7.716827   9.150766
    41  F    4.002082  10.085702  10.552704   9.843995  11.260198
    42  F    3.691446   9.551157  10.202601   9.197684  10.558036
    43  F    8.504246   4.315235   5.188773   3.880754   5.130783
    44  F   10.559318   2.981563   4.001526   2.418894   3.394552
    45  F   10.203056   3.077826   3.691742   2.372104   4.261428
                   31         32         33         34         35
    31  C    0.000000
    32  F    1.342742   0.000000
    33  F    1.335998   2.145400   0.000000
    34  F    1.337346   2.147053   2.152168   0.000000
    35  F   14.716551  15.312413  14.308937  15.744403   0.000000
    36  F   14.177846  14.618800  13.721547  15.311323   2.147060
    37  F   13.230411  13.725568  12.938636  14.312058   2.152174
    38  C   10.219743  10.933134   9.884746  11.176033   4.660804
    39  C    3.883435   4.923660   3.632589   4.660357  11.175715
    40  F    5.130648   6.136468   4.683984   5.908896  10.067333
    41  F    3.394622   4.590433   2.891102   3.949495  12.201195
    42  F    4.260741   5.356099   4.368287   4.806051  11.430201
    43  F    9.153291   9.899642   8.926257  10.069886   5.909272
    44  F   11.263131  11.955984  11.023976  12.204165   3.949694
    45  F   10.555164  11.379410  10.113664  11.426972   4.806925
                   36         37         38         39         40
    36  F    0.000000
    37  F    2.145392   0.000000
    38  C    4.923787   3.633077   0.000000
    39  C   10.932150   9.886445   6.572795   0.000000
    40  F    9.896781   8.925390   5.503535   1.335518   0.000000
    41  F   11.952389  11.023629   7.644161   1.341637   2.144502
    42  F   11.381715  10.118606   6.770584   1.349038   2.147775
    43  F    6.136477   4.684256   1.335567   5.505474   4.546882
    44  F    4.590316   2.891327   1.341583   7.645835   6.649393
    45  F    5.356634   4.369055   1.349023   6.767913   5.559991
                   41         42         43         44         45
    41  F    0.000000
    42  F    2.148903   0.000000
    43  F    6.650284   5.564174   0.000000
    44  F    8.772868   7.685833   2.144495   0.000000
    45  F    7.681100   6.986916   2.147794   2.148891   0.000000
 Stoichiometry    C20H10F12O3
 Framework group  C1[X(C20H10F12O3)]
 Deg. of freedom   129
 Full point group                 C1      NOp   1
 Largest Abelian subgroup         C1      NOp   1
 Largest concise Abelian subgroup C1      NOp   1
                         Standard orientation:                         
 ---------------------------------------------------------------------
 Center     Atomic      Atomic             Coordinates (Angstroms)
 Number     Number       Type             X           Y           Z
 ---------------------------------------------------------------------
      1          8           0       -0.000311    1.905142   -0.001995
      2          8           0       -1.108986    3.710597   -0.816651
      3          8           0        1.108089    3.710665    0.812871
      4          6           0       -1.108660    2.569109   -0.472106
      5          6           0        1.107831    2.569075    0.468682
      6          6           0       -2.277572    1.657058   -0.550881
      7          6           0       -3.447571    2.136617   -1.135509
      8          6           0       -2.238278    0.357262   -0.060770
      9          6           0       -4.558519    1.323483   -1.226582
     10          1           0       -3.465325    3.147885   -1.511808
     11          6           0       -3.360896   -0.452782   -0.149116
     12          1           0       -1.337318   -0.020951    0.395461
     13          6           0       -4.539202    0.020689   -0.734328
     14          1           0       -5.461310    1.702112   -1.680397
     15          6           0        2.276452    1.656792    0.548814
     16          6           0        3.445391    2.135854    1.135984
     17          6           0        2.238048    0.357418    0.057524
     18          6           0        4.556131    1.322623    1.228529
     19          1           0        3.462444    3.146823    1.513095
     20          6           0        3.360569   -0.452639    0.147129
     21          1           0        1.337948   -0.020443   -0.400689
     22          6           0        4.537753    0.020272    0.735046
     23          1           0        5.458023    1.700828    1.684459
     24          6           0       -5.797144   -0.802781   -0.816891
     25          1           0       -5.629696   -1.861177   -0.621676
     26          1           0       -6.255804   -0.698829   -1.803024
     27          6           0        5.795512   -0.803289    0.819486
     28          1           0        6.251955   -0.700398    1.806760
     29          1           0        5.628534   -1.861476    0.622758
     30          6           0        6.818520   -0.307360   -0.198411
     31          6           0       -6.817823   -0.307962    0.203875
     32          9           0       -7.308456    0.899489   -0.119080
     33          9           0       -6.307258   -0.192009    1.433008
     34          9           0       -7.866577   -1.133629    0.286839
     35          9           0        7.867636   -1.132872   -0.279552
     36          9           0        7.308275    0.899815    0.126854
     37          9           0        6.310959   -0.190401   -1.428620
     38          6           0        3.265907   -1.866799   -0.371928
     39          6           0       -3.265078   -1.867465    0.368255
     40          9           0       -2.077748   -2.137406    0.916877
     41          9           0       -4.187847   -2.153805    1.299113
     42          9           0       -3.439543   -2.770643   -0.618526
     43          9           0        2.079884   -2.136026   -0.923838
     44          9           0        4.190938   -2.152268   -1.300729
     45          9           0        3.437736   -2.770987    0.614370
 ---------------------------------------------------------------------
 Rotational constants (GHZ):           0.2425717           0.0428652           0.0383307
 Standard basis: def2SVP (5D, 7F)
 There are   575 symmetry adapted cartesian basis functions of A   symmetry.
 There are   540 symmetry adapted basis functions of A   symmetry.
   540 basis functions,   945 primitive gaussians,   575 cartesian basis functions
   131 alpha electrons      131 beta electrons
       nuclear repulsion energy      3893.7065496494 Hartrees.
 NAtoms=   45 NActive=   45 NUniq=   45 SFac= 1.00D+00 NAtFMM=   60 NAOKFM=F Big=F
 Integral buffers will be    131072 words long.
 Raffenetti 2 integral format.
 Two-electron integral symmetry is turned on.
 One-electron integrals computed using PRISM.
   1 Symmetry operations used in ECPInt.
 ECPInt:  NShTT=   28920 NPrTT=  111170 LenC2=   20633 LenP2D=   50556.
 LDataN:  DoStor=T MaxTD1= 4 Len=   56
 NBasis=   540 RedAO= T EigKep=  2.32D-04  NBF=   540
 NBsUse=   540 1.00D-06 EigRej= -1.00D+00 NBFU=   540
 ExpMin= 1.22D-01 ExpMax= 2.89D+03 ExpMxC= 4.35D+02 IAcc=3 IRadAn=         5 AccDes= 0.00D+00
 Harris functional with IExCor= 1009 and IRadAn=       5 diagonalized for initial guess.
 HarFok:  IExCor= 1009 AccDes= 0.00D+00 IRadAn=         5 IDoV= 1 UseB2=F ITyADJ=14
 ICtDFT=  3500011 ScaDFX=  1.000000  1.000000  1.000000  1.000000
 FoFCou: FMM=F IPFlag=           0 FMFlag=      100000 FMFlg1=           0
         NFxFlg=           0 DoJE=T BraDBF=F KetDBF=T FulRan=T
         wScrn=  0.000000 ICntrl=       500 IOpCl=  0 I1Cent=   200000004 NGrid=           0
         NMat0=    1 NMatS0=      1 NMatT0=    0 NMatD0=    1 NMtDS0=    0 NMtDT0=    0
 Petite list used in FoFCou.
 Requested convergence on RMS density matrix=1.00D-08 within 128 cycles.
 Requested convergence on MAX density matrix=1.00D-06.
 Requested convergence on             energy=1.00D-06.
 No special actions if energy rises.
 Integral accuracy reduced to 1.0D-05 until final iterations.
 Initial convergence to 1.0D-05 achieved.  Increase integral accuracy.
 SCF Done:  E(RM062X) =  -2189.62770442     A.U. after   15 cycles
            NFock= 15  Conv=0.61D-08     -V/T= 2.0070

 **********************************************************************

            Population analysis using the SCF Density.

 **********************************************************************

 Orbital symmetries:
       Occupied  (A) (A) (A) (A) (A) (A) (A) (A) (A) (A) (A) (A)
                 (A) (A) (A) (A) (A) (A) (A) (A) (A) (A) (A) (A)
                 (A) (A) (A) (A) (A) (A) (A) (A) (A) (A) (A) (A)
                 (A) (A) (A) (A) (A) (A) (A) (A) (A) (A) (A) (A)
                 (A) (A) (A) (A) (A) (A) (A) (A) (A) (A) (A) (A)
                 (A) (A) (A) (A) (A) (A) (A) (A) (A) (A) (A) (A)
                 (A) (A) (A) (A) (A) (A) (A) (A) (A) (A) (A) (A)
                 (A) (A) (A) (A) (A) (A) (A) (A) (A) (A) (A) (A)
                 (A) (A) (A) (A) (A) (A) (A) (A) (A) (A) (A) (A)
                 (A) (A) (A) (A) (A) (A) (A) (A) (A) (A) (A) (A)
                 (A) (A) (A) (A) (A) (A) (A) (A) (A) (A) (A)
       Virtual   (A) (A) (A) (A) (A) (A) (A) (A) (A) (A) (A) (A)
                 (A) (A) (A) (A) (A) (A) (A) (A) (A) (A) (A) (A)
                 (A) (A) (A) (A) (A) (A) (A) (A) (A) (A) (A) (A)
                 (A) (A) (A) (A) (A) (A) (A) (A) (A) (A) (A) (A)
                 (A) (A) (A) (A) (A) (A) (A) (A) (A) (A) (A) (A)
                 (A) (A) (A) (A) (A) (A) (A) (A) (A) (A) (A) (A)
                 (A) (A) (A) (A) (A) (A) (A) (A) (A) (A) (A) (A)
                 (A) (A) (A) (A) (A) (A) (A) (A) (A) (A) (A) (A)
                 (A) (A) (A) (A) (A) (A) (A) (A) (A) (A) (A) (A)
                 (A) (A) (A) (A) (A) (A) (A) (A) (A) (A) (A) (A)
                 (A) (A) (A) (A) (A) (A) (A) (A) (A) (A) (A) (A)
                 (A) (A) (A) (A) (A) (A) (A) (A) (A) (A) (A) (A)
                 (A) (A) (A) (A) (A) (A) (A) (A) (A) (A) (A) (A)
                 (A) (A) (A) (A) (A) (A) (A) (A) (A) (A) (A) (A)
                 (A) (A) (A) (A) (A) (A) (A) (A) (A) (A) (A) (A)
                 (A) (A) (A) (A) (A) (A) (A) (A) (A) (A) (A) (A)
                 (A) (A) (A) (A) (A) (A) (A) (A) (A) (A) (A) (A)
                 (A) (A) (A) (A) (A) (A) (A) (A) (A) (A) (A) (A)
                 (A) (A) (A) (A) (A) (A) (A) (A) (A) (A) (A) (A)
                 (A) (A) (A) (A) (A) (A) (A) (A) (A) (A) (A) (A)
                 (A) (A) (A) (A) (A) (A) (A) (A) (A) (A) (A) (A)
                 (A) (A) (A) (A) (A) (A) (A) (A) (A) (A) (A) (A)
                 (A) (A) (A) (A) (A) (A) (A) (A) (A) (A) (A) (A)
                 (A) (A) (A) (A) (A) (A) (A) (A) (A) (A) (A) (A)
                 (A) (A) (A) (A) (A) (A) (A) (A) (A) (A) (A) (A)
                 (A) (A) (A) (A) (A) (A) (A) (A) (A) (A) (A) (A)
                 (A) (A) (A) (A) (A) (A) (A) (A) (A) (A) (A) (A)
                 (A) (A) (A) (A) (A) (A) (A) (A) (A) (A) (A) (A)
                 (A) (A) (A) (A) (A) (A) (A) (A) (A) (A) (A) (A)
                 (A) (A) (A) (A) (A) (A) (A) (A) (A) (A) (A) (A)
                 (A) (A) (A) (A) (A) (A) (A) (A) (A) (A) (A) (A)
                 (A) (A) (A) (A) (A) (A) (A) (A) (A) (A) (A) (A)
                 (A) (A) (A) (A) (A) (A) (A) (A) (A) (A) (A) (A)
                 (A) (A) (A) (A) (A) (A) (A) (A) (A) (A) (A) (A)
                 (A)
 The electronic state is 1-A.
 Alpha  occ. eigenvalues --  -25.29997 -25.29996 -25.29523 -25.29521 -25.29394
 Alpha  occ. eigenvalues --  -25.29394 -25.29025 -25.29024 -25.28817 -25.28815
 Alpha  occ. eigenvalues --  -25.28800 -25.28798 -19.72247 -19.65960 -19.65960
 Alpha  occ. eigenvalues --  -10.82618 -10.82618 -10.81666 -10.81665 -10.72629
 Alpha  occ. eigenvalues --  -10.72628 -10.62174 -10.62174 -10.61383 -10.61383
 Alpha  occ. eigenvalues --  -10.60830 -10.60830 -10.60793 -10.60792 -10.60617
 Alpha  occ. eigenvalues --  -10.60616 -10.60132 -10.60131 -10.59719 -10.59718
 Alpha  occ. eigenvalues --   -1.46113  -1.46113  -1.45423  -1.45423  -1.36354
 Alpha  occ. eigenvalues --   -1.36353  -1.35763  -1.35761  -1.35436  -1.35433
 Alpha  occ. eigenvalues --   -1.35384  -1.35381  -1.27832  -1.19829  -1.16062
 Alpha  occ. eigenvalues --   -1.01842  -1.01726  -0.94589  -0.93987  -0.91096
 Alpha  occ. eigenvalues --   -0.91090  -0.88711  -0.86907  -0.82133  -0.81817
 Alpha  occ. eigenvalues --   -0.81788  -0.78759  -0.77600  -0.74955  -0.74900
 Alpha  occ. eigenvalues --   -0.74381  -0.73243  -0.70789  -0.70363  -0.70283
 Alpha  occ. eigenvalues --   -0.70207  -0.69911  -0.69906  -0.69773  -0.69729
 Alpha  occ. eigenvalues --   -0.69422  -0.67418  -0.65990  -0.65426  -0.62684
 Alpha  occ. eigenvalues --   -0.62102  -0.61990  -0.60372  -0.59240  -0.59187
 Alpha  occ. eigenvalues --   -0.58879  -0.58730  -0.58654  -0.58275  -0.58176
 Alpha  occ. eigenvalues --   -0.57936  -0.57469  -0.57400  -0.57059  -0.57025
 Alpha  occ. eigenvalues --   -0.55748  -0.55403  -0.54631  -0.54511  -0.54297
 Alpha  occ. eigenvalues --   -0.53857  -0.53634  -0.53309  -0.53073  -0.53034
 Alpha  occ. eigenvalues --   -0.52374  -0.52253  -0.52143  -0.52111  -0.51393
 Alpha  occ. eigenvalues --   -0.51392  -0.50859  -0.50761  -0.50324  -0.50226
 Alpha  occ. eigenvalues --   -0.49575  -0.49084  -0.48901  -0.47119  -0.46530
 Alpha  occ. eigenvalues --   -0.45861  -0.45842  -0.44493  -0.44438  -0.42479
 Alpha  occ. eigenvalues --   -0.40739  -0.37241  -0.35804  -0.35785  -0.35017
 Alpha  occ. eigenvalues --   -0.35004
 Alpha virt. eigenvalues --   -0.06598  -0.04857  -0.02315  -0.02301   0.03908
 Alpha virt. eigenvalues --    0.06959   0.09180   0.09864   0.10052   0.11976
 Alpha virt. eigenvalues --    0.12410   0.13751   0.14103   0.16224   0.16369
 Alpha virt. eigenvalues --    0.16489   0.16922   0.17206   0.17263   0.18075
 Alpha virt. eigenvalues --    0.18662   0.19525   0.19551   0.21439   0.21890
 Alpha virt. eigenvalues --    0.23135   0.23233   0.23891   0.24053   0.24498
 Alpha virt. eigenvalues --    0.25543   0.26553   0.26903   0.27285   0.28051
 Alpha virt. eigenvalues --    0.28244   0.28287   0.28856   0.29291   0.30513
 Alpha virt. eigenvalues --    0.30831   0.31922   0.31924   0.33044   0.33390
 Alpha virt. eigenvalues --    0.33969   0.34503   0.34658   0.35574   0.37071
 Alpha virt. eigenvalues --    0.38463   0.39254   0.39433   0.40516   0.40909
 Alpha virt. eigenvalues --    0.41415   0.42245   0.43184   0.43844   0.44567
 Alpha virt. eigenvalues --    0.45171   0.45527   0.46145   0.46384   0.46864
 Alpha virt. eigenvalues --    0.47437   0.47961   0.48952   0.49874   0.50259
 Alpha virt. eigenvalues --    0.50794   0.51617   0.51703   0.52237   0.52836
 Alpha virt. eigenvalues --    0.52905   0.54206   0.55289   0.55516   0.55768
 Alpha virt. eigenvalues --    0.56960   0.58502   0.59331   0.59981   0.60060
 Alpha virt. eigenvalues --    0.60925   0.61622   0.63194   0.63234   0.64995
 Alpha virt. eigenvalues --    0.65331   0.66118   0.67143   0.67749   0.68153
 Alpha virt. eigenvalues --    0.69144   0.69246   0.69662   0.70519   0.70843
 Alpha virt. eigenvalues --    0.71289   0.71531   0.71810   0.72069   0.73329
 Alpha virt. eigenvalues --    0.73433   0.74124   0.74357   0.75228   0.75519
 Alpha virt. eigenvalues --    0.76087   0.76222   0.76523   0.77635   0.78260
 Alpha virt. eigenvalues --    0.79733   0.80264   0.80920   0.81424   0.82668
 Alpha virt. eigenvalues --    0.83251   0.85354   0.86601   0.86750   0.87347
 Alpha virt. eigenvalues --    0.90289   0.90547   0.91140   0.91322   0.94272
 Alpha virt. eigenvalues --    0.98182   0.99382   1.00573   1.03133   1.06596
 Alpha virt. eigenvalues --    1.07259   1.09365   1.10553   1.11497   1.12051
 Alpha virt. eigenvalues --    1.12127   1.14122   1.14302   1.14811   1.16163
 Alpha virt. eigenvalues --    1.16987   1.17193   1.17682   1.18814   1.18997
 Alpha virt. eigenvalues --    1.20269   1.20361   1.21034   1.21182   1.22424
 Alpha virt. eigenvalues --    1.22982   1.23305   1.23673   1.24243   1.25114
 Alpha virt. eigenvalues --    1.25219   1.26769   1.26928   1.28280   1.28712
 Alpha virt. eigenvalues --    1.30106   1.30498   1.31366   1.32410   1.33297
 Alpha virt. eigenvalues --    1.34556   1.34875   1.35559   1.35623   1.37021
 Alpha virt. eigenvalues --    1.37110   1.38469   1.38990   1.40010   1.40102
 Alpha virt. eigenvalues --    1.40887   1.41033   1.42710   1.42713   1.43674
 Alpha virt. eigenvalues --    1.43826   1.46880   1.48111   1.48717   1.49117
 Alpha virt. eigenvalues --    1.49452   1.49690   1.52847   1.52954   1.53243
 Alpha virt. eigenvalues --    1.53406   1.54828   1.54858   1.55196   1.55376
 Alpha virt. eigenvalues --    1.55956   1.56643   1.58211   1.58243   1.58542
 Alpha virt. eigenvalues --    1.58654   1.61305   1.61635   1.61953   1.65206
 Alpha virt. eigenvalues --    1.66426   1.67035   1.67367   1.67456   1.67930
 Alpha virt. eigenvalues --    1.68962   1.69530   1.69959   1.70937   1.72246
 Alpha virt. eigenvalues --    1.73562   1.74058   1.74357   1.75756   1.75934
 Alpha virt. eigenvalues --    1.76554   1.77396   1.77663   1.77721   1.77880
 Alpha virt. eigenvalues --    1.78627   1.78899   1.80092   1.80737   1.82087
 Alpha virt. eigenvalues --    1.82813   1.82871   1.83817   1.86826   1.87275
 Alpha virt. eigenvalues --    1.87757   1.88049   1.90017   1.90624   1.90670
 Alpha virt. eigenvalues --    1.91703   1.93247   1.93255   1.95356   1.95531
 Alpha virt. eigenvalues --    1.95640   1.95911   1.96145   1.96218   1.96695
 Alpha virt. eigenvalues --    1.96915   1.97485   1.97685   2.00524   2.00701
 Alpha virt. eigenvalues --    2.02265   2.02645   2.04693   2.05312   2.05999
 Alpha virt. eigenvalues --    2.06051   2.07330   2.08966   2.09254   2.09626
 Alpha virt. eigenvalues --    2.10183   2.10317   2.10642   2.10899   2.13076
 Alpha virt. eigenvalues --    2.14143   2.14233   2.15587   2.16468   2.17000
 Alpha virt. eigenvalues --    2.22267   2.22400   2.24090   2.24454   2.25651
 Alpha virt. eigenvalues --    2.25988   2.27254   2.28320   2.29415   2.29833
 Alpha virt. eigenvalues --    2.31197   2.33411   2.33550   2.35016   2.35043
 Alpha virt. eigenvalues --    2.35105   2.36693   2.37993   2.40861   2.45245
 Alpha virt. eigenvalues --    2.45595   2.46543   2.50370   2.51249   2.54953
 Alpha virt. eigenvalues --    2.55625   2.57033   2.57261   2.60463   2.60903
 Alpha virt. eigenvalues --    2.62421   2.62864   2.63577   2.64052   2.66808
 Alpha virt. eigenvalues --    2.68903   2.71120   2.71125   2.74174   2.76380
 Alpha virt. eigenvalues --    2.76751   2.81872   2.82473   2.83587   2.83877
 Alpha virt. eigenvalues --    2.85254   2.85353   2.86515   2.89408   2.91239
 Alpha virt. eigenvalues --    2.93858   2.94198   2.95794   2.97017   3.03502
 Alpha virt. eigenvalues --    3.07152   3.07161   3.07929   3.07961   3.08602
 Alpha virt. eigenvalues --    3.09526   3.10368   3.10380   3.11176   3.11182
 Alpha virt. eigenvalues --    3.11619   3.11635   3.11760   3.11764   3.12084
 Alpha virt. eigenvalues --    3.12092   3.12220   3.12329   3.13081   3.13201
 Alpha virt. eigenvalues --    3.13323   3.13507   3.14189   3.14196   3.14314
 Alpha virt. eigenvalues --    3.14483   3.15497   3.15542   3.17300   3.17496
 Alpha virt. eigenvalues --    3.18892   3.20710   3.20866   3.23304   3.23311
 Alpha virt. eigenvalues --    3.24514   3.25291   3.25365   3.26244   3.26448
 Alpha virt. eigenvalues --    3.28271   3.29414   3.30632   3.31188   3.46512
 Alpha virt. eigenvalues --    3.47901   3.50910   3.50912   3.52724   3.53486
 Alpha virt. eigenvalues --    3.59108   3.59112   3.61747   3.62253   3.62421
 Alpha virt. eigenvalues --    3.62548   3.63167   3.63727   3.65022   3.65686
 Alpha virt. eigenvalues --    3.71673   3.71686   3.72945   3.72949   3.73954
 Alpha virt. eigenvalues --    3.77929   3.88616   3.88620   3.91542   3.91544
 Alpha virt. eigenvalues --    3.92463   3.92479   3.95209   3.95280
          Condensed to atoms (all electrons):
               1          2          3          4          5          6
     1  O    8.109038  -0.072233  -0.072241   0.323343   0.323306  -0.149560
     2  O   -0.072233   7.576406  -0.003543   0.773939  -0.001433  -0.135768
     3  O   -0.072241  -0.003543   7.576461  -0.001424   0.773918  -0.001243
     4  C    0.323343   0.773939  -0.001424   4.542454  -0.014903   0.181286
     5  C    0.323306  -0.001433   0.773918  -0.014903   4.542513   0.003028
     6  C   -0.149560  -0.135768  -0.001243   0.181286   0.003028   5.834437
     7  C    0.004350   0.014684   0.000020  -0.059932   0.000081   0.225749
     8  C    0.011684   0.003036   0.000029  -0.085083   0.000201   0.220050
     9  C   -0.000012   0.001452   0.000000   0.018220   0.000001   0.097752
    10  H    0.000509   0.011629   0.000001  -0.014554  -0.000005  -0.076453
    11  C    0.000750  -0.000075   0.000000   0.013028   0.000021   0.097877
    12  H    0.008986   0.000122  -0.000034  -0.019416  -0.000254  -0.059353
    13  C    0.000006  -0.000023  -0.000000  -0.000988   0.000002  -0.175038
    14  H    0.000001  -0.000012   0.000000  -0.000362  -0.000000   0.016065
    15  C   -0.149519  -0.001240  -0.135761   0.003022   0.181239  -0.001045
    16  C    0.004346   0.000020   0.014680   0.000081  -0.059912   0.000049
    17  C    0.011676   0.000029   0.003033   0.000202  -0.085051  -0.000606
    18  C   -0.000012   0.000000   0.001452   0.000001   0.018221   0.000000
    19  H    0.000509   0.000001   0.011631  -0.000004  -0.014558   0.000002
    20  C    0.000751   0.000000  -0.000075   0.000021   0.013022  -0.000021
    21  H    0.008972  -0.000034   0.000122  -0.000251  -0.019396   0.000024
    22  C    0.000006  -0.000000  -0.000023   0.000002  -0.000985  -0.000000
    23  H    0.000001   0.000000  -0.000012  -0.000000  -0.000363  -0.000000
    24  C    0.000000   0.000000   0.000000   0.000039   0.000000  -0.000780
    25  H    0.000000   0.000000  -0.000000  -0.000001  -0.000000   0.000075
    26  H   -0.000000   0.000000  -0.000000   0.000001  -0.000000  -0.000004
    27  C    0.000000   0.000000   0.000000   0.000000   0.000039   0.000000
    28  H   -0.000000  -0.000000   0.000000  -0.000000   0.000001   0.000000
    29  H    0.000000  -0.000000   0.000000  -0.000000  -0.000001  -0.000000
    30  C   -0.000000   0.000000  -0.000000   0.000000   0.000001  -0.000000
    31  C   -0.000000  -0.000000   0.000000   0.000001   0.000000   0.000266
    32  F    0.000000   0.000000  -0.000000   0.000000   0.000000   0.000018
    33  F   -0.000000  -0.000000   0.000000   0.000000  -0.000000   0.000031
    34  F    0.000000   0.000000   0.000000   0.000000  -0.000000   0.000000
    35  F    0.000000   0.000000   0.000000  -0.000000   0.000000   0.000000
    36  F    0.000000  -0.000000   0.000000   0.000000   0.000000   0.000000
    37  F   -0.000000   0.000000  -0.000000  -0.000000   0.000000   0.000000
    38  C   -0.000039   0.000000   0.000000  -0.000002  -0.000180   0.000001
    39  C   -0.000039   0.000000   0.000000  -0.000180  -0.000002   0.013437
    40  F    0.000000  -0.000000  -0.000000  -0.000020  -0.000000   0.001742
    41  F   -0.000000  -0.000000   0.000000  -0.000000  -0.000000  -0.000065
    42  F   -0.000000  -0.000000  -0.000000  -0.000000  -0.000000  -0.000077
    43  F    0.000000  -0.000000  -0.000000  -0.000000  -0.000020   0.000001
    44  F   -0.000000   0.000000  -0.000000  -0.000000  -0.000000  -0.000000
    45  F   -0.000000  -0.000000  -0.000000  -0.000000  -0.000000   0.000000
               7          8          9         10         11         12
     1  O    0.004350   0.011684  -0.000012   0.000509   0.000750   0.008986
     2  O    0.014684   0.003036   0.001452   0.011629  -0.000075   0.000122
     3  O    0.000020   0.000029   0.000000   0.000001   0.000000  -0.000034
     4  C   -0.059932  -0.085083   0.018220  -0.014554   0.013028  -0.019416
     5  C    0.000081   0.000201   0.000001  -0.000005   0.000021  -0.000254
     6  C    0.225749   0.220050   0.097752  -0.076453   0.097877  -0.059353
     7  C    5.065257   0.056451   0.271093   0.465820  -0.155762   0.013678
     8  C    0.056451   5.104904  -0.116971   0.013975   0.330849   0.459058
     9  C    0.271093  -0.116971   5.152186  -0.066740   0.060789  -0.002189
    10  H    0.465820   0.013975  -0.066740   0.617950  -0.001695  -0.000173
    11  C   -0.155762   0.330849   0.060789  -0.001695   5.755736  -0.069604
    12  H    0.013678   0.459058  -0.002189  -0.000173  -0.069604   0.622141
    13  C    0.128014   0.048650   0.211379   0.015645   0.134841   0.016762
    14  H   -0.065575  -0.001710   0.467036  -0.011207   0.017626   0.000011
    15  C    0.000049  -0.000608   0.000000   0.000002  -0.000022   0.000026
    16  C   -0.000000  -0.000007   0.000000  -0.000000  -0.000000  -0.000015
    17  C   -0.000007  -0.000386   0.000000   0.000000   0.000009   0.001089
    18  C    0.000000   0.000000  -0.000000   0.000000  -0.000000  -0.000000
    19  H   -0.000000   0.000000   0.000000  -0.000000  -0.000000  -0.000001
    20  C   -0.000000   0.000009  -0.000000  -0.000000   0.000002   0.000034
    21  H   -0.000014   0.001082  -0.000000  -0.000001   0.000034   0.000312
    22  C    0.000000   0.000000   0.000000   0.000000   0.000000  -0.000004
    23  H   -0.000000   0.000000   0.000000  -0.000000   0.000000   0.000000
    24  C    0.010337   0.011703  -0.098970  -0.000260  -0.083681  -0.000094
    25  H   -0.000214  -0.000357   0.011490   0.000002  -0.035011  -0.000025
    26  H    0.000751  -0.000267  -0.013138  -0.000001   0.007902   0.000004
    27  C   -0.000000   0.000000   0.000000  -0.000000   0.000000  -0.000000
    28  H    0.000000  -0.000000  -0.000000   0.000000  -0.000000   0.000000
    29  H    0.000000  -0.000000  -0.000000   0.000000   0.000000   0.000000
    30  C   -0.000000   0.000000   0.000000  -0.000000   0.000000  -0.000000
    31  C   -0.000359  -0.000945  -0.003254  -0.000002   0.000731  -0.000015
    32  F    0.000075  -0.000008   0.015547  -0.000014  -0.000066  -0.000000
    33  F   -0.000042  -0.000351  -0.002334   0.000000   0.003288   0.000000
    34  F   -0.000000  -0.000001   0.000220  -0.000000   0.000025  -0.000000
    35  F    0.000000  -0.000000   0.000000   0.000000  -0.000000   0.000000
    36  F   -0.000000   0.000000   0.000000   0.000000  -0.000000  -0.000000
    37  F   -0.000000  -0.000000   0.000000  -0.000000   0.000000  -0.000000
    38  C    0.000000  -0.000004  -0.000000   0.000000  -0.000000   0.000012
    39  C   -0.001872  -0.062565   0.012075   0.000032   0.242022  -0.017053
    40  F   -0.000021  -0.001509  -0.000021  -0.000000  -0.077604   0.012361
    41  F   -0.000017   0.001359  -0.000027  -0.000000  -0.055774   0.000204
    42  F   -0.000013  -0.000025   0.000093  -0.000000  -0.064870   0.000236
    43  F    0.000000  -0.000000  -0.000000  -0.000000  -0.000001  -0.000031
    44  F    0.000000  -0.000000  -0.000000  -0.000000  -0.000000   0.000000
    45  F    0.000000   0.000000   0.000000  -0.000000  -0.000000  -0.000000
              13         14         15         16         17         18
     1  O    0.000006   0.000001  -0.149519   0.004346   0.011676  -0.000012
     2  O   -0.000023  -0.000012  -0.001240   0.000020   0.000029   0.000000
     3  O   -0.000000   0.000000  -0.135761   0.014680   0.003033   0.001452
     4  C   -0.000988  -0.000362   0.003022   0.000081   0.000202   0.000001
     5  C    0.000002  -0.000000   0.181239  -0.059912  -0.085051   0.018221
     6  C   -0.175038   0.016065  -0.001045   0.000049  -0.000606   0.000000
     7  C    0.128014  -0.065575   0.000049  -0.000000  -0.000007   0.000000
     8  C    0.048650  -0.001710  -0.000608  -0.000007  -0.000386   0.000000
     9  C    0.211379   0.467036   0.000000   0.000000   0.000000  -0.000000
    10  H    0.015645  -0.011207   0.000002  -0.000000   0.000000   0.000000
    11  C    0.134841   0.017626  -0.000022  -0.000000   0.000009  -0.000000
    12  H    0.016762   0.000011   0.000026  -0.000015   0.001089  -0.000000
    13  C    5.613918  -0.085714  -0.000000  -0.000000   0.000000   0.000000
    14  H   -0.085714   0.637850  -0.000000  -0.000000   0.000000   0.000000
    15  C   -0.000000  -0.000000   5.834526   0.225740   0.219969   0.097743
    16  C   -0.000000  -0.000000   0.225740   5.065160   0.056488   0.271124
    17  C    0.000000   0.000000   0.219969   0.056488   5.104853  -0.116964
    18  C    0.000000   0.000000   0.097743   0.271124  -0.116964   5.152175
    19  H    0.000000  -0.000000  -0.076452   0.465821   0.013977  -0.066743
    20  C    0.000000   0.000000   0.097889  -0.155744   0.330912   0.060769
    21  H   -0.000004   0.000000  -0.059382   0.013678   0.459061  -0.002188
    22  C   -0.000000   0.000000  -0.175037   0.128000   0.048607   0.211397
    23  H    0.000000  -0.000000   0.016066  -0.065570  -0.001710   0.467037
    24  C    0.253921  -0.012774   0.000000  -0.000000   0.000000   0.000000
    25  H    0.012016   0.000203  -0.000000   0.000000  -0.000000  -0.000000
    26  H   -0.002106   0.003353   0.000000   0.000000  -0.000000  -0.000000
    27  C   -0.000000  -0.000000  -0.000780   0.010336   0.011700  -0.098977
    28  H    0.000000  -0.000000  -0.000004   0.000752  -0.000266  -0.013137
    29  H    0.000000   0.000000   0.000075  -0.000214  -0.000357   0.011491
    30  C   -0.000000   0.000000   0.000266  -0.000358  -0.000945  -0.003261
    31  C   -0.030507  -0.000585  -0.000000  -0.000000   0.000000   0.000000
    32  F   -0.016059   0.006356   0.000000  -0.000000   0.000000   0.000000
    33  F    0.013679   0.000287   0.000000  -0.000000  -0.000000   0.000000
    34  F    0.005419   0.000032   0.000000   0.000000  -0.000000   0.000000
    35  F    0.000000   0.000000   0.000000  -0.000000  -0.000001   0.000221
    36  F    0.000000   0.000000   0.000018   0.000075  -0.000008   0.015546
    37  F   -0.000000   0.000000   0.000031  -0.000042  -0.000350  -0.002333
    38  C    0.000000  -0.000000   0.013437  -0.001871  -0.062542   0.012074
    39  C   -0.031562  -0.000131   0.000001   0.000000  -0.000004  -0.000000
    40  F    0.004246   0.000000   0.000001   0.000000  -0.000000  -0.000000
    41  F   -0.015496   0.000001  -0.000000   0.000000  -0.000000  -0.000000
    42  F   -0.007508   0.000003   0.000000   0.000000   0.000000   0.000000
    43  F   -0.000000   0.000000   0.001742  -0.000021  -0.001509  -0.000021
    44  F    0.000000  -0.000000  -0.000065  -0.000017   0.001363  -0.000027
    45  F   -0.000000   0.000000  -0.000077  -0.000013  -0.000030   0.000093
              19         20         21         22         23         24
     1  O    0.000509   0.000751   0.008972   0.000006   0.000001   0.000000
     2  O    0.000001   0.000000  -0.000034  -0.000000   0.000000   0.000000
     3  O    0.011631  -0.000075   0.000122  -0.000023  -0.000012   0.000000
     4  C   -0.000004   0.000021  -0.000251   0.000002  -0.000000   0.000039
     5  C   -0.014558   0.013022  -0.019396  -0.000985  -0.000363   0.000000
     6  C    0.000002  -0.000021   0.000024  -0.000000  -0.000000  -0.000780
     7  C   -0.000000  -0.000000  -0.000014   0.000000  -0.000000   0.010337
     8  C    0.000000   0.000009   0.001082   0.000000   0.000000   0.011703
     9  C    0.000000  -0.000000  -0.000000   0.000000   0.000000  -0.098970
    10  H   -0.000000  -0.000000  -0.000001   0.000000  -0.000000  -0.000260
    11  C   -0.000000   0.000002   0.000034   0.000000   0.000000  -0.083681
    12  H   -0.000001   0.000034   0.000312  -0.000004   0.000000  -0.000094
    13  C    0.000000   0.000000  -0.000004  -0.000000   0.000000   0.253921
    14  H   -0.000000   0.000000   0.000000   0.000000  -0.000000  -0.012774
    15  C   -0.076452   0.097889  -0.059382  -0.175037   0.016066   0.000000
    16  C    0.465821  -0.155744   0.013678   0.128000  -0.065570  -0.000000
    17  C    0.013977   0.330912   0.459061   0.048607  -0.001710   0.000000
    18  C   -0.066743   0.060769  -0.002188   0.211397   0.467037   0.000000
    19  H    0.617955  -0.001695  -0.000173   0.015645  -0.011207  -0.000000
    20  C   -0.001695   5.755588  -0.069582   0.134920   0.017624   0.000000
    21  H   -0.000173  -0.069582   0.622114   0.016760   0.000011  -0.000000
    22  C    0.015645   0.134920   0.016760   5.613904  -0.085716  -0.000000
    23  H   -0.011207   0.017624   0.000011  -0.085716   0.637836  -0.000000
    24  C   -0.000000   0.000000  -0.000000  -0.000000  -0.000000   5.150685
    25  H    0.000000   0.000000   0.000000   0.000000   0.000000   0.327234
    26  H    0.000000  -0.000000   0.000000   0.000000  -0.000000   0.336639
    27  C   -0.000260  -0.083633  -0.000094   0.253836  -0.012772  -0.000000
    28  H   -0.000001   0.007894   0.000004  -0.002106   0.003351   0.000000
    29  H    0.000002  -0.035007  -0.000025   0.012008   0.000203   0.000000
    30  C   -0.000002   0.000728  -0.000015  -0.030481  -0.000587   0.000000
    31  C   -0.000000   0.000000  -0.000000  -0.000000   0.000000   0.342923
    32  F    0.000000  -0.000000  -0.000000   0.000000   0.000000  -0.066909
    33  F   -0.000000   0.000000  -0.000000  -0.000000   0.000000  -0.079957
    34  F    0.000000  -0.000000   0.000000   0.000000   0.000000  -0.070366
    35  F   -0.000000   0.000024  -0.000000   0.005420   0.000032   0.000000
    36  F   -0.000014  -0.000065  -0.000000  -0.016059   0.006363   0.000000
    37  F    0.000000   0.003268   0.000000   0.013694   0.000287   0.000000
    38  C    0.000032   0.242014  -0.017046  -0.031535  -0.000131   0.000000
    39  C    0.000000  -0.000000   0.000012   0.000000  -0.000000  -0.008960
    40  F   -0.000000  -0.000001  -0.000031  -0.000000   0.000000  -0.000099
    41  F   -0.000000  -0.000000   0.000000   0.000000  -0.000000   0.004900
    42  F   -0.000000  -0.000000  -0.000000  -0.000000   0.000000  -0.006246
    43  F   -0.000000  -0.077596   0.012360   0.004246   0.000000   0.000000
    44  F   -0.000000  -0.055786   0.000204  -0.015492   0.000001   0.000000
    45  F   -0.000000  -0.064865   0.000236  -0.007511   0.000003  -0.000000
              25         26         27         28         29         30
     1  O    0.000000  -0.000000   0.000000  -0.000000   0.000000  -0.000000
     2  O    0.000000   0.000000   0.000000  -0.000000  -0.000000   0.000000
     3  O   -0.000000  -0.000000   0.000000   0.000000   0.000000  -0.000000
     4  C   -0.000001   0.000001   0.000000  -0.000000  -0.000000   0.000000
     5  C   -0.000000  -0.000000   0.000039   0.000001  -0.000001   0.000001
     6  C    0.000075  -0.000004   0.000000   0.000000  -0.000000  -0.000000
     7  C   -0.000214   0.000751  -0.000000   0.000000   0.000000  -0.000000
     8  C   -0.000357  -0.000267   0.000000  -0.000000  -0.000000   0.000000
     9  C    0.011490  -0.013138   0.000000  -0.000000  -0.000000   0.000000
    10  H    0.000002  -0.000001  -0.000000   0.000000   0.000000  -0.000000
    11  C   -0.035011   0.007902   0.000000  -0.000000   0.000000   0.000000
    12  H   -0.000025   0.000004  -0.000000   0.000000   0.000000  -0.000000
    13  C    0.012016  -0.002106  -0.000000   0.000000   0.000000  -0.000000
    14  H    0.000203   0.003353  -0.000000  -0.000000   0.000000   0.000000
    15  C   -0.000000   0.000000  -0.000780  -0.000004   0.000075   0.000266
    16  C    0.000000   0.000000   0.010336   0.000752  -0.000214  -0.000358
    17  C   -0.000000  -0.000000   0.011700  -0.000266  -0.000357  -0.000945
    18  C   -0.000000  -0.000000  -0.098977  -0.013137   0.011491  -0.003261
    19  H    0.000000   0.000000  -0.000260  -0.000001   0.000002  -0.000002
    20  C    0.000000  -0.000000  -0.083633   0.007894  -0.035007   0.000728
    21  H    0.000000   0.000000  -0.000094   0.000004  -0.000025  -0.000015
    22  C    0.000000   0.000000   0.253836  -0.002106   0.012008  -0.030481
    23  H    0.000000  -0.000000  -0.012772   0.003351   0.000203  -0.000587
    24  C    0.327234   0.336639  -0.000000   0.000000   0.000000   0.000000
    25  H    0.564229  -0.014626   0.000000  -0.000000   0.000000  -0.000000
    26  H   -0.014626   0.587654   0.000000  -0.000000  -0.000000   0.000000
    27  C    0.000000   0.000000   5.150668   0.336645   0.327242   0.342943
    28  H   -0.000000  -0.000000   0.336645   0.587645  -0.014625   0.003576
    29  H    0.000000  -0.000000   0.327242  -0.014625   0.564237   0.004948
    30  C   -0.000000   0.000000   0.342943   0.003576   0.004948   4.050141
    31  C    0.004945   0.003577   0.000000   0.000000  -0.000000  -0.000000
    32  F    0.003243  -0.000672   0.000000   0.000000   0.000000   0.000000
    33  F    0.000357   0.003387   0.000000   0.000000  -0.000000   0.000000
    34  F    0.004206   0.002414   0.000000   0.000000   0.000000   0.000000
    35  F    0.000000   0.000000  -0.070359   0.002415   0.004205   0.365166
    36  F    0.000000   0.000000  -0.066910  -0.000671   0.003243   0.352412
    37  F   -0.000000   0.000000  -0.079955   0.003386   0.000357   0.361402
    38  C   -0.000000   0.000000  -0.008966  -0.000549   0.021404   0.000848
    39  C    0.021403  -0.000548   0.000000   0.000000  -0.000000  -0.000000
    40  F    0.000328   0.000001   0.000000   0.000000  -0.000000   0.000000
    41  F    0.001695   0.000226   0.000000   0.000000   0.000000   0.000000
    42  F    0.009861  -0.000033  -0.000000   0.000000  -0.000000   0.000000
    43  F   -0.000000   0.000000  -0.000099   0.000001   0.000327   0.000007
[...]
 3721,-0.00003179,-0.00003752,0.00003495,0.00000693,0.00000261,-0.00000
 144,-0.00000088,-0.00000331,-0.00256015,0.00117040,0.00072205,-0.00121
 460,-0.00291466,-0.00040697,0.00002352,-0.00055523,-0.00007244,-0.0000
 1401,0.00001343,0.00001217,-0.00000344,-0.00000074,-0.00000079,0.00000
 829,-0.00000156,0.00000105,0.00013419,-0.00002818,-0.00005376,0.001251
 44,0.00056235,-0.00122705,-0.00065475,-0.00118511,0.00025692,-0.000078
 65,-0.00028475,0.00026551,-0.00001117,-0.00017812,0.00000438,-0.000067
 21,-0.00001241,0.00001641,-0.00003708,0.00002261,0.00001060,-0.0000293
 4,0.00000752,0.00001760,0.00031696,-0.00005494,-0.00004632,-0.08330995
 ,0.02720148,-0.02200237,-0.02577697,0.03182547,-0.05014385,0.00543619,
 -0.02518297,0.03468209,0.09784322,0.00255401,-0.00025661,0.00087039,0.
 00114579,-0.00095599,0.00002368,0.00054421,-0.00029657,0.00030982,-0.0
 0304155,0.00048213,-0.00101205,-0.00203127,0.00061060,-0.00084501,0.00
 162295,-0.00072007,-0.00246405,0.00055113,-0.00081260,0.00010892,-0.00
 443070,-0.00345088,-0.00152462,0.00064373,0.00052047,-0.00116153,-0.00
 015173,0.00001784,0.00017424,0.01342226,-0.04150189,0.03087708,-0.0004
 8933,-0.00026142,0.00113815,0.00336984,0.00065321,0.00059808,-0.000067
 46,-0.00022777,-0.00008511,0.00030074,0.00001360,0.00009292,-0.0000550
 6,0.00010722,-0.00007200,0.00001054,-0.00001631,0.00000192,0.00005556,
 0.00009907,-0.00002591,-0.00005084,-0.00000103,-0.00001430,0.00003463,
 0.00002881,-0.00000425,-0.00009072,-0.00013080,0.00006458,-0.00000615,
 -0.00001860,0.00002954,0.00001422,0.00000810,0.00000419,-0.00130972,-0
 .00115060,0.00008894,-0.00337111,-0.00246734,0.00050245,-0.00030857,-0
 .00007367,-0.00008427,0.00001775,-0.00004234,-0.00001652,0.00001592,0.
 00000346,-0.00000219,0.00001969,-0.00000008,-0.00000091,-0.00020207,-0
 .00007612,0.00012804,0.00139864,-0.00053969,0.00031855,-0.00021617,0.0
 0032985,-0.00003175,-0.00050545,0.00012782,-0.00037539,-0.00111168,0.0
 0052012,0.00015091,0.00013399,0.00005497,-0.00003674,0.00004415,0.0000
 3827,-0.00002922,0.00003886,0.00001848,-0.00004886,0.00014900,-0.00069
 709,0.00027980,0.02754535,-0.22022149,0.10124074,0.01720925,0.01253815
 ,0.01450935,-0.01436569,0.00259988,0.02933969,-0.03890567,0.25449679,-
 0.00005492,0.00013548,0.00013585,-0.00004882,0.00015446,0.00012445,-0.
 00006536,0.00000375,0.00003571,-0.00004544,-0.00011241,-0.00021018,0.0
 0019504,-0.00002875,-0.00003963,-0.00009520,-0.00027896,-0.00044848,0.
 00054622,-0.00010252,0.00014221,-0.00050453,0.00132748,0.00084829,0.00
 020942,0.00076768,0.00059996,0.00006629,0.00002563,0.00000722,-0.00078
 222,0.00152086,0.00642886,0.00042507,-0.00041802,-0.00019033,-0.001415
 50,0.00006999,-0.00013135,0.00000711,0.00017005,0.00002425,-0.00003299
 ,-0.00001027,0.00001246,0.00001683,-0.00001470,0.00001869,-0.00001171,
 0.00001341,0.00001188,-0.00000912,-0.00002169,0.00001600,0.00001124,-0
 .00000713,-0.00000677,0.00000846,0.00000501,0.00003320,0.00001031,0.00
 001492,-0.00007572,0.00000899,0.00000655,-0.00000816,0.00000263,-0.000
 00390,-0.00000555,-0.00092156,-0.00002201,0.00146434,0.00119496,0.0000
 8332,-0.00125492,0.00020292,0.00018737,0.00004287,-0.00000990,0.000014
 85,0.00001042,0.00000216,-0.00000474,-0.00000037,-0.00000312,-0.000001
 03,-0.00000759,0.00006327,0.00000664,-0.00010889,-0.00019139,-0.000176
 77,-0.00364669,-0.00028144,-0.00033349,0.00062561,0.00061387,0.0001837
 8,0.00176204,0.00013200,-0.00016809,0.00044606,-0.00003817,-0.00001098
 ,0.00002377,-0.00001613,-0.00000623,0.00002306,-0.00000712,0.00000069,
 0.00005546,-0.00007810,0.00013679,-0.00033572,-0.02198113,0.10047604,-
 0.15778417,-0.04213329,0.02645125,-0.03751524,0.02361215,0.04286852,-0
 .05966455,0.04132002,-0.17277704,0.24822240,0.00120250,-0.00046159,0.0
 0065847,0.00021113,-0.00016644,0.00004504,0.00056839,-0.00007341,0.000
 20598,-0.00057061,0.00022381,-0.00022030,-0.00192745,0.00055186,-0.000
 87617,0.00004229,-0.00000642,0.00006029,-0.00000774,-0.00003014,-0.000
 01488,0.00007668,0.00000413,0.00010046,0.00000784,-0.00003908,-0.00000
 822,-0.00001427,0.00001549,-0.00001750,-0.00006609,-0.00008532,0.00001
 275,0.00005031,0.00014325,-0.00013374,0.00009043,-0.00000871,0.0000171
 4,0.00000575,0.00000018,-0.00000873,0.00212130,0.00108768,0.00018568,0
 .00025001,-0.00018971,0.00015467,-0.00505932,-0.00433801,0.00058068,-0
 .00087539,-0.00010593,-0.00000794,0.00017947,-0.00007288,0.00010309,-0
 .01247398,0.00678457,-0.01224311,0.00252810,-0.00022092,0.00113924,0.0
 0206825,0.00273197,-0.00115086,0.00005208,0.00031600,-0.00005802,-0.00
 003076,-0.00002142,0.00002690,0.00002812,0.00000403,-0.00000329,0.0000
 0118,0.00000318,-0.00000308,0.00000278,-0.00066851,0.00005706,-0.00002
 797,0.00034212,-0.00009004,0.00077887,0.00016724,0.00046990,0.00198124
 ,-0.00150733,0.00099445,0.00025686,0.00010005,-0.00013630,-0.00007617,
 -0.00006851,0.00002573,-0.00005421,-0.00002737,0.00005459,-0.00011665,
 0.00000917,0.00003620,-0.00051827,0.00007078,-0.00008943,-0.00048251,0
 .00098156,-0.00017712,-0.00072126,0.00066276,-0.00058409,-0.23627901,0
 .06398073,-0.09556172,0.00078503,0.00038155,-0.00023970,-0.00035961,-0
 .00016798,-0.00002157,-0.00026430,-0.00003112,0.00018160,-0.00014834,-
 0.00014582,0.00009489,0.35750385,-0.00206889,-0.00012903,-0.00074471,-
 0.00041042,-0.00017990,-0.00024702,-0.00076865,-0.00046933,0.00000423,
 0.00152835,0.00037018,0.00068243,0.00234310,0.00050519,0.00044807,-0.0
 0020377,0.00001004,-0.00008872,0.00003761,0.00007637,0.00004888,-0.000
 02235,-0.00000535,-0.00002887,-0.00003844,0.00007266,0.00001394,0.0000
 3472,-0.00000745,0.00001681,-0.00000902,0.00004432,-0.00001459,0.00005
 210,-0.00012729,0.00001666,-0.00002618,-0.00000808,-0.00002326,-0.0000
 1265,0.00000405,0.00000190,0.00055741,0.00018624,0.00015765,0.00047562
 ,-0.00040581,0.00040477,-0.00003876,-0.00274376,0.00130370,0.00180731,
 -0.00100577,0.00079218,0.00007092,0.00002120,0.00001967,0.03515802,-0.
 00886512,0.02329309,0.00083772,-0.00413273,0.00227175,-0.00447827,-0.0
 0546331,0.00206281,-0.00008893,-0.00059539,0.00019153,0.00000069,-0.00
 001782,-0.00000089,-0.00002109,-0.00000163,0.00000515,-0.00001277,-0.0
 0000055,0.00000265,-0.00055012,-0.00018705,-0.00010559,0.00018415,0.00
 002742,0.00001444,0.00035710,-0.00007874,-0.00016975,-0.00102679,-0.00
 009512,0.00059875,0.00004035,-0.00007736,-0.00000563,-0.00000234,0.000
 04325,0.00000350,-0.00000840,0.00002066,-0.00000423,-0.00004390,0.0000
 3069,0.00000545,0.00066987,0.00022233,-0.00020851,0.00020720,0.0001105
 0,-0.00011808,0.00019992,0.00004970,-0.00023644,0.05739438,-0.11102448
 ,0.03962023,-0.00030229,-0.00055312,0.00001914,0.00016802,0.00017992,0
 .00004989,0.00007247,0.00010511,-0.00002130,0.00004627,0.00022772,-0.0
 0007383,-0.06680606,0.10805441,0.00144419,-0.00006777,0.00070751,0.000
 22397,0.00011902,0.00021454,0.00058422,0.00022762,0.00009445,-0.000866
 45,-0.00021936,-0.00052891,-0.00185753,-0.00007961,-0.00061235,0.00011
 237,0.00000400,0.00007549,-0.00000643,-0.00003740,-0.00001230,0.000001
 59,-0.00001124,0.00002878,0.00001812,-0.00002699,0.00000660,-0.0000123
 8,0.00001318,-0.00001790,0.00001598,-0.00003478,0.00004089,-0.00003108
 ,0.00006635,-0.00008403,0.00002891,-0.00000266,0.00000743,0.00001110,0
 .00000111,-0.00000643,0.00043274,0.00042069,0.00016254,-0.00013128,0.0
 0015633,-0.00009389,-0.00185756,-0.00035930,-0.00063212,-0.00107824,0.
 00011766,-0.00095696,0.00003682,-0.00004213,0.00001635,-0.02592041,0.0
 1182302,-0.00679062,0.00065283,0.00192165,-0.00119749,0.00247593,0.004
 60963,0.00019602,0.00013269,0.00031140,-0.00033244,-0.00000986,-0.0000
 0244,0.00001035,0.00001134,0.00000183,-0.00000947,0.00001061,0.0000044
 0,-0.00000237,0.00000996,0.00006348,0.00051747,-0.00007373,0.00001152,
 0.00000573,0.00063585,-0.00021824,-0.00022601,0.00083033,-0.00027097,-
 0.00176516,0.00004250,0.00004815,-0.00008844,-0.00001630,-0.00002598,0
 .00001723,-0.00000419,-0.00001471,0.00004838,-0.00001117,-0.00000921,0
 .00001722,-0.00045399,-0.00001469,0.00032531,-0.00029502,0.00022153,0.
 00030237,0.00000464,0.00001209,0.00082065,-0.09250210,0.04200474,-0.13
 663373,0.00012452,0.00023178,-0.00029818,-0.00002164,-0.00004992,0.000
 07606,-0.00006529,-0.00002508,0.00009128,-0.00002502,-0.00014018,0.000
 12919,0.14376283,-0.03920133,0.16275118,-0.00073317,-0.00037579,-0.000
 22723,-0.00011793,-0.00031783,-0.00020859,-0.00035155,-0.00047237,0.00
 011761,0.00066127,0.00053444,0.00043103,0.00068885,0.00036376,0.000046
 86,-0.00011886,-0.00001062,-0.00003165,0.00000774,0.00003098,0.0000140
 4,0.00005344,0.00000412,0.00005340,-0.00001680,0.00000828,-0.00000630,
 0.00001009,0.00000359,0.00000394,-0.00007747,-0.00003870,-0.00002203,0
 .00007572,0.00003374,-0.00005189,0.00005849,-0.00001104,0.00000335,-0.
 00000759,0.00000176,-0.00000326,0.00048339,-0.00039695,-0.00062035,0.0
 0023532,-0.00027935,0.00030938,0.00075708,-0.00150062,0.00098406,0.000
 57813,-0.00114636,-0.00031130,0.00006686,0.00010664,0.00014814,-0.0075
 1751,-0.00508550,0.01818207,0.00035553,0.00101368,0.00036030,-0.003323
 59,-0.00131810,-0.00039896,-0.00004315,-0.00026880,0.00024621,-0.00002
 359,-0.00002469,0.00002011,0.00001289,0.00000270,0.00000535,-0.0000102
 6,0.00000013,-0.00000059,-0.00086785,-0.00188614,-0.00260662,0.0001974
 4,0.00140659,-0.00025496,-0.00056784,0.00211290,0.00022557,0.00245458,
 -0.00295530,0.00567673,0.00024604,0.00004508,-0.00006374,-0.00006736,-
 0.00003964,0.00001204,-0.00005618,-0.00001056,0.00001201,-0.00012523,0
 .00002533,0.00002380,-0.00012132,0.00018362,-0.00083052,-0.00036416,0.
 00156792,-0.00096541,-0.00447687,0.00410792,-0.00280923,-0.19151473,-0
 .02458519,0.11397508,0.00054799,0.00004637,-0.00000230,-0.00026431,-0.
 00007246,-0.00006526,-0.00017849,0.00001563,0.00009554,-0.00010764,0.0
 0002148,-0.00002312,-0.08493868,0.00653624,0.02376966,0.28306260,-0.00
 168684,-0.00011604,-0.00063920,-0.00033719,-0.00020637,-0.00022719,-0.
 00082696,-0.00049378,0.00011693,0.00127976,0.00040591,0.00059319,0.002
 21284,0.00005725,0.00036060,-0.00018764,0.00000514,-0.00007026,0.00002
 842,0.00006462,0.00003919,0.00000083,-0.00000500,-0.00000388,-0.000032
 71,0.00005522,0.00000910,0.00002905,-0.00000383,0.00001270,-0.00003250
 ,0.00001910,-0.00001459,0.00005989,-0.00007600,-0.00000999,0.00000360,
 -0.00000993,-0.00001521,-0.00001104,0.00000344,-0.00000035,-0.00003950
 ,-0.00208373,-0.00100721,-0.00079064,-0.00044737,0.00015705,0.00254318
 ,-0.00082865,0.00270505,0.00006510,0.00000760,-0.00093549,0.00000700,0
 .00012974,0.00008078,-0.02818548,-0.00149593,0.02751206,-0.00032699,0.
 00036992,0.00061886,-0.00142425,-0.00006148,-0.00117234,0.00001916,-0.
 00008138,0.00006817,-0.00000844,-0.00002190,0.00000742,-0.00001032,-0.
 00000019,0.00000472,-0.00001221,-0.00000013,0.00000161,0.00018488,-0.0
 0012826,0.00133646,0.00023981,0.00003132,-0.00001749,0.00095840,-0.000
 44312,0.00095813,-0.00123141,-0.00064477,-0.00012729,0.00011858,-0.000
 04259,-0.00003608,-0.00002585,0.00001890,0.00000890,-0.00002580,0.0000
 1142,0.00000631,-0.00007772,0.00003210,0.00001422,0.00078144,0.0004305
 9,-0.00013749,0.00008554,0.00027209,0.00000742,0.00336321,-0.00249241,
 0.00016464,-0.02404089,-0.08959732,0.02817358,-0.00002131,-0.00037752,
 -0.00002224,0.00003121,0.00010513,0.00002508,-0.00001558,0.00008318,0.
 00002900,-0.00000605,0.00016438,-0.00004892,0.01390120,0.01328436,-0.0
 0701444,0.00824943,0.08153366,0.00156929,0.00022908,0.00065590,0.00023
 980,0.00034384,0.00031905,0.00079130,0.00062612,-0.00010978,-0.0011115
 4,-0.00060517,-0.00070588,-0.00204866,-0.00013256,-0.00041131,0.000170
 67,0.00001372,0.00007350,-0.00001057,-0.00005315,-0.00002113,-0.000037
 43,-0.00000859,-0.00002349,0.00002513,-0.00002487,0.00000942,-0.000016
 34,0.00000563,-0.00001587,0.00006787,0.00000964,0.00004045,-0.00007479
 ,0.00002165,-0.00000191,-0.00002874,0.00000713,0.00000249,0.00001387,-
 0.00000099,-0.00000202,0.00101995,0.00146249,0.00081739,0.00033454,0.0
 0021136,-0.00017264,-0.00239864,0.00282922,-0.00359430,0.00001535,0.00
 027153,0.00033439,-0.00003655,-0.00006856,-0.00005872,0.02870796,0.008
 88710,-0.01484315,0.00007524,-0.00037222,-0.00043837,0.00113743,-0.000
 67447,0.00198519,0.00001086,0.00004873,-0.00014859,0.00001229,0.000018
 28,-0.00000974,-0.00000293,-0.00000106,-0.00001022,0.00001503,0.000002
 61,-0.00000121,-0.00190089,-0.00062538,-0.00219444,-0.00020389,0.00048
 934,0.00014218,-0.00098708,0.00121450,-0.00315899,-0.00022884,0.000709
 04,-0.00628507,-0.00016975,-0.00000543,-0.00000861,0.00004362,0.000015
 48,0.00000219,0.00004234,-0.00000120,0.00002302,0.00009317,-0.00002620
 ,-0.00000739,-0.00036756,-0.00003726,0.00096875,-0.00014886,-0.0005235
 4,0.00114526,0.00103144,-0.00061136,0.00321038,0.11368588,0.02862826,-
 0.19458619,-0.00033640,0.00011286,-0.00017013,0.00018160,0.00002129,0.
 00009127,0.00009555,-0.00002904,-0.00001803,0.00006758,-0.00010306,0.0
 0009408,0.00480747,-0.00429124,0.02112779,-0.17881765,-0.00862041,0.25
 559423,-0.00009325,-0.00019561,0.00003186,-0.00002586,-0.00012430,-0.0
 0005450,-0.00002580,-0.00013178,0.00005346,0.00017715,0.00020060,0.000
 10860,-0.00007551,0.00021009,-0.00016063,-0.00004071,-0.00000132,-0.00
 000462,0.00000359,0.00000717,0.00000483,0.00002905,0.,0.00003305,-0.00
 000609,0.00000067,-0.00000115,0.00000350,0.00000418,-0.00000200,-0.000
 03915,-0.00002399,-0.00000506,0.00003722,0.00003176,-0.00003753,0.0000
 3496,-0.00000693,0.00000262,-0.00000144,0.00000088,-0.00000331,0.00064
 259,0.00057042,0.00048533,0.00034361,-0.00020882,0.00018667,-0.0004854
 0,0.00061999,0.00007274,0.00004261,-0.00027846,0.00092195,0.00009901,-
 0.00000748,-0.00007035,0.01046826,-0.00777906,-0.00435880,0.00043466,0
 .00031397,-0.00046143,-0.00243206,-0.00147354,-0.00029374,-0.00003181,
 -0.00018749,0.00014870,-0.00001401,-0.00001342,0.00001217,0.00000829,0
 .00000156,0.00000105,-0.00000344,0.00000074,-0.00000079,-0.00256017,-0
 .00117005,0.00072241,0.00002358,0.00055520,-0.00007262,-0.00121420,0.0
 0291446,-0.00040801,0.00125132,-0.00056289,-0.00122685,0.00013420,0.00
 002814,-0.00005377,-0.00003708,-0.00002260,0.00001061,-0.00002935,-0.0
 0000751,0.00001761,-0.00006722,0.00001242,0.00001640,-0.00001108,0.000
 17816,0.00000431,-0.00065465,0.00118528,0.00025651,-0.00007859,0.00028
 485,0.00026543,-0.08331364,-0.02721817,-0.02200009,0.00031695,0.000054
 85,-0.00004636,-0.00014833,-0.00004625,-0.00002499,-0.00010764,0.00000
 609,0.00006759,-0.00006127,-0.00000692,0.00000639,-0.02577985,-0.03183
 946,-0.05013404,0.00543866,0.02519477,0.03467187,0.09784838,-0.0025540
 4,-0.00025675,-0.00087026,-0.00054426,-0.00029664,-0.00030970,-0.00114
 587,-0.00095596,-0.00002333,0.00203137,0.00061074,0.00084476,0.0030415
 6,0.00048228,0.00101186,-0.00030076,0.00001360,-0.00009292,0.00005508,
 0.00010725,0.00007197,-0.00001054,-0.00001632,-0.00000192,-0.00005555,
 0.00009909,0.00002589,0.00005085,-0.00000103,0.00001429,-0.00003462,0.
 00002881,0.00000425,0.00009071,-0.00013083,-0.00006455,0.00000615,-0.0
 0001861,-0.00002954,-0.00001422,0.00000810,-0.00000419,-0.00162311,-0.
 00071907,0.00246409,-0.00055103,-0.00081255,-0.00010862,0.00443032,-0.
 00345119,0.00152612,-0.00064363,0.00052067,0.00116148,0.00015175,0.000
 01776,-0.00017423,-0.01342611,-0.04151131,-0.03086068,0.00048944,-0.00
 026172,-0.00113809,-0.00337008,0.00065334,-0.00059838,0.00006745,-0.00
 022779,0.00008518,-0.00001775,-0.00004234,0.00001654,-0.00001969,-0.00
 000008,0.00000090,-0.00001592,0.00000346,0.00000219,0.00130953,-0.0011
 5064,-0.00008809,0.00030864,-0.00007377,0.00008432,0.00337146,-0.00246
 800,-0.00050199,-0.00139882,-0.00053960,-0.00031952,0.00020208,-0.0000
 7618,-0.00012805,-0.00004415,0.00003828,0.00002922,-0.00003886,0.00001
 850,0.00004887,-0.00013400,0.00005499,0.00003673,0.00111177,0.00052003
 ,-0.00015092,0.00021614,0.00032987,0.00003183,0.00050566,0.00012783,0.
 00037592,-0.02756203,-0.22028556,-0.10121812,-0.00014911,-0.00069723,-
 0.00027966,0.00014589,0.00022779,0.00014015,-0.00002146,0.00016443,0.0
 0010303,0.00000695,0.00025806,-0.00000303,-0.01722062,0.01252789,-0.01
 452272,0.01437366,0.00257262,-0.02936312,0.03892980,0.25460778,-0.0000
 5407,-0.00013534,0.00013620,-0.00006517,-0.00000364,0.00003581,-0.0000
 4845,-0.00015410,0.00012451,0.00019436,0.00002852,-0.00003992,-0.00004
 646,0.00011218,-0.00021056,-0.00003290,0.00001028,0.00001248,0.0000168
 2,0.00001468,0.00001867,-0.00001170,-0.00001340,0.00001188,-0.00000909
 ,0.00002166,0.00001599,0.00001122,0.00000713,-0.00000678,0.00000847,-0
 .00000501,0.00003319,0.00001028,-0.00001490,-0.00007569,0.00000900,-0.
 00000654,-0.00000814,0.00000264,0.00000389,-0.00000555,-0.00009461,0.0
 0027907,-0.00044941,0.00054642,0.00010280,0.00014222,-0.00050614,-0.00
 132599,0.00084823,0.00020957,-0.00076767,0.00059984,0.00006624,-0.0000
 2564,0.00000729,-0.00077776,-0.00150465,0.00643975,0.00042494,0.000418
 02,-0.00019008,-0.00141440,-0.00007016,-0.00013114,0.00000707,-0.00016
 996,0.00002428,-0.00000989,-0.00001484,0.00001042,-0.00000311,0.000001
 02,-0.00000759,0.00000216,0.00000474,-0.00000037,-0.00092206,0.0000229
 6,0.00146437,0.00020280,-0.00018734,0.00004290,0.00119380,-0.00008298,
 -0.00125472,-0.00019083,0.00017572,-0.00364664,0.00006320,-0.00000666,
 -0.00010885,-0.00001612,0.00000622,0.00002305,-0.00000711,-0.00000068,
 0.00005544,-0.00003813,0.00001097,0.00002376,0.00013163,0.00016805,0.0
 0044606,-0.00028151,0.00033363,0.00062548,0.00061365,-0.00018325,0.001
 76198,-0.02197865,-0.10045346,-0.15771635,-0.00007806,-0.00013666,-0.0
 0033557,0.00009484,0.00007379,0.00012911,-0.00002310,0.00004890,0.0000
 9403,0.00000639,0.00000298,0.00009598,-0.04212931,-0.02646529,-0.03750
 201,0.02360463,-0.04289108,-0.05963973,0.04131849,0.17277203,0.2481062
 3\\-0.00000030,0.00000221,-0.00000005,-0.00000093,0.00000032,-0.000000
 29,0.00000091,0.00000038,0.00000015,0.00000073,-0.00000115,0.00000051,
 -0.00000043,-0.00000121,-0.00000017,-0.00000036,0.00000005,0.00000007,
 0.00000069,0.00000028,0.00000047,0.00000055,0.00000007,0.00000016,-0.0
 0000032,0.00000094,0.00000125,-0.00000021,-0.00000067,0.00000012,-0.00
 000112,-0.00000069,0.00000100,0.00000074,-0.00000004,0.00000050,-0.000
 00117,-0.00000079,-0.00000027,-0.00000066,-0.00000035,0.00000024,0.000
 00036,-0.00000001,-0.00000024,-0.00000068,0.00000028,-0.00000044,-0.00
 000056,-0.00000003,-0.00000022,0.00000031,0.00000087,-0.00000128,0.000
 00022,-0.00000067,-0.00000013,0.00000115,-0.00000063,-0.00000085,-0.00
 000074,-0.00000004,-0.00000049,0.00000113,-0.00000075,0.00000033,0.000
 00065,-0.00000034,-0.00000024,0.,-0.00000022,0.00000179,0.00000056,0.0
 0000036,0.00000017,-0.00000085,-0.00000061,0.00000085,0.,-0.00000025,-
 0.00000187,0.00000084,-0.00000058,-0.00000083,-0.00000056,0.00000035,-
 0.00000022,0.00000267,0.00000084,-0.00000097,-0.00000267,0.00000085,0.
 00000100,0.00000148,-0.00000117,-0.00000029,0.00000154,-0.00000041,0.0
 0000225,0.00000104,0.00000086,0.00000042,-0.00000104,0.00000086,-0.000
 00044,-0.00000146,-0.00000117,0.00000028,-0.00000164,-0.00000029,-0.00
 000226,-0.00000173,-0.00000053,-0.00000066,0.00000180,-0.00000047,0.00
 000058,-0.00000122,0.00000100,0.00000077,0.00000123,0.00000135,0.00000
 037,-0.00000063,-0.00000059,0.00000130,0.00000118,0.00000108,-0.000000
 78,-0.00000109,0.00000125,-0.00000025,0.00000060,-0.00000057,-0.000001
 34\\\@


 WE'RE IN THE POSITION OF A VISITOR FROM ANOTHER
 DIMENSION WHO COMES TO EARTH AND SEES A CHESS MATCH.
 ASSUMING HE KNOWS IT'S A GAME, HE'S GOT TWO PROBLEMS:
 FIRST, FIGURE OUT THE RULES, AND SECOND, FIGURE OUT HOW TO WIN.
 NINETY PERCENT OF SCIENCE (INCLUDING VIRTUALLY ALL OF CHEMISRY)
 IS IN THAT SECOND CATEGORY.  THEY'RE TRYING TO APPLY
 THE LAWS THAT ARE ALREADY KNOWN.

                     -- SHELDON GLASHOW, 1979
 Job cpu time:       0 days  9 hours 41 minutes 11.3 seconds.
 Elapsed time:       0 days  0 hours  9 minutes  8.9 seconds.
 File lengths (MBytes):  RWF=   1661 Int=      0 D2E=      0 Chk=     25 Scr=      1
 Normal termination of Gaussian 16 at Sat Sep 30 22:38:38 2023.
