 Entering Gaussian System, Link 0=/project/xlzhang/shared/bin/g16C02/g16
 Input=/users/s1155246974/li/complex_opt_c2/complex_opt_c2.com
 Output=/users/s1155246974/li/complex_opt_c2/complex_opt_c2.log
 Initial command:
 /project/xlzhang/shared/bin/g16C02/l1.exe "/ss02/scratch/s1/xlzhang/zihan/complex_opt_c2/Gau-2636649.inp" -scrdir="/ss02/scratch/s1/xlzhang/zihan/complex_opt_c2/"
 Entering Link 1 = /project/xlzhang/shared/bin/g16C02/l1.exe PID=   2636650.
  
 Copyright (c) 1988-2021, Gaussian, Inc.  All Rights Reserved.
  
 This is part of the Gaussian(R) 16 program.  It is based on
 the Gaussian(R) 09 system (copyright 2009, Gaussian, Inc.),
 the Gaussian(R) 03 system (copyright 2003, Gaussian, Inc.),
 the Gaussian(R) 98 system (copyright 1998, Gaussian, Inc.),
 the Gaussian(R) 94 system (copyright 1995, Gaussian, Inc.),
 the Gaussian 92(TM) system (copyright 1992, Gaussian, Inc.),
 the Gaussian 90(TM) system (copyright 1990, Gaussian, Inc.),
 the Gaussian 88(TM) system (copyright 1988, Gaussian, Inc.),
 the Gaussian 86(TM) system (copyright 1986, Carnegie Mellon
 University), and the Gaussian 82(TM) system (copyright 1983,
 Carnegie Mellon University). Gaussian is a federally registered
 trademark of Gaussian, Inc.
  
 This software contains proprietary and confidential information,
 including trade secrets, belonging to Gaussian, Inc.
  
 This software is provided under written license and may be
 used, copied, transmitted, or stored only in accord with that
 written license.
  
 The following legend is applicable only to US Government
 contracts under FAR:
  
                    RESTRICTED RIGHTS LEGEND
  
 Use, reproduction and disclosure by the US Government is
 subject to restrictions as set forth in subparagraphs (a)
 and (c) of the Commercial Computer Software - Restricted
 Rights clause in FAR 52.227-19.
  
 Gaussian, Inc.
 340 Quinnipiac St., Bldg. 40, Wallingford CT 06492
  
  
 ---------------------------------------------------------------
 Warning -- This program may not be used in any manner that
 competes with the business of Gaussian, Inc. or will provide
 assistance to any competitor of Gaussian, Inc.  The licensee
 of this program is prohibited from giving any competitor of
 Gaussian, Inc. access to this program.  By using this program,
 the user acknowledges that Gaussian, Inc. is engaged in the
 business of creating and licensing software in the field of
 computational chemistry and represents and warrants to the
 licensee that it is not a competitor of Gaussian, Inc. and that
 it will not use this program in any manner prohibited above.
 ---------------------------------------------------------------
  

 Cite this work as:
 Gaussian 16, Revision C.02,
 M. J. Frisch, G. W. Trucks, H. B. Schlegel, G. E. Scuseria, 
 M. A. Robb, J. R. Cheeseman, G. Scalmani, V. Barone, 
 G. A. Petersson, H. Nakatsuji, X. Li, M. Caricato, A. V. Marenich, 
 J. Bloino, B. G. Janesko, R. Gomperts, B. Mennucci, H. P. Hratchian, 
 J. V. Ortiz, A. F. Izmaylov, J. L. Sonnenberg, D. Williams-Young, 
 F. Ding, F. Lipparini, F. Egidi, J. Goings, B. Peng, A. Petrone, 
 T. Henderson, D. Ranasinghe, V. G. Zakrzewski, J. Gao, N. Rega, 
 G. Zheng, W. Liang, M. Hada, M. Ehara, K. Toyota, R. Fukuda, 
 J. Hasegawa, M. Ishida, T. Nakajima, Y. Honda, O. Kitao, H. Nakai, 
 T. Vreven, K. Throssell, J. A. Montgomery, Jr., J. E. Peralta, 
 F. Ogliaro, M. J. Bearpark, J. J. Heyd, E. N. Brothers, K. N. Kudin, 
 V. N. Staroverov, T. A. Keith, R. Kobayashi, J. Normand, 
 K. Raghavachari, A. P. Rendell, J. C. Burant, S. S. Iyengar, 
 J. Tomasi, M. Cossi, J. M. Millam, M. Klene, C. Adamo, R. Cammi, 
 J. W. Ochterski, R. L. Martin, K. Morokuma, O. Farkas, 
 J. B. Foresman, and D. J. Fox, Gaussian, Inc., Wallingford CT, 2019.
 
 ******************************************
 Gaussian 16:  ES64L-G16RevC.02  7-Dec-2021
                10-Jan-2026 
 ******************************************
 %chk=complex_opt_c2.chk
 %nprocshared=64
 Will use up to   64 processors via shared memory.
 %mem=180GB
 -----------------------
 # opt freq mn15 def2svp
 -----------------------
 1/18=20,19=15,26=3,38=1/1,3;
 2/9=110,12=2,17=6,18=5,40=1/2;
 3/5=43,7=101,11=2,25=1,30=1,71=1,74=-73/1,2,3;
 4//1;
 5/5=2,38=5/2;
 6/7=2,8=2,9=2,10=2,28=1/1;
 7//1,2,3,16;
 1/18=20,19=15,26=3/3(2);
 2/9=110/2;
 99//99;
 2/9=110/2;
 3/5=43,7=101,11=2,25=1,30=1,71=1,74=-73/1,2,3;
 4/5=5,16=3,69=1/1;
 5/5=2,38=5/2;
 7//1,2,3,16;
 1/18=20,19=15,26=3/3(-5);
 2/9=110/2;
 6/7=2,8=2,9=2,10=2,19=2,28=1/1;
 99/9=1/99;
 ----------------------------------
 Gaussian job with default settings
 ----------------------------------
 Symbolic Z-matrix:
 Charge =  0 Multiplicity = 1
 Ni                   -0.22514   0.17289   1.37093 
 N                     1.30714  -0.23608  -1.29038 
 N                    -0.79293  -0.46871  -1.60482 
 C                     0.59128   1.35551   3.20633 
 C                     0.72799  -0.02882   3.33616 
 C                    -0.39759  -0.85741   3.23843 
 C                    -1.65122  -0.29116   2.9724 
 C                    -1.78033   1.09399   2.84381 
 C                    -0.66479   1.93276   2.97402 
 C                     0.11788  -0.19342  -0.63519 
 C                     1.13904  -0.52713  -2.62015 
 H                     1.96682  -0.60121  -3.29555 
 C                    -0.18902  -0.67418  -2.819 
 H                    -0.74999  -0.90194  -3.70235 
 C                     2.59105  -0.01841  -0.71825 
 C                     3.32811  -1.1151   -0.265 
 C                     4.59192  -0.88581   0.26031 
 H                     5.17744  -1.71145   0.63216 
 C                     5.11132   0.39307   0.31905 
 C                     4.37263   1.46634  -0.13972 
 H                     4.78835   2.45947  -0.0777 
 C                     3.10507   1.27914  -0.67316 
 C                     2.71717  -2.49512  -0.26846 
 H                     1.96045  -2.54303  -1.058 
 C                     2.01336  -2.69035   1.0756 
 C                     3.72977  -3.60977  -0.52793 
 C                     2.26027   2.44849  -1.11566 
 H                     1.51459   2.09204  -1.83337 
 C                     1.52068   2.97562   0.11468 
 C                     3.0651    3.5572   -1.79303 
 C                    -2.20286  -0.54849  -1.43506 
 C                    -2.78762  -1.79094  -1.17857 
 C                    -4.16752  -1.85287  -1.04527 
 H                    -4.64517  -2.79564  -0.83123 
 C                    -4.94194  -0.71647  -1.17817 
 C                    -4.3492    0.50331  -1.44052 
 H                    -4.96691   1.38251  -1.53245 
 C                    -2.97243   0.6074   -1.58185 
 C                    -1.92207  -3.00884  -0.96557 
 H                    -0.97953  -2.86901  -1.50445 
 C                    -1.60602  -3.09463   0.52861 
 C                    -2.55723  -4.30394  -1.47003 
 C                    -2.30598   1.94299  -1.80322 
 H                    -1.3271    1.77548  -2.26358 
 C                    -2.08226   2.58111  -0.43166 
 C                    -3.09898   2.87211  -2.72178 
 H                     6.09634   0.55512   0.73234 
 H                     2.3865    4.28293  -2.23646 
 H                     3.69471   4.08334  -1.08008 
 H                     3.69588   3.14961  -2.58037 
 H                     0.92261   2.16252   0.54996 
 H                     2.23267   3.32223   0.86087 
 H                     0.86257   3.79771  -0.15513 
 H                     4.32492  -3.39235  -1.41254 
 H                     4.39885  -3.74309   0.31829 
 H                     3.20542  -4.54954  -0.68817 
 H                     1.5089   -3.65271   1.1094 
 H                     2.73403  -2.64224   1.88915 
 H                     1.27518  -1.8915    1.21379 
 H                    -2.52161  -3.22899   1.10061 
 H                    -0.93834  -3.92778   0.7332 
 H                    -1.12679  -2.16184   0.8485 
 H                    -3.39531  -4.60414  -0.8463 
 H                    -2.90767  -4.18882  -2.49372 
 H                    -1.82146  -5.10511  -1.44598 
 H                    -4.00469   3.22997  -2.23893 
 H                    -2.49295   3.73912  -2.97643 
 H                    -3.37361   2.36143  -3.64249 
 H                    -1.47648   1.90266   0.18543 
 H                    -1.56485   3.53212  -0.52974 
 H                    -3.03582   2.74641   0.06557 
 H                    -2.53619  -0.91504   2.95206 
 H                    -0.31249  -1.91746   3.44644 
 H                     1.691    -0.44898   3.5987 
 H                     1.45249   1.99526   3.35343 
 H                    -2.76213   1.53048   2.70907 
 C                    -0.8311    3.42427   2.98646 
 H                     0.06868   3.92177   2.63179 
 H                    -1.67014   3.73018   2.36573 
 H                    -1.02422   3.7589    4.00774 
 H                    -6.01495  -0.78105  -1.0695 
 

 GradGradGradGradGradGradGradGradGradGradGradGradGradGradGradGradGradGrad
 Berny optimization.
 Initialization pass.
                           ----------------------------
                           !    Initial Parameters    !
                           ! (Angstroms and Degrees)  !
 --------------------------                            --------------------------
 ! Name  Definition              Value          Derivative Info.                !
 --------------------------------------------------------------------------------
 ! R1    R(1,5)                  2.1935         estimate D2E/DX2                !
 ! R2    R(1,6)                  2.1398         estimate D2E/DX2                !
 ! R3    R(1,7)                  2.194          estimate D2E/DX2                !
 ! R4    R(1,10)                 2.0679         estimate D2E/DX2                !
 ! R5    R(2,10)                 1.3585         estimate D2E/DX2                !
 ! R6    R(2,11)                 1.3716         estimate D2E/DX2                !
 ! R7    R(2,15)                 1.4224         estimate D2E/DX2                !
 ! R8    R(3,10)                 1.3585         estimate D2E/DX2                !
 ! R9    R(3,13)                 1.3716         estimate D2E/DX2                !
 ! R10   R(3,31)                 1.4224         estimate D2E/DX2                !
 ! R11   R(4,5)                  1.3971         estimate D2E/DX2                !
 ! R12   R(4,9)                  1.4017         estimate D2E/DX2                !
 ! R13   R(4,75)                 1.0829         estimate D2E/DX2                !
 ! R14   R(5,6)                  1.4011         estimate D2E/DX2                !
 ! R15   R(5,74)                 1.083          estimate D2E/DX2                !
 ! R16   R(6,7)                  1.4011         estimate D2E/DX2                !
 ! R17   R(6,73)                 1.0836         estimate D2E/DX2                !
 ! R18   R(7,8)                  1.3971         estimate D2E/DX2                !
 ! R19   R(7,72)                 1.083          estimate D2E/DX2                !
 ! R20   R(8,9)                  1.4018         estimate D2E/DX2                !
 ! R21   R(8,76)                 1.0829         estimate D2E/DX2                !
 ! R22   R(9,77)                 1.5008         estimate D2E/DX2                !
 ! R23   R(11,12)                1.0709         estimate D2E/DX2                !
 ! R24   R(11,13)                1.3509         estimate D2E/DX2                !
 ! R25   R(13,14)                1.0709         estimate D2E/DX2                !
 ! R26   R(15,16)                1.3969         estimate D2E/DX2                !
 ! R27   R(15,22)                1.3964         estimate D2E/DX2                !
 ! R28   R(16,17)                1.3877         estimate D2E/DX2                !
 ! R29   R(16,23)                1.5092         estimate D2E/DX2                !
 ! R30   R(17,18)                1.0783         estimate D2E/DX2                !
 ! R31   R(17,19)                1.3816         estimate D2E/DX2                !
 ! R32   R(19,20)                1.3813         estimate D2E/DX2                !
 ! R33   R(19,47)                1.0804         estimate D2E/DX2                !
 ! R34   R(20,21)                1.0784         estimate D2E/DX2                !
 ! R35   R(20,22)                1.3879         estimate D2E/DX2                !
 ! R36   R(22,27)                1.5089         estimate D2E/DX2                !
 ! R37   R(23,24)                1.0947         estimate D2E/DX2                !
 ! R38   R(23,25)                1.5297         estimate D2E/DX2                !
 ! R39   R(23,26)                1.5281         estimate D2E/DX2                !
 ! R40   R(25,57)                1.0871         estimate D2E/DX2                !
 ! R41   R(25,58)                1.0879         estimate D2E/DX2                !
 ! R42   R(25,59)                1.0964         estimate D2E/DX2                !
 ! R43   R(26,54)                1.0881         estimate D2E/DX2                !
 ! R44   R(26,55)                1.087          estimate D2E/DX2                !
 ! R45   R(26,56)                1.088          estimate D2E/DX2                !
 ! R46   R(27,28)                1.0946         estimate D2E/DX2                !
 ! R47   R(27,29)                1.5293         estimate D2E/DX2                !
 ! R48   R(27,30)                1.5283         estimate D2E/DX2                !
 ! R49   R(29,51)                1.0992         estimate D2E/DX2                !
 ! R50   R(29,52)                1.0881         estimate D2E/DX2                !
 ! R51   R(29,53)                1.0871         estimate D2E/DX2                !
 ! R52   R(30,48)                1.088          estimate D2E/DX2                !
 ! R53   R(30,49)                1.087          estimate D2E/DX2                !
 ! R54   R(30,50)                1.0881         estimate D2E/DX2                !
 ! R55   R(31,32)                1.3969         estimate D2E/DX2                !
 ! R56   R(31,38)                1.3964         estimate D2E/DX2                !
 ! R57   R(32,33)                1.3877         estimate D2E/DX2                !
 ! R58   R(32,39)                1.5092         estimate D2E/DX2                !
 ! R59   R(33,34)                1.0783         estimate D2E/DX2                !
 ! R60   R(33,35)                1.3816         estimate D2E/DX2                !
 ! R61   R(35,36)                1.3813         estimate D2E/DX2                !
 ! R62   R(35,81)                1.0804         estimate D2E/DX2                !
 ! R63   R(36,37)                1.0784         estimate D2E/DX2                !
 ! R64   R(36,38)                1.3879         estimate D2E/DX2                !
 ! R65   R(38,43)                1.509          estimate D2E/DX2                !
 ! R66   R(39,40)                1.0947         estimate D2E/DX2                !
 ! R67   R(39,41)                1.5296         estimate D2E/DX2                !
 ! R68   R(39,42)                1.5281         estimate D2E/DX2                !
 ! R69   R(41,60)                1.0879         estimate D2E/DX2                !
 ! R70   R(41,61)                1.0871         estimate D2E/DX2                !
 ! R71   R(41,62)                1.0964         estimate D2E/DX2                !
 ! R72   R(42,63)                1.087          estimate D2E/DX2                !
 ! R73   R(42,64)                1.0881         estimate D2E/DX2                !
 ! R74   R(42,65)                1.088          estimate D2E/DX2                !
 ! R75   R(43,44)                1.0946         estimate D2E/DX2                !
 ! R76   R(43,45)                1.5292         estimate D2E/DX2                !
 ! R77   R(43,46)                1.5284         estimate D2E/DX2                !
 ! R78   R(45,69)                1.0991         estimate D2E/DX2                !
 ! R79   R(45,70)                1.0871         estimate D2E/DX2                !
 ! R80   R(45,71)                1.088          estimate D2E/DX2                !
 ! R81   R(46,66)                1.087          estimate D2E/DX2                !
 ! R82   R(46,67)                1.088          estimate D2E/DX2                !
 ! R83   R(46,68)                1.0881         estimate D2E/DX2                !
 ! R84   R(77,78)                1.0876         estimate D2E/DX2                !
 ! R85   R(77,79)                1.0876         estimate D2E/DX2                !
 ! R86   R(77,80)                1.0919         estimate D2E/DX2                !
 ! A1    A(5,1,7)               66.9843         estimate D2E/DX2                !
 ! A2    A(5,1,10)             141.3336         estimate D2E/DX2                !
 ! A3    A(6,1,10)             140.78           estimate D2E/DX2                !
 ! A4    A(7,1,10)             141.119          estimate D2E/DX2                !
 ! A5    A(10,2,11)            111.5285         estimate D2E/DX2                !
 ! A6    A(10,2,15)            126.2576         estimate D2E/DX2                !
 ! A7    A(11,2,15)            122.2137         estimate D2E/DX2                !
 ! A8    A(10,3,13)            111.5308         estimate D2E/DX2                !
 ! A9    A(10,3,31)            126.2121         estimate D2E/DX2                !
 ! A10   A(13,3,31)            122.257          estimate D2E/DX2                !
 ! A11   A(5,4,9)              120.7389         estimate D2E/DX2                !
 ! A12   A(5,4,75)             119.6659         estimate D2E/DX2                !
 ! A13   A(9,4,75)             119.4636         estimate D2E/DX2                !
 ! A14   A(1,5,4)               77.4727         estimate D2E/DX2                !
 ! A15   A(1,5,74)             129.7375         estimate D2E/DX2                !
 ! A16   A(4,5,6)              120.0584         estimate D2E/DX2                !
 ! A17   A(4,5,74)             119.6009         estimate D2E/DX2                !
 ! A18   A(6,5,74)             120.1221         estimate D2E/DX2                !
 ! A19   A(1,6,73)             129.2145         estimate D2E/DX2                !
 ! A20   A(5,6,7)              119.5412         estimate D2E/DX2                !
 ! A21   A(5,6,73)             120.1354         estimate D2E/DX2                !
 ! A22   A(7,6,73)             120.1385         estimate D2E/DX2                !
 ! A23   A(1,7,8)               77.4779         estimate D2E/DX2                !
 ! A24   A(1,7,72)             129.7385         estimate D2E/DX2                !
 ! A25   A(6,7,8)              120.0578         estimate D2E/DX2                !
 ! A26   A(6,7,72)             120.1262         estimate D2E/DX2                !
 ! A27   A(8,7,72)             119.5987         estimate D2E/DX2                !
 ! A28   A(7,8,9)              120.7415         estimate D2E/DX2                !
 ! A29   A(7,8,76)             119.6622         estimate D2E/DX2                !
 ! A30   A(9,8,76)             119.4655         estimate D2E/DX2                !
 ! A31   A(4,9,8)              118.8221         estimate D2E/DX2                !
 ! A32   A(4,9,77)             120.4758         estimate D2E/DX2                !
 ! A33   A(8,9,77)             120.4811         estimate D2E/DX2                !
 ! A34   A(1,10,2)             128.2183         estimate D2E/DX2                !
 ! A35   A(1,10,3)             128.1042         estimate D2E/DX2                !
 ! A36   A(2,10,3)             103.6706         estimate D2E/DX2                !
 ! A37   A(2,11,12)            122.0989         estimate D2E/DX2                !
 ! A38   A(2,11,13)            106.6363         estimate D2E/DX2                !
 ! A39   A(12,11,13)           131.2648         estimate D2E/DX2                !
 ! A40   A(3,13,11)            106.6338         estimate D2E/DX2                !
 ! A41   A(3,13,14)            122.1016         estimate D2E/DX2                !
 ! A42   A(11,13,14)           131.2645         estimate D2E/DX2                !
 ! A43   A(2,15,16)            119.1193         estimate D2E/DX2                !
 ! A44   A(2,15,22)            119.1738         estimate D2E/DX2                !
 ! A45   A(16,15,22)           121.6556         estimate D2E/DX2                !
 ! A46   A(15,16,17)           118.2696         estimate D2E/DX2                !
 ! A47   A(15,16,23)           120.2345         estimate D2E/DX2                !
 ! A48   A(17,16,23)           121.3737         estimate D2E/DX2                !
 ! A49   A(16,17,18)           119.9033         estimate D2E/DX2                !
 ! A50   A(16,17,19)           120.7588         estimate D2E/DX2                !
 ! A51   A(18,17,19)           119.3373         estimate D2E/DX2                !
 ! A52   A(17,19,20)           120.269          estimate D2E/DX2                !
 ! A53   A(17,19,47)           119.8581         estimate D2E/DX2                !
 ! A54   A(20,19,47)           119.8713         estimate D2E/DX2                !
 ! A55   A(19,20,21)           119.3597         estimate D2E/DX2                !
 ! A56   A(19,20,22)           120.7474         estimate D2E/DX2                !
 ! A57   A(21,20,22)           119.8926         estimate D2E/DX2                !
 ! A58   A(15,22,20)           118.2892         estimate D2E/DX2                !
 ! A59   A(15,22,27)           120.3014         estimate D2E/DX2                !
 ! A60   A(20,22,27)           121.299          estimate D2E/DX2                !
 ! A61   A(16,23,24)           108.7536         estimate D2E/DX2                !
 ! A62   A(16,23,25)           107.5139         estimate D2E/DX2                !
 ! A63   A(16,23,26)           113.5237         estimate D2E/DX2                !
 ! A64   A(24,23,25)           108.065          estimate D2E/DX2                !
 ! A65   A(24,23,26)           107.6792         estimate D2E/DX2                !
 ! A66   A(25,23,26)           111.1608         estimate D2E/DX2                !
 ! A67   A(23,25,57)           110.7202         estimate D2E/DX2                !
 ! A68   A(23,25,58)           110.2811         estimate D2E/DX2                !
 ! A69   A(23,25,59)           109.1186         estimate D2E/DX2                !
 ! A70   A(57,25,58)           108.8626         estimate D2E/DX2                !
 ! A71   A(57,25,59)           109.1873         estimate D2E/DX2                !
 ! A72   A(58,25,59)           108.6338         estimate D2E/DX2                !
 ! A73   A(23,26,54)           110.7767         estimate D2E/DX2                !
 ! A74   A(23,26,55)           111.418          estimate D2E/DX2                !
 ! A75   A(23,26,56)           109.6147         estimate D2E/DX2                !
 ! A76   A(54,26,55)           108.7076         estimate D2E/DX2                !
 ! A77   A(54,26,56)           108.4478         estimate D2E/DX2                !
 ! A78   A(55,26,56)           107.7801         estimate D2E/DX2                !
 ! A79   A(22,27,28)           108.7426         estimate D2E/DX2                !
 ! A80   A(22,27,29)           107.5753         estimate D2E/DX2                !
 ! A81   A(22,27,30)           113.4109         estimate D2E/DX2                !
 ! A82   A(28,27,29)           108.077          estimate D2E/DX2                !
 ! A83   A(28,27,30)           107.7204         estimate D2E/DX2                !
 ! A84   A(29,27,30)           111.1737         estimate D2E/DX2                !
 ! A85   A(27,29,51)           109.0712         estimate D2E/DX2                !
 ! A86   A(27,29,52)           110.1872         estimate D2E/DX2                !
 ! A87   A(27,29,53)           110.7185         estimate D2E/DX2                !
 ! A88   A(51,29,52)           108.6692         estimate D2E/DX2                !
 ! A89   A(51,29,53)           109.1649         estimate D2E/DX2                !
 ! A90   A(52,29,53)           108.9938         estimate D2E/DX2                !
 ! A91   A(27,30,48)           109.637          estimate D2E/DX2                !
 ! A92   A(27,30,49)           111.436          estimate D2E/DX2                !
 ! A93   A(27,30,50)           110.7466         estimate D2E/DX2                !
 ! A94   A(48,30,49)           107.8018         estimate D2E/DX2                !
 ! A95   A(48,30,50)           108.4526         estimate D2E/DX2                !
 ! A96   A(49,30,50)           108.6717         estimate D2E/DX2                !
 ! A97   A(3,31,32)            119.1269         estimate D2E/DX2                !
 ! A98   A(3,31,38)            119.1653         estimate D2E/DX2                !
 ! A99   A(32,31,38)           121.6576         estimate D2E/DX2                !
 ! A100  A(31,32,33)           118.2663         estimate D2E/DX2                !
 ! A101  A(31,32,39)           120.2363         estimate D2E/DX2                !
 ! A102  A(33,32,39)           121.3798         estimate D2E/DX2                !
 ! A103  A(32,33,34)           119.9035         estimate D2E/DX2                !
 ! A104  A(32,33,35)           120.7594         estimate D2E/DX2                !
 ! A105  A(34,33,35)           119.3365         estimate D2E/DX2                !
 ! A106  A(33,35,36)           120.2703         estimate D2E/DX2                !
 ! A107  A(33,35,81)           119.8571         estimate D2E/DX2                !
 ! A108  A(36,35,81)           119.8713         estimate D2E/DX2                !
 ! A109  A(35,36,37)           119.3617         estimate D2E/DX2                !
 ! A110  A(35,36,38)           120.7464         estimate D2E/DX2                !
 ! A111  A(37,36,38)           119.8916         estimate D2E/DX2                !
 ! A112  A(31,38,36)           118.288          estimate D2E/DX2                !
 ! A113  A(31,38,43)           120.3103         estimate D2E/DX2                !
 ! A114  A(36,38,43)           121.2948         estimate D2E/DX2                !
 ! A115  A(32,39,40)           108.738          estimate D2E/DX2                !
 ! A116  A(32,39,41)           107.5544         estimate D2E/DX2                !
 ! A117  A(32,39,42)           113.5121         estimate D2E/DX2                !
 ! A118  A(40,39,41)           108.0662         estimate D2E/DX2                !
 ! A119  A(40,39,42)           107.6755         estimate D2E/DX2                !
 ! A120  A(41,39,42)           111.15           estimate D2E/DX2                !
 ! A121  A(39,41,60)           110.2809         estimate D2E/DX2                !
 ! A122  A(39,41,61)           110.715          estimate D2E/DX2                !
 ! A123  A(39,41,62)           109.123          estimate D2E/DX2                !
 ! A124  A(60,41,61)           108.8624         estimate D2E/DX2                !
 ! A125  A(60,41,62)           108.6345         estimate D2E/DX2                !
 ! A126  A(61,41,62)           109.1879         estimate D2E/DX2                !
 ! A127  A(39,42,63)           111.414          estimate D2E/DX2                !
 ! A128  A(39,42,64)           110.7791         estimate D2E/DX2                !
 ! A129  A(39,42,65)           109.6144         estimate D2E/DX2                !
 ! A130  A(63,42,64)           108.7084         estimate D2E/DX2                !
 ! A131  A(63,42,65)           107.7787         estimate D2E/DX2                !
 ! A132  A(64,42,65)           108.4503         estimate D2E/DX2                !
 ! A133  A(38,43,44)           108.7365         estimate D2E/DX2                !
 ! A134  A(38,43,45)           107.6009         estimate D2E/DX2                !
 ! A135  A(38,43,46)           113.3959         estimate D2E/DX2                !
 ! A136  A(44,43,45)           108.0738         estimate D2E/DX2                !
 ! A137  A(44,43,46)           107.7138         estimate D2E/DX2                !
 ! A138  A(45,43,46)           111.179          estimate D2E/DX2                !
 ! A139  A(43,45,69)           109.0637         estimate D2E/DX2                !
 ! A140  A(43,45,70)           110.718          estimate D2E/DX2                !
 ! A141  A(43,45,71)           110.1859         estimate D2E/DX2                !
 ! A142  A(69,45,70)           109.1678         estimate D2E/DX2                !
 ! A143  A(69,45,71)           108.6768         estimate D2E/DX2                !
 ! A144  A(70,45,71)           108.9928         estimate D2E/DX2                !
 ! A145  A(43,46,66)           111.4383         estimate D2E/DX2                !
 ! A146  A(43,46,67)           109.6383         estimate D2E/DX2                !
 ! A147  A(43,46,68)           110.7441         estimate D2E/DX2                !
 ! A148  A(66,46,67)           107.8024         estimate D2E/DX2                !
 ! A149  A(66,46,68)           108.6691         estimate D2E/DX2                !
 ! A150  A(67,46,68)           108.4535         estimate D2E/DX2                !
 ! A151  A(9,77,78)            111.1138         estimate D2E/DX2                !
 ! A152  A(9,77,79)            111.1176         estimate D2E/DX2                !
 ! A153  A(9,77,80)            109.3849         estimate D2E/DX2                !
 ! A154  A(78,77,79)           108.8716         estimate D2E/DX2                !
 ! A155  A(78,77,80)           108.1283         estimate D2E/DX2                !
 ! A156  A(79,77,80)           108.1293         estimate D2E/DX2                !
 ! D1    D(7,1,5,4)            -98.2542         estimate D2E/DX2                !
 ! D2    D(7,1,5,74)           143.497          estimate D2E/DX2                !
 ! D3    D(10,1,5,4)           116.376          estimate D2E/DX2                !
 ! D4    D(10,1,5,74)           -1.8728         estimate D2E/DX2                !
 ! D5    D(10,1,6,73)            0.2064         estimate D2E/DX2                !
 ! D6    D(5,1,7,8)             98.2566         estimate D2E/DX2                !
 ! D7    D(5,1,7,72)          -143.493          estimate D2E/DX2                !
 ! D8    D(10,1,7,8)          -116.1896         estimate D2E/DX2                !
 ! D9    D(10,1,7,72)            2.0608         estimate D2E/DX2                !
 ! D10   D(5,1,10,2)           -27.7962         estimate D2E/DX2                !
 ! D11   D(5,1,10,3)           151.0859         estimate D2E/DX2                !
 ! D12   D(6,1,10,2)           -89.6616         estimate D2E/DX2                !
 ! D13   D(6,1,10,3)            89.2205         estimate D2E/DX2                !
 ! D14   D(7,1,10,2)          -151.3612         estimate D2E/DX2                !
 ! D15   D(7,1,10,3)            27.5209         estimate D2E/DX2                !
 ! D16   D(11,2,10,1)          179.1218         estimate D2E/DX2                !
 ! D17   D(11,2,10,3)            0.0271         estimate D2E/DX2                !
 ! D18   D(15,2,10,1)           -0.7075         estimate D2E/DX2                !
 ! D19   D(15,2,10,3)         -179.8022         estimate D2E/DX2                !
 ! D20   D(10,2,11,12)         179.9122         estimate D2E/DX2                !
 ! D21   D(10,2,11,13)          -0.0147         estimate D2E/DX2                !
 ! D22   D(15,2,11,12)          -0.2505         estimate D2E/DX2                !
 ! D23   D(15,2,11,13)         179.8227         estimate D2E/DX2                !
 ! D24   D(10,2,15,16)          93.4404         estimate D2E/DX2                !
 ! D25   D(10,2,15,22)         -89.122          estimate D2E/DX2                !
 ! D26   D(11,2,15,16)         -86.3719         estimate D2E/DX2                !
 ! D27   D(11,2,15,22)          91.0657         estimate D2E/DX2                !
 ! D28   D(13,3,10,1)         -179.1261         estimate D2E/DX2                !
 ! D29   D(13,3,10,2)           -0.03           estimate D2E/DX2                !
 ! D30   D(31,3,10,1)            0.7427         estimate D2E/DX2                !
 ! D31   D(31,3,10,2)          179.8388         estimate D2E/DX2                !
 ! D32   D(10,3,13,11)           0.0222         estimate D2E/DX2                !
 ! D33   D(10,3,13,14)        -179.9031         estimate D2E/DX2                !
 ! D34   D(31,3,13,11)        -179.8526         estimate D2E/DX2                !
 ! D35   D(31,3,13,14)           0.2221         estimate D2E/DX2                !
 ! D36   D(10,3,31,32)         -93.4385         estimate D2E/DX2                !
 ! D37   D(10,3,31,38)          89.0961         estimate D2E/DX2                !
 ! D38   D(13,3,31,32)          86.4171         estimate D2E/DX2                !
 ! D39   D(13,3,31,38)         -91.0482         estimate D2E/DX2                !
 ! D40   D(9,4,5,1)             56.3555         estimate D2E/DX2                !
 ! D41   D(9,4,5,6)             -0.1847         estimate D2E/DX2                !
 ! D42   D(9,4,5,74)          -174.8205         estimate D2E/DX2                !
 ! D43   D(75,4,5,1)          -127.8367         estimate D2E/DX2                !
 ! D44   D(75,4,5,6)           175.6231         estimate D2E/DX2                !
 ! D45   D(75,4,5,74)            0.9873         estimate D2E/DX2                !
 ! D46   D(5,4,9,8)             -1.4178         estimate D2E/DX2                !
 ! D47   D(5,4,9,77)           173.2069         estimate D2E/DX2                !
 ! D48   D(75,4,9,8)          -177.234          estimate D2E/DX2                !
 ! D49   D(75,4,9,77)           -2.6093         estimate D2E/DX2                !
 ! D50   D(4,5,6,7)              1.8035         estimate D2E/DX2                !
 ! D51   D(4,5,6,73)          -173.2629         estimate D2E/DX2                !
 ! D52   D(74,5,6,7)           176.4111         estimate D2E/DX2                !
 ! D53   D(74,5,6,73)            1.3447         estimate D2E/DX2                !
 ! D54   D(5,6,7,8)             -1.807          estimate D2E/DX2                !
 ! D55   D(5,6,7,72)          -176.4311         estimate D2E/DX2                !
 ! D56   D(73,6,7,8)           173.2593         estimate D2E/DX2                !
 ! D57   D(73,6,7,72)           -1.3648         estimate D2E/DX2                !
 ! D58   D(1,7,8,9)            -56.328          estimate D2E/DX2                !
 ! D59   D(1,7,8,76)           127.8531         estimate D2E/DX2                !
 ! D60   D(6,7,8,9)              0.1918         estimate D2E/DX2                !
 ! D61   D(6,7,8,76)          -175.6271         estimate D2E/DX2                !
 ! D62   D(72,7,8,9)           174.8443         estimate D2E/DX2                !
 ! D63   D(72,7,8,76)           -0.9746         estimate D2E/DX2                !
 ! D64   D(7,8,9,4)              1.4143         estimate D2E/DX2                !
 ! D65   D(7,8,9,77)          -173.2101         estimate D2E/DX2                !
 ! D66   D(76,8,9,4)           177.2413         estimate D2E/DX2                !
 ! D67   D(76,8,9,77)            2.617          estimate D2E/DX2                !
 ! D68   D(4,9,77,78)           32.0295         estimate D2E/DX2                !
 ! D69   D(4,9,77,79)          153.417          estimate D2E/DX2                !
 ! D70   D(4,9,77,80)          -87.275          estimate D2E/DX2                !
 ! D71   D(8,9,77,78)         -153.4354         estimate D2E/DX2                !
 ! D72   D(8,9,77,79)          -32.048          estimate D2E/DX2                !
 ! D73   D(8,9,77,80)           87.2601         estimate D2E/DX2                !
 ! D74   D(2,11,13,3)           -0.0044         estimate D2E/DX2                !
 ! D75   D(2,11,13,14)         179.9114         estimate D2E/DX2                !
 ! D76   D(12,11,13,3)        -179.922          estimate D2E/DX2                !
 ! D77   D(12,11,13,14)         -0.0062         estimate D2E/DX2                !
 ! D78   D(2,15,16,17)         178.4609         estimate D2E/DX2                !
 ! D79   D(2,15,16,23)          -5.5035         estimate D2E/DX2                !
 ! D80   D(22,15,16,17)          1.0893         estimate D2E/DX2                !
 ! D81   D(22,15,16,23)        177.1249         estimate D2E/DX2                !
 ! D82   D(2,15,22,20)        -178.5034         estimate D2E/DX2                !
 ! D83   D(2,15,22,27)           5.267          estimate D2E/DX2                !
 ! D84   D(16,15,22,20)         -1.1332         estimate D2E/DX2                !
 ! D85   D(16,15,22,27)       -177.3628         estimate D2E/DX2                !
 ! D86   D(15,16,17,18)        179.0378         estimate D2E/DX2                !
 ! D87   D(15,16,17,19)         -0.6916         estimate D2E/DX2                !
 ! D88   D(23,16,17,18)          3.0495         estimate D2E/DX2                !
 ! D89   D(23,16,17,19)       -176.6799         estimate D2E/DX2                !
 ! D90   D(15,16,23,24)         27.4058         estimate D2E/DX2                !
 ! D91   D(15,16,23,25)        -89.3727         estimate D2E/DX2                !
 ! D92   D(15,16,23,26)        147.2458         estimate D2E/DX2                !
 ! D93   D(17,16,23,24)       -156.6839         estimate D2E/DX2                !
 ! D94   D(17,16,23,25)         86.5376         estimate D2E/DX2                !
 ! D95   D(17,16,23,26)        -36.8439         estimate D2E/DX2                !
 ! D96   D(16,17,19,20)          0.3676         estimate D2E/DX2                !
 ! D97   D(16,17,19,47)        179.9084         estimate D2E/DX2                !
 ! D98   D(18,17,19,20)       -179.3634         estimate D2E/DX2                !
 ! D99   D(18,17,19,47)          0.1775         estimate D2E/DX2                !
 ! D100  D(17,19,20,21)        179.386          estimate D2E/DX2                !
 ! D101  D(17,19,20,22)         -0.4132         estimate D2E/DX2                !
 ! D102  D(47,19,20,21)         -0.1548         estimate D2E/DX2                !
 ! D103  D(47,19,20,22)       -179.954          estimate D2E/DX2                !
 ! D104  D(19,20,22,15)          0.7806         estimate D2E/DX2                !
 ! D105  D(19,20,22,27)        176.9708         estimate D2E/DX2                !
 ! D106  D(21,20,22,15)       -179.0175         estimate D2E/DX2                !
 ! D107  D(21,20,22,27)         -2.8273         estimate D2E/DX2                !
 ! D108  D(15,22,27,28)        -25.7132         estimate D2E/DX2                !
 ! D109  D(15,22,27,29)         91.1069         estimate D2E/DX2                !
 ! D110  D(15,22,27,30)       -145.5254         estimate D2E/DX2                !
 ! D111  D(20,22,27,28)        158.1726         estimate D2E/DX2                !
 ! D112  D(20,22,27,29)        -85.0073         estimate D2E/DX2                !
 ! D113  D(20,22,27,30)         38.3604         estimate D2E/DX2                !
 ! D114  D(16,23,25,57)        177.0642         estimate D2E/DX2                !
 ! D115  D(16,23,25,58)        -62.3859         estimate D2E/DX2                !
 ! D116  D(16,23,25,59)         56.864          estimate D2E/DX2                !
 ! D117  D(24,23,25,57)         59.8359         estimate D2E/DX2                !
 ! D118  D(24,23,25,58)       -179.6142         estimate D2E/DX2                !
 ! D119  D(24,23,25,59)        -60.3643         estimate D2E/DX2                !
 ! D120  D(26,23,25,57)        -58.1198         estimate D2E/DX2                !
 ! D121  D(26,23,25,58)         62.4302         estimate D2E/DX2                !
 ! D122  D(26,23,25,59)       -178.3199         estimate D2E/DX2                !
 ! D123  D(16,23,26,54)        -50.6259         estimate D2E/DX2                !
 ! D124  D(16,23,26,55)         70.5266         estimate D2E/DX2                !
 ! D125  D(16,23,26,56)       -170.2632         estimate D2E/DX2                !
 ! D126  D(24,23,26,54)         69.823          estimate D2E/DX2                !
 ! D127  D(24,23,26,55)       -169.0245         estimate D2E/DX2                !
 ! D128  D(24,23,26,56)        -49.8143         estimate D2E/DX2                !
 ! D129  D(25,23,26,54)       -171.9881         estimate D2E/DX2                !
 ! D130  D(25,23,26,55)        -50.8356         estimate D2E/DX2                !
 ! D131  D(25,23,26,56)         68.3746         estimate D2E/DX2                !
 ! D132  D(22,27,29,51)        -57.5523         estimate D2E/DX2                !
 ! D133  D(22,27,29,52)         61.6551         estimate D2E/DX2                !
 ! D134  D(22,27,29,53)       -177.6935         estimate D2E/DX2                !
 ! D135  D(28,27,29,51)         59.7019         estimate D2E/DX2                !
 ! D136  D(28,27,29,52)        178.9094         estimate D2E/DX2                !
 ! D137  D(28,27,29,53)        -60.4393         estimate D2E/DX2                !
 ! D138  D(30,27,29,51)        177.7225         estimate D2E/DX2                !
 ! D139  D(30,27,29,52)        -63.07           estimate D2E/DX2                !
 ! D140  D(30,27,29,53)         57.5813         estimate D2E/DX2                !
 ! D141  D(22,27,30,48)        170.351          estimate D2E/DX2                !
 ! D142  D(22,27,30,49)        -70.386          estimate D2E/DX2                !
 ! D143  D(22,27,30,50)         50.7123         estimate D2E/DX2                !
 ! D144  D(28,27,30,48)         49.9579         estimate D2E/DX2                !
 ! D145  D(28,27,30,49)        169.2209         estimate D2E/DX2                !
 ! D146  D(28,27,30,50)        -69.6807         estimate D2E/DX2                !
 ! D147  D(29,27,30,48)        -68.2781         estimate D2E/DX2                !
 ! D148  D(29,27,30,49)         50.9849         estimate D2E/DX2                !
 ! D149  D(29,27,30,50)        172.0832         estimate D2E/DX2                !
 ! D150  D(3,31,32,33)        -178.6015         estimate D2E/DX2                !
 ! D151  D(3,31,32,39)           5.2859         estimate D2E/DX2                !
 ! D152  D(38,31,32,33)         -1.2018         estimate D2E/DX2                !
 ! D153  D(38,31,32,39)       -177.3144         estimate D2E/DX2                !
 ! D154  D(3,31,38,36)         178.6438         estimate D2E/DX2                !
 ! D155  D(3,31,38,43)          -5.0663         estimate D2E/DX2                !
 ! D156  D(32,31,38,36)          1.2451         estimate D2E/DX2                !
 ! D157  D(32,31,38,43)        177.5349         estimate D2E/DX2                !
 ! D158  D(31,32,33,34)       -179.0124         estimate D2E/DX2                !
 ! D159  D(31,32,33,35)          0.7164         estimate D2E/DX2                !
 ! D160  D(39,32,33,34)         -2.9464         estimate D2E/DX2                !
 ! D161  D(39,32,33,35)        176.7824         estimate D2E/DX2                !
 ! D162  D(31,32,39,40)        -27.4292         estimate D2E/DX2                !
 ! D163  D(31,32,39,41)         89.3644         estimate D2E/DX2                !
 ! D164  D(31,32,39,42)       -147.2461         estimate D2E/DX2                !
 ! D165  D(33,32,39,40)        156.5815         estimate D2E/DX2                !
 ! D166  D(33,32,39,41)        -86.6249         estimate D2E/DX2                !
 ! D167  D(33,32,39,42)         36.7645         estimate D2E/DX2                !
 ! D168  D(32,33,35,36)         -0.3066         estimate D2E/DX2                !
 ! D169  D(32,33,35,81)       -179.874          estimate D2E/DX2                !
 ! D170  D(34,33,35,36)        179.4237         estimate D2E/DX2                !
 ! D171  D(34,33,35,81)         -0.1437         estimate D2E/DX2                !
 ! D172  D(33,35,36,37)       -179.4417         estimate D2E/DX2                !
 ! D173  D(33,35,36,38)          0.3515         estimate D2E/DX2                !
 ! D174  D(81,35,36,37)          0.1257         estimate D2E/DX2                !
 ! D175  D(81,35,36,38)        179.9188         estimate D2E/DX2                !
 ! D176  D(35,36,38,31)         -0.8041         estimate D2E/DX2                !
 ! D177  D(35,36,38,43)       -177.0557         estimate D2E/DX2                !
 ! D178  D(37,36,38,31)        178.988          estimate D2E/DX2                !
 ! D179  D(37,36,38,43)          2.7364         estimate D2E/DX2                !
 ! D180  D(31,38,43,44)         25.5803         estimate D2E/DX2                !
 ! D181  D(31,38,43,45)        -91.2466         estimate D2E/DX2                !
 ! D182  D(31,38,43,46)        145.3703         estimate D2E/DX2                !
 ! D183  D(36,38,43,44)       -158.2432         estimate D2E/DX2                !
 ! D184  D(36,38,43,45)         84.9299         estimate D2E/DX2                !
 ! D185  D(36,38,43,46)        -38.4532         estimate D2E/DX2                !
 ! D186  D(32,39,41,60)         62.472          estimate D2E/DX2                !
 ! D187  D(32,39,41,61)       -176.982          estimate D2E/DX2                !
 ! D188  D(32,39,41,62)        -56.7814         estimate D2E/DX2                !
 ! D189  D(40,39,41,60)        179.704          estimate D2E/DX2                !
 ! D190  D(40,39,41,61)        -59.75           estimate D2E/DX2                !
 ! D191  D(40,39,41,62)         60.4506         estimate D2E/DX2                !
 ! D192  D(42,39,41,60)        -62.3503         estimate D2E/DX2                !
 ! D193  D(42,39,41,61)         58.1957         estimate D2E/DX2                !
 ! D194  D(42,39,41,62)        178.3963         estimate D2E/DX2                !
 ! D195  D(32,39,42,63)        -70.5699         estimate D2E/DX2                !
 ! D196  D(32,39,42,64)         50.5826         estimate D2E/DX2                !
 ! D197  D(32,39,42,65)        170.2243         estimate D2E/DX2                !
 ! D198  D(40,39,42,63)        169.0107         estimate D2E/DX2                !
 ! D199  D(40,39,42,64)        -69.8369         estimate D2E/DX2                !
 ! D200  D(40,39,42,65)         49.8049         estimate D2E/DX2                !
 ! D201  D(41,39,42,63)         50.8287         estimate D2E/DX2                !
 ! D202  D(41,39,42,64)        171.9812         estimate D2E/DX2                !
 ! D203  D(41,39,42,65)        -68.3771         estimate D2E/DX2                !
 ! D204  D(38,43,45,69)         57.5005         estimate D2E/DX2                !
 ! D205  D(38,43,45,70)        177.6402         estimate D2E/DX2                !
 ! D206  D(38,43,45,71)        -61.7109         estimate D2E/DX2                !
 ! D207  D(44,43,45,69)        -59.7584         estimate D2E/DX2                !
 ! D208  D(44,43,45,70)         60.3814         estimate D2E/DX2                !
 ! D209  D(44,43,45,71)       -178.9697         estimate D2E/DX2                !
 ! D210  D(46,43,45,69)       -177.7721         estimate D2E/DX2                !
 ! D211  D(46,43,45,70)        -57.6323         estimate D2E/DX2                !
 ! D212  D(46,43,45,71)         63.0166         estimate D2E/DX2                !
 ! D213  D(38,43,46,66)         70.3756         estimate D2E/DX2                !
 ! D214  D(38,43,46,67)       -170.3584         estimate D2E/DX2                !
 ! D215  D(38,43,46,68)        -50.7194         estimate D2E/DX2                !
 ! D216  D(44,43,46,66)       -169.253          estimate D2E/DX2                !
 ! D217  D(44,43,46,67)        -49.987          estimate D2E/DX2                !
 ! D218  D(44,43,46,68)         69.652          estimate D2E/DX2                !
 ! D219  D(45,43,46,66)        -51.0218         estimate D2E/DX2                !
 ! D220  D(45,43,46,67)         68.2441         estimate D2E/DX2                !
 ! D221  D(45,43,46,68)       -172.1168         estimate D2E/DX2                !
 --------------------------------------------------------------------------------
 Trust Radius=3.00D-01 FncErr=1.00D-07 GrdErr=1.00D-06 EigMax=2.50D+02 EigMin=1.00D-04
 Number of steps in this run=    473 maximum allowed number of steps=    486.
 GradGradGradGradGradGradGradGradGradGradGradGradGradGradGradGradGradGrad

 Stoichiometry    C34H44N2Ni
 Framework group  C1[X(C34H44N2Ni)]
 Deg. of freedom   237
 Full point group                 C1      NOp   1
 Largest Abelian subgroup         C1      NOp   1
 Largest concise Abelian subgroup C1      NOp   1
                         Standard orientation:                         
 ---------------------------------------------------------------------
 Center     Atomic      Atomic             Coordinates (Angstroms)
 Number     Number       Type             X           Y           Z
 ---------------------------------------------------------------------
      1         28           0        0.002633   -0.480622    1.328658
      2          7           0       -1.071516    0.675792   -1.337167
      3          7           0        1.064666    0.678144   -1.339390
      4          6           0       -1.195902   -1.893686    2.743063
      5          6           0       -1.199699   -0.560707    3.161485
      6          6           0        0.010973    0.107827    3.385956
      7          6           0        1.221396   -0.557667    3.151415
      8          6           0        1.217445   -1.890643    2.733107
      9          6           0        0.010810   -2.577131    2.538983
     10          6           0       -0.002277    0.335949   -0.571229
     11          6           0       -0.680658    1.209553   -2.538667
     12          1           0       -1.388086    1.534441   -3.274098
     13          6           0        0.670230    1.210976   -2.540086
     14          1           0        1.375425    1.537276   -3.277040
     15          6           0       -2.441108    0.522737   -0.985123
     16          6           0       -3.113549    1.592544   -0.389523
     17          6           0       -4.457798    1.435154   -0.082978
     18          1           0       -4.998639    2.238427    0.391406
     19          6           0       -5.115337    0.255336   -0.373533
     20          6           0       -4.437946   -0.790865   -0.969063
     21          1           0       -4.963128   -1.708770   -1.180304
     22          6           0       -3.093373   -0.673090   -1.292424
     23          6           0       -2.363131    2.846370   -0.011997
     24          1           0       -1.498580    2.952197   -0.675052
     25          6           0       -1.846110    2.661158    1.415707
     26          6           0       -3.200571    4.118674   -0.134711
     27          6           0       -2.324403   -1.830280   -1.881026
     28          1           0       -1.447846   -1.438887   -2.407001
     29          6           0       -1.833661   -2.696675   -0.720360
     30          6           0       -3.136794   -2.653959   -2.879724
     31          6           0        2.434993    0.526984   -0.989471
     32          6           0        3.106857    1.597399   -0.394287
     33          6           0        4.451047    1.440597   -0.087210
     34          1           0        4.991392    2.244161    0.387243
     35          6           0        5.109180    0.260986   -0.377305
     36          6           0        4.432777   -0.785155   -0.974045
     37          1           0        4.958619   -1.702584   -1.185739
     38          6           0        3.088280   -0.667978   -1.297943
     39          6           0        2.356227    2.851905   -0.019346
     40          1           0        1.492900    2.957091   -0.684136
     41          6           0        1.836604    2.669512    1.407724
     42          6           0        3.194408    4.123690   -0.142598
     43          6           0        2.320894   -1.824665   -1.889661
     44          1           0        1.443593   -1.432996   -2.414188
     45          6           0        1.831740   -2.695661   -0.731853
     46          6           0        3.134383   -2.643638   -2.891360
     47          1           0       -6.161815    0.148006   -0.127159
     48          1           0       -2.483176   -3.358410   -3.389970
     49          1           0       -3.916852   -3.224671   -2.382413
     50          1           0       -3.598114   -2.009856   -3.625535
     51          1           0       -1.221203   -2.080975   -0.046496
     52          1           0       -2.680183   -3.089043   -0.160615
     53          1           0       -1.235948   -3.527550   -1.086586
     54          1           0       -3.680192    4.172514   -1.109941
     55          1           0       -3.967635    4.164673    0.634067
     56          1           0       -2.559994    4.990291   -0.017479
     57          1           0       -1.250979    3.517275    1.723341
     58          1           0       -2.678748    2.545224    2.106231
     59          1           0       -1.226707    1.757481    1.458928
     60          1           0        2.667998    2.555876    2.100126
     61          1           0        1.240205    3.525897    1.712184
     62          1           0        1.217852    1.765480    1.451873
     63          1           0        3.959949    4.170655    0.627645
     64          1           0        3.675996    4.175706   -1.116959
     65          1           0        2.553945    4.995750   -0.028053
     66          1           0        3.915878   -3.214324   -2.396288
     67          1           0        2.481900   -3.347802   -3.403461
     68          1           0        3.594015   -1.996270   -3.635388
     69          1           0        1.219283   -2.082894   -0.055490
     70          1           0        1.234485   -3.525724   -1.100686
     71          1           0        2.679007   -3.089345   -0.174177
     72          1           0        2.162038   -0.070436    3.376405
     73          1           0        0.011476    1.103417    3.813749
     74          1           0       -2.139610   -0.075887    3.394628
     75          1           0       -2.133399   -2.425750    2.639999
     76          1           0        2.155411   -2.420283    2.622196
     77          6           0        0.011350   -4.047405    2.237797
     78          1           0       -0.875459   -4.332657    1.676454
     79          1           0        0.893985   -4.330517    1.668865
     80          1           0        0.016036   -4.609158    3.174122
     81          1           0        6.155467    0.153939   -0.130001
 ---------------------------------------------------------------------
 Rotational constants (GHZ):           0.1332296           0.0967671           0.0878559
 Standard basis: def2SVP (5D, 7F)
 There are   796 symmetry adapted cartesian basis functions of A   symmetry.
 There are   755 symmetry adapted basis functions of A   symmetry.
   755 basis functions,  1289 primitive gaussians,   796 cartesian basis functions
   145 alpha electrons      145 beta electrons
       nuclear repulsion energy      5219.5045581663 Hartrees.
 NAtoms=   81 NActive=   81 NUniq=   81 SFac= 1.00D+00 NAtFMM=   60 NAOKFM=T Big=T
 Integral buffers will be    131072 words long.
 Raffenetti 2 integral format.
 Two-electron integral symmetry is turned on.
 One-electron integrals computed using PRISM.
   1 Symmetry operations used in ECPInt.
 ECPInt:  NShTT=   64620 NPrTT=  232861 LenC2=   57478 LenP2D=  136933.
 LDataN:  DoStor=T MaxTD1= 6 Len=  172
 NBasis=   755 RedAO= T EigKep=  1.65D-04  NBF=   755
 NBsUse=   755 1.00D-06 EigRej= -1.00D+00 NBFU=   755
 ExpMin= 3.81D-02 ExpMax= 7.11D+04 ExpMxC= 1.07D+04 IAcc=3 IRadAn=         5 AccDes= 0.00D+00
 Harris functional with IExCor= 1009 and IRadAn=       5 diagonalized for initial guess.
 HarFok:  IExCor= 1009 AccDes= 0.00D+00 IRadAn=         5 IDoV= 1 UseB2=F ITyADJ=14
 ICtDFT=  3500011 ScaDFX=  1.000000  1.000000  1.000000  1.000000
 FoFCou: FMM=F IPFlag=           0 FMFlag=      100000 FMFlg1=        2001
         NFxFlg=           0 DoJE=T BraDBF=F KetDBF=T FulRan=T
         wScrn=  0.000000 ICntrl=       500 IOpCl=  0 I1Cent=   200000004 NGrid=           0
         NMat0=    1 NMatS0=      1 NMatT0=    0 NMatD0=    1 NMtDS0=    0 NMtDT0=    0
 Petite list used in FoFCou.
 Requested convergence on RMS density matrix=1.00D-08 within 128 cycles.
 Requested convergence on MAX density matrix=1.00D-06.
 Requested convergence on             energy=1.00D-06.
 No special actions if energy rises.
 SCF Done:  E(RMN15) =  -2936.93324928     A.U. after   18 cycles
            NFock= 18  Conv=0.66D-08     -V/T= 2.0075

 **********************************************************************

            Population analysis using the SCF Density.

 **********************************************************************

 Orbital symmetries:
       Occupied  (A) (A) (A) (A) (A) (A) (A) (A) (A) (A) (A) (A)
                 (A) (A) (A) (A) (A) (A) (A) (A) (A) (A) (A) (A)
                 (A) (A) (A) (A) (A) (A) (A) (A) (A) (A) (A) (A)
                 (A) (A) (A) (A) (A) (A) (A) (A) (A) (A) (A) (A)
                 (A) (A) (A) (A) (A) (A) (A) (A) (A) (A) (A) (A)
                 (A) (A) (A) (A) (A) (A) (A) (A) (A) (A) (A) (A)
                 (A) (A) (A) (A) (A) (A) (A) (A) (A) (A) (A) (A)
                 (A) (A) (A) (A) (A) (A) (A) (A) (A) (A) (A) (A)
                 (A) (A) (A) (A) (A) (A) (A) (A) (A) (A) (A) (A)
                 (A) (A) (A) (A) (A) (A) (A) (A) (A) (A) (A) (A)
                 (A) (A) (A) (A) (A) (A) (A) (A) (A) (A) (A) (A)
                 (A) (A) (A) (A) (A) (A) (A) (A) (A) (A) (A) (A)
                 (A)
       Virtual   (A) (A) (A) (A) (A) (A) (A) (A) (A) (A) (A) (A)
                 (A) (A) (A) (A) (A) (A) (A) (A) (A) (A) (A) (A)
                 (A) (A) (A) (A) (A) (A) (A) (A) (A) (A) (A) (A)
                 (A) (A) (A) (A) (A) (A) (A) (A) (A) (A) (A) (A)
                 (A) (A) (A) (A) (A) (A) (A) (A) (A) (A) (A) (A)
                 (A) (A) (A) (A) (A) (A) (A) (A) (A) (A) (A) (A)
                 (A) (A) (A) (A) (A) (A) (A) (A) (A) (A) (A) (A)
                 (A) (A) (A) (A) (A) (A) (A) (A) (A) (A) (A) (A)
                 (A) (A) (A) (A) (A) (A) (A) (A) (A) (A) (A) (A)
                 (A) (A) (A) (A) (A) (A) (A) (A) (A) (A) (A) (A)
                 (A) (A) (A) (A) (A) (A) (A) (A) (A) (A) (A) (A)
                 (A) (A) (A) (A) (A) (A) (A) (A) (A) (A) (A) (A)
                 (A) (A) (A) (A) (A) (A) (A) (A) (A) (A) (A) (A)
                 (A) (A) (A) (A) (A) (A) (A) (A) (A) (A) (A) (A)
                 (A) (A) (A) (A) (A) (A) (A) (A) (A) (A) (A) (A)
                 (A) (A) (A) (A) (A) (A) (A) (A) (A) (A) (A) (A)
                 (A) (A) (A) (A) (A) (A) (A) (A) (A) (A) (A) (A)
                 (A) (A) (A) (A) (A) (A) (A) (A) (A) (A) (A) (A)
                 (A) (A) (A) (A) (A) (A) (A) (A) (A) (A) (A) (A)
                 (A) (A) (A) (A) (A) (A) (A) (A) (A) (A) (A) (A)
                 (A) (A) (A) (A) (A) (A) (A) (A) (A) (A) (A) (A)
                 (A) (A) (A) (A) (A) (A) (A) (A) (A) (A) (A) (A)
                 (A) (A) (A) (A) (A) (A) (A) (A) (A) (A) (A) (A)
                 (A) (A) (A) (A) (A) (A) (A) (A) (A) (A) (A) (A)
                 (A) (A) (A) (A) (A) (A) (A) (A) (A) (A) (A) (A)
                 (A) (A) (A) (A) (A) (A) (A) (A) (A) (A) (A) (A)
                 (A) (A) (A) (A) (A) (A) (A) (A) (A) (A) (A) (A)
                 (A) (A) (A) (A) (A) (A) (A) (A) (A) (A) (A) (A)
                 (A) (A) (A) (A) (A) (A) (A) (A) (A) (A) (A) (A)
                 (A) (A) (A) (A) (A) (A) (A) (A) (A) (A) (A) (A)
                 (A) (A) (A) (A) (A) (A) (A) (A) (A) (A) (A) (A)
                 (A) (A) (A) (A) (A) (A) (A) (A) (A) (A) (A) (A)
                 (A) (A) (A) (A) (A) (A) (A) (A) (A) (A) (A) (A)
                 (A) (A) (A) (A) (A) (A) (A) (A) (A) (A) (A) (A)
                 (A) (A) (A) (A) (A) (A) (A) (A) (A) (A) (A) (A)
                 (A) (A) (A) (A) (A) (A) (A) (A) (A) (A) (A) (A)
                 (A) (A) (A) (A) (A) (A) (A) (A) (A) (A) (A) (A)
                 (A) (A) (A) (A) (A) (A) (A) (A) (A) (A) (A) (A)
                 (A) (A) (A) (A) (A) (A) (A) (A) (A) (A) (A) (A)
                 (A) (A) (A) (A) (A) (A) (A) (A) (A) (A) (A) (A)
                 (A) (A) (A) (A) (A) (A) (A) (A) (A) (A) (A) (A)
                 (A) (A) (A) (A) (A) (A) (A) (A) (A) (A) (A) (A)
                 (A) (A) (A) (A) (A) (A) (A) (A) (A) (A) (A) (A)
                 (A) (A) (A) (A) (A) (A) (A) (A) (A) (A) (A) (A)
                 (A) (A) (A) (A) (A) (A) (A) (A) (A) (A) (A) (A)
                 (A) (A) (A) (A) (A) (A) (A) (A) (A) (A) (A) (A)
                 (A) (A) (A) (A) (A) (A) (A) (A) (A) (A) (A) (A)
                 (A) (A) (A) (A) (A) (A) (A) (A) (A) (A) (A) (A)
                 (A) (A) (A) (A) (A) (A) (A) (A) (A) (A) (A) (A)
                 (A) (A) (A) (A) (A) (A) (A) (A) (A) (A) (A) (A)
                 (A) (A) (A) (A) (A) (A) (A) (A) (A) (A)
 The electronic state is 1-A.
 Alpha  occ. eigenvalues -- -297.46623 -34.78607 -30.82058 -30.81704 -30.80959
 Alpha  occ. eigenvalues --  -14.15382 -14.15379 -10.08828 -10.08703 -10.08698
 Alpha  occ. eigenvalues --  -10.08656 -10.08597 -10.05691 -10.05690 -10.05676
 Alpha  occ. eigenvalues --  -10.05674 -10.05145 -10.05141 -10.05123 -10.05120
 Alpha  occ. eigenvalues --  -10.05065 -10.05063 -10.04937 -10.04598 -10.04597
 Alpha  occ. eigenvalues --  -10.04596 -10.04595 -10.04482 -10.04475 -10.04280
 Alpha  occ. eigenvalues --  -10.04169 -10.04168 -10.03764 -10.03753 -10.03751
 Alpha  occ. eigenvalues --  -10.03741 -10.03739 -10.02470 -10.02464 -10.02461
 Alpha  occ. eigenvalues --  -10.02453  -3.70803  -2.46625  -2.46159  -2.44409
 Alpha  occ. eigenvalues --   -1.07965  -0.97751  -0.91154  -0.89439  -0.89202
 Alpha  occ. eigenvalues --   -0.85421  -0.85323  -0.82742  -0.82293  -0.81163
 Alpha  occ. eigenvalues --   -0.80125  -0.78064  -0.77298  -0.76158  -0.75684
 Alpha  occ. eigenvalues --   -0.75592  -0.71633  -0.71517  -0.71291  -0.71066
 Alpha  occ. eigenvalues --   -0.71003  -0.69464  -0.66874  -0.66675  -0.66462
 Alpha  occ. eigenvalues --   -0.63132  -0.63032  -0.62684  -0.61626  -0.60960
 Alpha  occ. eigenvalues --   -0.60425  -0.58532  -0.57167  -0.56954  -0.55512
 Alpha  occ. eigenvalues --   -0.55135  -0.54851  -0.53349  -0.52842  -0.50084
 Alpha  occ. eigenvalues --   -0.49319  -0.49213  -0.49024  -0.48956  -0.48471
 Alpha  occ. eigenvalues --   -0.48257  -0.47649  -0.47590  -0.47437  -0.47066
 Alpha  occ. eigenvalues --   -0.46985  -0.46950  -0.46424  -0.45565  -0.45497
 Alpha  occ. eigenvalues --   -0.45368  -0.45110  -0.44260  -0.44013  -0.43513
 Alpha  occ. eigenvalues --   -0.42614  -0.42563  -0.42334  -0.42226  -0.41595
 Alpha  occ. eigenvalues --   -0.41280  -0.40921  -0.40897  -0.40831  -0.40829
 Alpha  occ. eigenvalues --   -0.40104  -0.39719  -0.38107  -0.37576  -0.37483
 Alpha  occ. eigenvalues --   -0.37430  -0.36911  -0.36663  -0.36642  -0.36546
 Alpha  occ. eigenvalues --   -0.36392  -0.36327  -0.35975  -0.35265  -0.35250
 Alpha  occ. eigenvalues --   -0.35139  -0.32619  -0.31357  -0.30485  -0.29445
 Alpha  occ. eigenvalues --   -0.28615  -0.28198  -0.27941  -0.27388  -0.27336
 Alpha  occ. eigenvalues --   -0.19785  -0.19712  -0.17652  -0.17292  -0.16771
 Alpha virt. eigenvalues --    0.01283   0.01866   0.01928   0.02013   0.03439
 Alpha virt. eigenvalues --    0.03532   0.05169   0.05651   0.07351   0.08612
 Alpha virt. eigenvalues --    0.09367   0.10465   0.10545   0.11117   0.11577
 Alpha virt. eigenvalues --    0.11851   0.11910   0.12827   0.12929   0.13730
 Alpha virt. eigenvalues --    0.14474   0.14633   0.14880   0.15380   0.15561
 Alpha virt. eigenvalues --    0.15835   0.16091   0.16118   0.16244   0.16526
 Alpha virt. eigenvalues --    0.16710   0.16957   0.17590   0.18010   0.18322
 Alpha virt. eigenvalues --    0.18384   0.18545   0.18862   0.19063   0.19337
 Alpha virt. eigenvalues --    0.19527   0.19778   0.20717   0.20780   0.21173
 Alpha virt. eigenvalues --    0.21502   0.21930   0.22523   0.22735   0.23178
 Alpha virt. eigenvalues --    0.23219   0.23790   0.23853   0.24107   0.24572
 Alpha virt. eigenvalues --    0.24794   0.24869   0.25520   0.25826   0.26012
 Alpha virt. eigenvalues --    0.26708   0.27017   0.27429   0.28015   0.28556
 Alpha virt. eigenvalues --    0.28600   0.29304   0.30181   0.30254   0.30460
 Alpha virt. eigenvalues --    0.30985   0.31105   0.31366   0.32750   0.33465
 Alpha virt. eigenvalues --    0.33807   0.34055   0.34277   0.34467   0.35050
 Alpha virt. eigenvalues --    0.35521   0.35948   0.36279   0.36720   0.37007
 Alpha virt. eigenvalues --    0.37245   0.37599   0.38637   0.38877   0.40121
 Alpha virt. eigenvalues --    0.40420   0.41230   0.41552   0.41797   0.41835
 Alpha virt. eigenvalues --    0.42644   0.42835   0.43268   0.43595   0.45242
 Alpha virt. eigenvalues --    0.45323   0.45574   0.45955   0.46556   0.46566
 Alpha virt. eigenvalues --    0.47255   0.47911   0.47995   0.48355   0.48418
 Alpha virt. eigenvalues --    0.48512   0.49214   0.49410   0.49632   0.49968
 Alpha virt. eigenvalues --    0.50347   0.50767   0.51224   0.52217   0.52358
 Alpha virt. eigenvalues --    0.52667   0.53180   0.53382   0.54218   0.54334
 Alpha virt. eigenvalues --    0.54811   0.55501   0.55904   0.56247   0.56784
 Alpha virt. eigenvalues --    0.56994   0.57121   0.58247   0.58464   0.58742
 Alpha virt. eigenvalues --    0.60055   0.60294   0.60455   0.60590   0.60946
 Alpha virt. eigenvalues --    0.61729   0.62326   0.63108   0.63387   0.63823
 Alpha virt. eigenvalues --    0.64370   0.64457   0.65581   0.65724   0.65993
 Alpha virt. eigenvalues --    0.66463   0.66997   0.67107   0.67538   0.67649
 Alpha virt. eigenvalues --    0.68255   0.68513   0.68595   0.68739   0.69035
 Alpha virt. eigenvalues --    0.69179   0.69392   0.69490   0.69724   0.69849
 Alpha virt. eigenvalues --    0.69880   0.70508   0.70568   0.70714   0.70923
 Alpha virt. eigenvalues --    0.71043   0.71170   0.71420   0.71504   0.72490
 Alpha virt. eigenvalues --    0.72496   0.72662   0.72818   0.72953   0.72989
 Alpha virt. eigenvalues --    0.73329   0.73627   0.73771   0.74026   0.74219
 Alpha virt. eigenvalues --    0.74373   0.74388   0.74640   0.75089   0.75506
 Alpha virt. eigenvalues --    0.75744   0.75891   0.75941   0.76277   0.76497
 Alpha virt. eigenvalues --    0.77071   0.77496   0.77933   0.78125   0.78534
 Alpha virt. eigenvalues --    0.78812   0.79075   0.79139   0.79692   0.79789
 Alpha virt. eigenvalues --    0.79938   0.80180   0.80260   0.80959   0.81238
 Alpha virt. eigenvalues --    0.81428   0.81853   0.81920   0.82950   0.83274
 Alpha virt. eigenvalues --    0.83882   0.84213   0.84242   0.84429   0.85076
 Alpha virt. eigenvalues --    0.85317   0.85451   0.85594   0.86282   0.86863
 Alpha virt. eigenvalues --    0.86970   0.87011   0.87931   0.88089   0.88224
 Alpha virt. eigenvalues --    0.91082   0.91112   0.91677   0.91771   0.92289
 Alpha virt. eigenvalues --    0.93595   0.94751   0.95098   0.95742   0.96457
 Alpha virt. eigenvalues --    0.96955   0.98888   0.99135   1.00084   1.00156
 Alpha virt. eigenvalues --    1.01620   1.01782   1.02536   1.04569   1.04972
 Alpha virt. eigenvalues --    1.05911   1.06667   1.06759   1.08798   1.09078
 Alpha virt. eigenvalues --    1.09221   1.10357   1.11748   1.12030   1.13143
 Alpha virt. eigenvalues --    1.14306   1.14487   1.14638   1.14915   1.15492
 Alpha virt. eigenvalues --    1.16009   1.16136   1.16643   1.17377   1.18276
 Alpha virt. eigenvalues --    1.19042   1.19087   1.20440   1.22611   1.22984
 Alpha virt. eigenvalues --    1.23442   1.24056   1.24595   1.24648   1.25646
 Alpha virt. eigenvalues --    1.25996   1.27715   1.27959   1.28062   1.28641
 Alpha virt. eigenvalues --    1.28731   1.28806   1.30004   1.30947   1.30960
 Alpha virt. eigenvalues --    1.32886   1.34479   1.35139   1.35878   1.36031
 Alpha virt. eigenvalues --    1.36439   1.37574   1.38179   1.39424   1.39765
 Alpha virt. eigenvalues --    1.40474   1.41242   1.42433   1.43779   1.45165
 Alpha virt. eigenvalues --    1.45203   1.46295   1.47400   1.48341   1.48598
 Alpha virt. eigenvalues --    1.48847   1.49421   1.49826   1.50285   1.51849
 Alpha virt. eigenvalues --    1.52752   1.53563   1.55460   1.57061   1.57213
 Alpha virt. eigenvalues --    1.57648   1.57676   1.58754   1.58766   1.58833
 Alpha virt. eigenvalues --    1.59302   1.59878   1.59909   1.60284   1.60835
 Alpha virt. eigenvalues --    1.61707   1.62916   1.63130   1.64619   1.64791
 Alpha virt. eigenvalues --    1.66727   1.67006   1.68512   1.68870   1.69127
 Alpha virt. eigenvalues --    1.70097   1.70966   1.71121   1.71131   1.71533
 Alpha virt. eigenvalues --    1.71602   1.71895   1.72056   1.72477   1.72763
 Alpha virt. eigenvalues --    1.73050   1.73771   1.74162   1.74953   1.75144
 Alpha virt. eigenvalues --    1.75553   1.75678   1.76008   1.76115   1.76360
 Alpha virt. eigenvalues --    1.76894   1.77090   1.77261   1.77841   1.77896
 Alpha virt. eigenvalues --    1.78272   1.79712   1.79845   1.80571   1.80593
 Alpha virt. eigenvalues --    1.80701   1.81232   1.81244   1.81328   1.81953
 Alpha virt. eigenvalues --    1.82220   1.82492   1.82593   1.83035   1.83466
 Alpha virt. eigenvalues --    1.83628   1.83654   1.84375   1.84379   1.84653
 Alpha virt. eigenvalues --    1.85084   1.85168   1.85826   1.86111   1.86178
 Alpha virt. eigenvalues --    1.87079   1.87210   1.87894   1.88088   1.88422
 Alpha virt. eigenvalues --    1.88442   1.89237   1.89346   1.89619   1.89632
 Alpha virt. eigenvalues --    1.90366   1.90473   1.90876   1.91777   1.91829
 Alpha virt. eigenvalues --    1.92017   1.92686   1.92778   1.93557   1.93752
 Alpha virt. eigenvalues --    1.93918   1.94319   1.95215   1.95280   1.95414
 Alpha virt. eigenvalues --    1.95592   1.95832   1.96258   1.96425   1.96583
 Alpha virt. eigenvalues --    1.97432   1.97493   1.98928   2.00149   2.00454
 Alpha virt. eigenvalues --    2.00465   2.01095   2.01877   2.02183   2.02377
 Alpha virt. eigenvalues --    2.02599   2.04098   2.04412   2.04447   2.05385
 Alpha virt. eigenvalues --    2.05537   2.06062   2.06581   2.07034   2.07162
 Alpha virt. eigenvalues --    2.07466   2.08007   2.08372   2.09658   2.10365
 Alpha virt. eigenvalues --    2.10442   2.10849   2.11285   2.12207   2.12225
 Alpha virt. eigenvalues --    2.13689   2.13979   2.15934   2.16702   2.17422
 Alpha virt. eigenvalues --    2.18011   2.19069   2.19290   2.19416   2.19587
 Alpha virt. eigenvalues --    2.21293   2.21858   2.22122   2.22746   2.22778
 Alpha virt. eigenvalues --    2.23505   2.23528   2.24802   2.25575   2.26027
 Alpha virt. eigenvalues --    2.27323   2.27817   2.28758   2.28931   2.29036
 Alpha virt. eigenvalues --    2.29396   2.29611   2.29780   2.29929   2.30790
 Alpha virt. eigenvalues --    2.31173   2.32224   2.32433   2.33093   2.33464
 Alpha virt. eigenvalues --    2.35209   2.35662   2.35934   2.37489   2.37654
 Alpha virt. eigenvalues --    2.37878   2.38340   2.38533   2.39313   2.39913
 Alpha virt. eigenvalues --    2.40749   2.41374   2.42116   2.42331   2.42752
 Alpha virt. eigenvalues --    2.43466   2.44215   2.44281   2.45319   2.46372
 Alpha virt. eigenvalues --    2.46508   2.47197   2.47950   2.48413   2.50215
 Alpha virt. eigenvalues --    2.50471   2.53472   2.53589   2.53752   2.54120
 Alpha virt. eigenvalues --    2.55152   2.55440   2.56118   2.56365   2.56686
 Alpha virt. eigenvalues --    2.58001   2.58509   2.59020   2.59471   2.60177
 Alpha virt. eigenvalues --    2.60935   2.61467   2.61533   2.61679   2.62163
 Alpha virt. eigenvalues --    2.62325   2.62457   2.62710   2.62877   2.62900
 Alpha virt. eigenvalues --    2.67546   2.67604   2.67943   2.68517   2.72429
 Alpha virt. eigenvalues --    2.73056   2.73319   2.74045   2.75052   2.75344
 Alpha virt. eigenvalues --    2.76100   2.76386   2.77162   2.77339   2.80453
 Alpha virt. eigenvalues --    2.80716   2.81623   2.81817   2.82847   2.82983
 Alpha virt. eigenvalues --    2.83184   2.83944   2.84411   2.84707   2.86313
 Alpha virt. eigenvalues --    2.86963   2.87489   2.87709   2.87902   2.88216
 Alpha virt. eigenvalues --    2.89893   2.90074   2.90278   2.92380   2.92555
 Alpha virt. eigenvalues --    2.92666   2.93307   2.93550   2.93771   2.95142
 Alpha virt. eigenvalues --    2.96868   2.97219   2.98684   2.98758   2.98890
 Alpha virt. eigenvalues --    3.00632   3.00982   3.01166   3.01347   3.02333
 Alpha virt. eigenvalues --    3.02820   3.03469   3.05245   3.05488   3.08154
 Alpha virt. eigenvalues --    3.08286   3.08530   3.09675   3.09812   3.17817
 Alpha virt. eigenvalues --    3.20328   3.20516   3.27666   3.27708   3.44013
 Alpha virt. eigenvalues --    3.52581   3.53133   3.54221   5.64665   5.65607
 Alpha virt. eigenvalues --    5.66290   5.66476   5.67058   5.67437   5.68163
          Condensed to atoms (all electrons):
 Mulliken charges:
               1
     1  Ni  -0.010703
     2  N   -0.156757
     3  N   -0.156831
     4  C    0.012973
     5  C    0.029272
     6  C    0.027811
     7  C    0.029192
     8  C    0.012819
     9  C   -0.127774
    10  C    0.008365
    11  C    0.098690
    12  H    0.004990
    13  C    0.099007
    14  H    0.005035
    15  C   -0.031952
    16  C    0.072082
    17  C   -0.067567
    18  H   -0.048611
    19  C    0.074900
    20  C   -0.066348
    21  H   -0.048572
    22  C    0.074334
    23  C   -0.113845
    24  H   -0.014925
    25  C    0.136429
    26  C    0.078513
    27  C   -0.106426
    28  H   -0.015424
    29  C    0.137047
    30  C    0.078657
    31  C   -0.031900
    32  C    0.072149
    33  C   -0.067677
    34  H   -0.048628
    35  C    0.074946
    36  C   -0.066350
    37  H   -0.048575
    38  C    0.074341
    39  C   -0.113926
    40  H   -0.014771
    41  C    0.136292
    42  C    0.078479
    43  C   -0.106347
    44  H   -0.015348
    45  C    0.136783
    46  C    0.078576
    47  H   -0.031698
    48  H    0.005915
    49  H    0.004572
    50  H    0.007206
    51  H   -0.013502
    52  H   -0.019917
    53  H   -0.006530
    54  H    0.006766
    55  H    0.005246
    56  H    0.006111
    57  H   -0.004952
    58  H   -0.017976
    59  H   -0.013854
    60  H   -0.017998
    61  H   -0.004867
    62  H   -0.014093
    63  H    0.005232
    64  H    0.006796
    65  H    0.006121
    66  H    0.004545
    67  H    0.005935
    68  H    0.007250
    69  H   -0.013825
    70  H   -0.006375
    71  H   -0.019869
    72  H   -0.024663
    73  H   -0.028698
    74  H   -0.024535
    75  H   -0.043306
    76  H   -0.043408
    77  C    0.124484
    78  H    0.004363
    79  H    0.004298
    80  H    0.024490
    81  H   -0.031690
 Sum of Mulliken charges =  -0.00000
 Mulliken charges with hydrogens summed into heavy atoms:
               1
     1  Ni  -0.010703
     2  N   -0.156757
     3  N   -0.156831
     4  C   -0.030333
     5  C    0.004737
     6  C   -0.000887
     7  C    0.004529
     8  C   -0.030589
     9  C   -0.127774
    10  C    0.008365
    11  C    0.103680
    13  C    0.104042
    15  C   -0.031952
    16  C    0.072082
    17  C   -0.116178
    19  C    0.043202
    20  C   -0.114919
    22  C    0.074334
    23  C   -0.128770
    25  C    0.099647
    26  C    0.096636
    27  C   -0.121850
    29  C    0.097099
    30  C    0.096350
    31  C   -0.031900
    32  C    0.072149
    33  C   -0.116305
    35  C    0.043256
    36  C   -0.114925
    38  C    0.074341
    39  C   -0.128696
    41  C    0.099334
    42  C    0.096628
    43  C   -0.121696
    45  C    0.096714
    46  C    0.096306
    77  C    0.157635
 Electronic spatial extent (au):  <R**2>=          15382.0673
 Charge=             -0.0000 electrons
 Dipole moment (field-independent basis, Debye):
    X=              0.0011    Y=              0.6022    Z=             -1.9799  Tot=              2.0694
 Quadrupole moment (field-independent basis, Debye-Ang):
   XX=           -221.3454   YY=           -225.0399   ZZ=           -231.7153
   XY=             -0.0003   XZ=             -0.0127   YZ=              0.4433
 Traceless Quadrupole moment (field-independent basis, Debye-Ang):
   XX=              4.6881   YY=              0.9936   ZZ=             -5.6817
   XY=             -0.0003   XZ=             -0.0127   YZ=              0.4433
 Octapole moment (field-independent basis, Debye-Ang**2):
  XXX=              0.0828  YYY=            -19.1881  ZZZ=              2.7758  XYY=              0.0462
  XXY=            -12.7173  XXZ=             35.3815  XZZ=             -0.1367  YZZ=              9.0574
  YYZ=             15.3157  XYZ=              0.0718
 Hexadecapole moment (field-independent basis, Debye-Ang**3):
 XXXX=          -9723.8071 YYYY=          -6522.6563 ZZZZ=          -4767.9260 XXXY=             -0.0139
 XXXZ=              0.0590 YYYX=             -0.0608 YYYZ=            -34.5455 ZZZX=             -0.5674
 ZZZY=            -16.7764 XXYY=          -2746.8757 XXZZ=          -2537.8203 YYZZ=          -1851.9625
 XXYZ=             42.3214 YYXZ=              0.0375 ZZXY=              0.1332
 N-N= 5.219504558166D+03 E-N=-1.734475693038D+04  KE= 2.915180611549D+03
   1 Symmetry operations used in ECPInt.
 ECPInt:  NShTT=   64620 NPrTT=  232861 LenC2=   57478 LenP2D=  136933.
 LDataN:  DoStor=T MaxTD1= 7 Len=  274
 Calling FoFJK, ICntrl=      2127 FMM=T ISym2X=0 I1Cent= 0 IOpClX= 0 NMat=1 NMatS=1 NMatT=0.
 ***** Axes restored to original set *****
 -------------------------------------------------------------------
 Center     Atomic                   Forces (Hartrees/Bohr)
 Number     Number              X              Y              Z
 -------------------------------------------------------------------
      1       28           0.000995868   -0.005072737   -0.003305064
      2        7          -0.001714391    0.000060501    0.003639907
      3        7           0.000532239    0.000293126    0.003972849
      4        6          -0.000208888   -0.000181648   -0.002872973
      5        6           0.002654431   -0.002036793   -0.001124135
      6        6           0.000427204   -0.003216530   -0.000355544
      7        6          -0.001704302   -0.002521924   -0.001811617
      8        6           0.001077921   -0.000034265   -0.002669388
      9        6          -0.000259095    0.005799095   -0.002479843
     10        6          -0.008071749    0.010844601    0.045706271
     11        6          -0.004026691   -0.001940065   -0.008683317
     12        1           0.009212889   -0.000951635   -0.007837962
     13        6           0.006681752   -0.000772239   -0.007090678
     14        1          -0.006121182   -0.002651598   -0.010135312
     15        6           0.002516447    0.001170728    0.003607806
     16        6          -0.006447584   -0.007076062   -0.003844645
     17        6           0.000941221   -0.001428926    0.000142074
     18        1           0.005041621   -0.008428398    0.002925521
     19        6           0.002576962    0.000667962    0.002285851
     20        6           0.000645751    0.001480148   -0.000305309
     21        1           0.003341655    0.009689988   -0.000136900
     22        6          -0.007645774    0.004103370   -0.005726446
     23        6           0.005595905   -0.004586752    0.006980101
     24        1          -0.003807197    0.000796397   -0.003498650
     25        6          -0.002664609    0.003451215   -0.009654248
     26        6          -0.007741407    0.008102559   -0.001437340
     27        6           0.004715320    0.007696716    0.004606344
     28        1          -0.003662857   -0.002694698   -0.002955945
     29        6          -0.002018610   -0.007484858   -0.008015642
     30        6          -0.006121650   -0.009292893    0.001776607
     31        6          -0.003632387    0.000507204    0.002667722
     32        6           0.008623520   -0.005420876   -0.001613724
     33        6          -0.000608393   -0.001602021   -0.000064638
     34        1          -0.003753626   -0.009397504    0.001612895
     35        6          -0.003211088    0.000036444    0.001435438
     36        6          -0.000829890    0.001319686   -0.000502531
     37        1          -0.005149261    0.008752484   -0.001407023
     38        6           0.007905817    0.005806031   -0.003428741
     39        6          -0.006240164   -0.005895093    0.005224067
[...]
 .00001828,0.00000170,0.00001688,0.00000132,0.00000208,0.00000254,-0.00
 003430,0.00000774,0.00004977,-0.00000366,0.00000347,0.00000474,0.00002
 842,0.00000718,0.00001370,0.00000391,-0.00000246,0.00000453,-0.0000068
 0,-0.00000001,-0.00001045,-0.00000100,0.00000174,0.00000047,-0.0000006
 0,0.00000340,-0.00000901,0.00000719,-0.00000102,-0.00000741,-0.0000044
 8,-0.00000285,0.00000611,0.00000847,-0.00001644,0.00002009,0.00000388,
 0.00000146,0.00000368,0.00000262,-0.00001102,-0.00000487,0.00000044,0.
 00000021,0.00000266,-0.00000189,-0.00000185,-0.00000051,-0.00004358,-0
 .00005406,-0.00001718,0.00000423,0.00000085,0.00000186,0.00002590,0.00
 019027,0.00010465,-0.00000709,0.00003157,0.00002097,-0.00008200,0.0000
 0014,0.00000857,0.00000763,0.00000936,-0.00000485,0.00000067,-0.000010
 59,0.00000581,0.00000021,-0.00000340,-0.00000057,0.00000802,0.00000807
 ,-0.00000230,0.00000055,-0.00002554,0.00000820,0.00000977,0.00000411,-
 0.00000090,0.00002980,0.00008242,-0.00003237,-0.00001218,0.00000140,-0
 .00000169,0.00000237,-0.00000546,-0.00000281,0.00000579,-0.00000353,-0
 .00000928,0.00000591,-0.00000490,0.00000415,0.00006726,0.00007184,-0.0
 0003071,-0.00000979,-0.00002566,-0.00006205,-0.00018223,-0.00030094,-0
 .00023758,0.00000149,-0.00004974,-0.00002456,-0.00000537,0.00000317,0.
 00000031,0.00000131,-0.00000114,-0.00000040,-0.00000500,-0.00000402,-0
 .00000521,-0.00001150,-0.00000914,0.00000334,0.00002043,-0.00005509,-0
 .00007591,-0.00000639,-0.00000617,-0.00002017,0.00001179,0.00000110,-0
 .00004177,0.00000077,-0.00000082,0.00000038,-0.00000087,0.00000137,0.0
 0000072,-0.00000029,-0.00000011,-0.00000092,-0.00000028,-0.00000321,-0
 .00000219,-0.00000171,0.00000090,0.00000003,0.00000299,0.00000125,-0.0
 0000223,0.00000045,0.00000442,0.00000117,0.00000149,-0.00000022,0.0000
 0352,-0.00000050,-0.00000791,0.00000368,-0.00000012,0.00000235,-0.0000
 0009,-0.00000094,0.00000114,0.00000254,0.00000140,-0.00000297,-0.00000
 159,0.00000477,0.00000569,0.00001206,0.00000350,0.00000041,0.00000556,
 -0.00001884,0.00000668,-0.00002091,-0.00016469,0.00008911,0.00008684,-
 0.00002654,0.00000868,0.00003515,0.00021920,-0.00000455,0.00003887,-0.
 00000325,-0.00001827,-0.00005972,0.00000474,-0.00001699,-0.00003504,-0
 .00001809,-0.00000098,-0.00000056,-0.00024407,-0.00007087,0.00004005,0
 .00006293,-0.00004452,-0.00034209,-0.04710446,-0.01551880,-0.02999845,
 0.00302586,0.01030123,0.01710394,-0.00147516,-0.01389328,-0.02416781,0
 .04587062,0.00016655,-0.00049275,-0.00041517,0.00035515,-0.00002321,-0
 .00010215,-0.00031330,-0.00002465,-0.00025542,-0.00138988,0.00192345,0
 .00014908,-0.00039632,-0.00098979,0.00048342,0.00010557,-0.00026520,0.
 00082842,0.00023338,-0.00079025,0.00075164,0.00117182,0.00005438,0.000
 04333,-0.00358185,-0.01756809,-0.02499208,-0.00021412,0.00023978,0.001
 29848,-0.00003233,-0.00000172,-0.00013337,-0.00000325,-0.00000317,-0.0
 0001559,0.00008567,-0.00001923,-0.00010850,0.00000960,-0.00000768,-0.0
 0001302,-0.00016942,-0.00002633,-0.00007136,0.00000352,-0.00000332,0.0
 0002466,0.00000408,0.00001115,-0.00000541,-0.00000061,-0.00000282,0.00
 000237,0.00000390,-0.00000167,0.00000482,-0.00000194,0.00001631,-0.000
 00962,0.00001214,0.00000528,0.00000192,0.00003058,-0.00004683,0.000048
 23,-0.00001713,-0.00001206,-0.00002997,0.00000649,0.00004838,0.0000247
 4,0.00000821,0.00001339,0.00000123,0.00002185,0.00000969,0.00000443,-0
 .00003034,-0.00004706,0.00000962,-0.00000882,0.00000012,0.00001477,-0.
 00007606,0.00015648,0.00003541,-0.00001997,0.00002532,0.00001127,0.000
 20201,0.00000413,-0.00001339,-0.00002722,-0.00000108,0.00000197,-0.000
 00220,0.00001067,-0.00000629,-0.00000101,-0.00000156,0.00000323,-0.000
 00534,-0.00000478,0.00000218,0.00000516,0.00002318,-0.00000828,-0.0000
 1464,0.00000084,0.00000004,-0.00002982,-0.00007960,0.00004769,0.000019
 49,0.00000177,0.00000978,-0.00000982,0.00001833,0.00001076,-0.00001292
 ,0.00001015,0.00002135,-0.00000752,0.00001109,-0.00000331,0.00005818,-
 0.00004347,0.00000771,-0.00000172,0.00000033,0.00002359,0.00004009,0.0
 0024488,0.00021124,0.00000790,0.00003800,0.00002685,0.00000751,0.00000
 103,0.00000034,0.00000203,0.00000723,-0.00000833,0.00000891,-0.0000005
 9,0.00000056,-0.00000986,-0.00000659,0.00000789,-0.00000230,-0.0001637
 1,0.00002882,0.00004142,0.00000454,0.00000236,0.00003937,0.00005171,-0
 .00006434,-0.00000653,0.00000584,-0.00000241,0.00000947,-0.00001133,-0
 .00000811,-0.00000327,-0.00000202,0.00000313,-0.00000521,0.00000700,0.
 00000240,0.00001473,-0.00001140,-0.00000584,-0.00001836,0.00000409,-0.
 00000788,-0.00001062,-0.00001404,-0.00000659,0.00000292,-0.00000251,-0
 .00000492,0.00001635,0.00002731,-0.00001209,-0.00000587,-0.00000658,0.
 00000028,0.00000203,0.00000053,-0.00000654,0.00000203,0.00000044,0.000
 00222,-0.00000932,-0.00000456,-0.00000424,-0.00000164,0.00000843,-0.00
 001125,0.00001264,-0.00000624,0.00001603,0.00011007,-0.00024836,0.0001
 1334,-0.00004217,0.00008518,-0.00011625,-0.00005492,-0.00001440,-0.000
 01925,-0.00002330,-0.00012911,0.00005937,0.00002202,-0.00001182,-0.000
 07970,0.00004570,-0.00001736,0.00001542,0.00035218,0.00002918,-0.00048
 248,-0.00007442,-0.00014183,-0.00050464,-0.01610164,-0.10388544,-0.116
 65919,0.00236503,0.00533535,0.01057650,0.00037882,0.00207039,0.0055644
 2,0.01675688,0.11462818,0.00007661,-0.00017242,0.00022225,0.00001508,-
 0.00002161,-0.00000085,0.00003583,-0.00002498,0.00000097,-0.00045091,0
 .00031057,0.00058352,0.00014099,-0.00041720,-0.00002681,0.00009309,0.0
 0025025,-0.00000467,0.00003484,-0.00008545,-0.00030741,0.00024862,0.00
 031055,-0.00009427,0.00111510,0.00272500,0.00662526,-0.00003749,0.0000
 7257,0.00001448,0.00001412,-0.00000446,-0.00000923,-0.00000012,0.00000
 240,-0.00000101,-0.00001260,-0.00000239,0.00002043,-0.00000078,0.00000
 368,0.00000095,-0.00002499,0.00000808,-0.00000454,0.00000288,0.0000013
 8,-0.00000518,0.00000440,-0.00000489,0.00000412,0.00000025,-0.00000235
 ,0.00000160,-0.00000306,0.00000012,0.00000438,-0.00000244,-0.00001275,
 0.00001283,0.00000229,0.00000484,-0.00000668,-0.00000800,0.00003170,-0
 .00003777,0.00000281,0.00000248,0.00000159,-0.00000449,0.00000940,-0.0
 0000194,0.00000102,-0.00000078,-0.00000123,0.00000033,0.00000070,0.000
 00042,0.00002332,0.00007518,0.00003151,-0.00000132,-0.00000146,-0.0000
 0371,0.00002195,-0.00022735,-0.00010881,0.00001310,-0.00004997,-0.0000
 2830,-0.00002186,0.00000980,0.00001084,-0.00000261,0.00000993,-0.00000
 327,0.00000213,-0.00001137,0.00000243,-0.00000048,-0.00000481,0.000001
 58,0.00000545,0.00000821,-0.00000211,-0.00000168,-0.00003074,0.0000091
 6,0.00000617,0.00000583,-0.00000071,0.00001928,0.00006514,-0.00005183,
 -0.00000855,0.00000101,0.00000136,-0.00000182,0.00000182,0.00000019,0.
 00000750,-0.00000065,-0.00000108,0.00000421,-0.00000114,0.00000447,-0.
 00003500,0.00006847,0.00006165,0.00000109,-0.00001067,-0.00002246,-0.0
 0000217,-0.00023107,-0.00018765,0.00000227,-0.00006164,-0.00003616,0.0
 0000724,-0.00000331,0.00000266,-0.00000643,0.00000025,0.00000036,0.000
 00588,0.00000512,0.00001120,0.00002213,0.00001160,-0.00000896,-0.00003
 437,0.00014848,0.00006943,-0.00000421,-0.00001010,0.00001199,-0.000036
 63,-0.00003944,0.00006425,-0.00000184,0.00000258,0.00000296,0.00000481
 ,-0.00000192,-0.00000021,-0.00000231,-0.00000087,0.00000014,-0.0000020
 3,-0.00000122,-0.00000055,0.00000491,-0.00000294,-0.00000078,-0.000002
 12,0.00000377,-0.00000180,-0.00000351,0.00000044,0.00000010,0.00000427
 ,-0.00000611,0.00000056,-0.00000312,0.00000602,-0.00000633,-0.00000277
 ,0.00000048,0.00000030,-0.00000036,0.00000244,0.00000030,0.00000360,-0
 .00000507,-0.00000116,-0.00000231,0.00000387,0.00001055,0.00000720,0.0
 0000202,0.00000654,-0.00002442,0.00000766,-0.00002525,-0.00004716,0.00
 016123,0.00001600,0.00003279,-0.00008374,0.00010029,0.00006109,0.00000
 238,0.00002587,0.00000350,0.00000565,0.00000410,0.00001451,-0.00001180
 ,-0.00002337,-0.00000223,-0.00003626,-0.00000250,0.00010303,-0.0002177
 0,-0.00021160,0.00008393,0.00000239,0.00003992,-0.03071469,-0.11359045
 ,-0.25438760,-0.00414296,-0.00920510,-0.01562860,0.00059690,-0.0034354
 3,-0.00711534,0.03280900,0.12369038,0.27037611,-0.00000103,-0.00003517
 ,-0.00012659,-0.00004826,-0.00000678,-0.00000902,-0.00022095,-0.000093
 56,-0.00014641,0.00000769,-0.00000449,0.00000193,0.00000725,0.00000275
 ,0.00000260,0.00000253,0.00001836,-0.00000581,-0.00001546,-0.00001713,
 0.00000405,-0.00001244,0.00001198,0.00000012,0.00000126,-0.00000785,0.
 00000619,0.00005436,0.00004454,0.00022219,-0.00003934,-0.00000045,0.00
 000557,-0.00000166,0.00000195,-0.00000341,0.00006703,-0.00002196,-0.00
 011619,0.00000429,0.00000291,-0.00001032,0.00003748,0.00000265,0.00002
 412,-0.00000402,0.00000732,-0.00000649,-0.00000433,-0.00000606,-0.0000
 0038,-0.00000002,0.00000229,-0.00000085,-0.00000076,0.00000053,-0.0000
 0119,-0.00000217,-0.00000133,-0.00000049,-0.00000175,-0.00000235,-0.00
 000040,-0.00000783,0.00000220,-0.00000265,0.00000884,-0.00000481,0.000
 00055,0.00000185,0.00001032,0.00001438,-0.00000099,0.00000115,0.000001
 78,-0.00000271,0.00000580,0.00000494,0.00000490,0.00000379,0.00000134,
 0.00000130,0.00000150,-0.00000584,-0.00000101,-0.00000151,0.00000060,0
 .00000177,0.00000080,-0.00000196,0.00094815,0.00054628,-0.00029181,-0.
 00082495,0.00374044,0.00010760,-0.01395927,-0.00758570,0.00434477,0.00
 078968,-0.00019725,-0.00062871,-0.32911753,-0.05630367,0.05117365,-0.0
 0343435,0.00209633,0.00048662,0.00056755,-0.00028115,-0.00054683,0.001
 50471,-0.00120594,0.00096432,-0.00058242,-0.00071194,0.00023744,-0.000
 21449,0.00024948,-0.00002182,-0.00003423,0.00001052,0.00007562,-0.0000
 5789,-0.00004976,-0.00007475,-0.00023703,0.00027011,0.00001228,-0.0000
 4611,-0.00014136,0.00002012,-0.00004047,-0.00004978,0.00009242,-0.0000
 5105,-0.00002792,-0.00003942,-0.00000319,-0.00000069,-0.00000144,0.000
 00156,-0.00000124,0.00000115,-0.00000257,-0.00000156,-0.00000194,-0.00
 000193,0.00000118,0.00000068,0.00000196,0.00000094,0.00000594,-0.00000
 533,-0.00000149,-0.00000328,0.00000404,0.00000326,0.00000017,0.0000088
 5,0.00000310,-0.00001153,-0.00001373,-0.00000136,-0.00000621,0.0000065
 6,-0.00001490,0.00000109,0.00000331,-0.00000433,0.00000453,-0.00000675
 ,0.00000186,-0.00000143,-0.00000148,-0.00000258,-0.00000435,0.00002438
 ,0.00000691,-0.00001275,-0.00001573,0.00003873,-0.00004475,-0.00000088
 ,-0.00000004,-0.00000799,0.00004256,0.00000587,-0.00000551,0.00000233,
 -0.00000631,0.00001150,-0.00000342,0.00005396,0.00002459,0.00001011,0.
 00000663,0.00000325,0.00000947,-0.00002441,0.00001826,0.00000334,0.000
 01514,0.00000136,0.00000496,-0.00000055,0.00000352,-0.00001626,-0.0000
 3462,-0.00003474,0.00001989,0.00000815,-0.00001058,-0.00001021,0.00001
 752,0.00000765,0.00000082,0.00000123,0.00000563,-0.00000063,0.00000253
 ,0.00000215,-0.00000046,-0.00000189,0.00000166,-0.00000129,-0.00001832
 ,0.00000945,0.00000123,0.00000047,-0.00000791,0.00000553,0.00000230,0.
 00000333,-0.00000250,0.00000027,0.00001029,-0.00000353,-0.00000450,-0.
 00000566,0.34489282,-0.00000152,0.00002166,-0.00003628,-0.00003124,-0.
 00000070,-0.00001492,-0.00010320,0.00008066,-0.00032919,0.00000238,0.0
 0000225,0.00000451,0.00000212,0.00000304,-0.00000183,-0.00000520,0.000
 00157,-0.00000237,0.00000460,-0.00000137,0.00000631,-0.00001628,0.0000
 0495,-0.00000366,0.00000917,-0.00001170,0.00000192,-0.00000707,-0.0000
 0564,0.00007008,-0.00000494,0.00000328,-0.00000214,0.00000149,-0.00000
 662,0.00000148,0.00004818,0.00001006,-0.00001910,0.00000551,-0.0000132
 6,-0.00000088,0.00000864,0.00000034,0.00000735,-0.00000296,-0.00000782
 ,0.00000110,0.00000156,0.00000433,-0.00000172,-0.00000105,-0.00000008,
 -0.00000067,-0.00000066,-0.00000079,0.00000012,-0.00000014,0.00000304,
 -0.00000159,0.00000025,-0.00000026,0.00000029,-0.00000159,-0.00000390,
 0.00000095,-0.00000423,0.00000097,0.00000097,-0.00000063,-0.00000809,-
 0.00000718,0.00000201,0.00000061,-0.00000010,0.00000521,-0.00000367,-0
 .00000094,0.00000225,0.00000079,0.00000178,0.00000148,-0.00000171,-0.0
 0000288,0.00000109,-0.00000114,-0.00000140,-0.00000043,0.00000114,-0.0
 0000041,0.00054545,-0.00131976,0.00022141,0.00317413,-0.00239406,0.001
 97378,0.02197705,0.00828215,-0.00361683,-0.00073284,0.00068191,-0.0012
 0522,-0.05638706,-0.06761327,0.01447177,-0.02732009,-0.00051793,0.0048
 2996,0.00022696,0.00080274,-0.00139955,-0.00078939,-0.00424716,0.00291
 087,0.00081085,0.00059774,-0.00021728,0.00022225,-0.00021993,-0.000008
 85,-0.00003293,0.00009496,-0.00007764,-0.00001477,0.00003858,0.0000262
 5,-0.00104308,0.00036504,0.00017415,-0.00015569,-0.00033564,0.00006904
 ,-0.00004356,-0.00002782,0.00011556,-0.00005276,0.00006725,-0.00005072
 ,-0.00000019,0.00000057,-0.00000026,0.00000075,0.00000133,-0.00000053,
 -0.00000079,-0.00000085,-0.00000087,-0.00000111,0.00000003,0.00000082,
 0.00000332,-0.00000439,0.00000655,-0.00000457,-0.00000024,-0.00000184,
 0.00000272,0.00000764,-0.00000129,-0.00000437,-0.00000466,0.00000388,0
 .00000536,0.00000184,0.00000318,-0.00000286,0.00000988,-0.00000151,-0.
 00000051,0.00000233,-0.00000172,0.00000126,-0.00000058,0.00000076,0.00
 000040,0.,0.00000170,-0.00004345,-0.00001857,0.00002772,-0.00000196,-0
 .00002204,0.00001172,-0.00000487,-0.00000572,0.00001131,-0.00001741,-0
 .00002785,-0.00001164,-0.00000050,-0.00000783,-0.00001275,-0.00000399,
 -0.00001933,-0.00001086,0.00004973,-0.00001733,-0.00002587,0.00002587,
 -0.00002674,0.00002206,0.00000692,0.00001494,0.00002391,0.00000906,-0.
 00001007,-0.00000044,-0.00000784,-0.00004502,-0.00004945,0.00002175,-0
 .00000229,-0.00003622,-0.00000064,0.00000813,-0.00000496,0.00000058,0.
 00000088,-0.00000156,-0.00000005,0.00000027,0.00000003,0.00000109,-0.0
 0000027,0.00000078,-0.00000433,-0.00000823,0.00000643,0.00000130,-0.00
 000203,-0.00000588,0.00000647,0.00000279,0.00000205,-0.00000513,0.0000
 0153,0.00000928,-0.00000393,0.00000066,-0.00000427,0.05967263,0.065844
 47,-0.00000053,-0.00001878,-0.00005514,-0.00003567,0.00000707,-0.00002
 565,-0.00003144,-0.00030776,-0.00107551,0.00000492,-0.00000047,-0.0000
 0044,0.00000638,0.00000006,0.00000108,0.00000045,0.00001350,-0.0000023
 6,-0.00001442,-0.00001446,0.00000757,-0.00001369,0.00001253,0.00000517
 ,-0.00000089,-0.00000986,0.00000255,-0.00012455,-0.00002516,0.00008913
 ,0.00002469,-0.00001135,-0.00003693,0.00000887,0.00000072,0.00000465,0
 .00011486,0.00002320,0.00003211,0.00000457,0.00000845,0.00000832,-0.00
 000769,0.00000921,0.00000513,-0.00000026,0.00000092,-0.00000253,0.0000
 0002,-0.00000161,-0.00000280,-0.00000059,0.00000010,0.00000077,-0.0000
 0062,0.00000060,-0.00000134,0.00000127,-0.00000223,-0.00000035,-0.0000
 0031,0.00000061,0.00000045,0.00000064,0.00000050,-0.00000252,0.0000005
 0,-0.00000049,0.00000243,0.00000134,0.00000456,0.00000382,0.00000056,0
 .00000095,0.00000034,0.00000043,0.00000100,0.00000071,-0.00000210,0.00
 000116,0.00000249,-0.00000094,-0.00000078,-0.00000006,0.00000069,-0.00
 000014,-0.00000017,0.00000057,-0.00000171,0.00000002,-0.00035045,0.000
 25313,-0.00026718,0.00012948,0.00181573,0.00658009,-0.00313512,-0.0000
 0913,0.00539768,-0.00047395,-0.00123726,-0.00404020,0.05101655,0.01436
 073,-0.05042667,0.00827708,0.00132830,0.00354313,-0.00065426,-0.001404
 00,-0.00391686,0.00082329,0.00333653,0.00591376,-0.00015144,-0.0000543
 9,0.00010786,-0.00004160,0.00001914,-0.00007154,-0.00000810,0.00010818
 ,-0.00007928,0.00001834,-0.00016527,-0.00002770,0.00037959,-0.00030889
 ,0.00001623,0.00002778,0.00004354,-0.00005845,-0.00003050,-0.00002306,
 -0.00003264,0.00002963,0.00005796,-0.00001545,0.00000003,0.00000018,0.
 00000097,-0.00000088,0.00000040,0.00000028,0.00000001,0.00000029,0.000
 00024,0.00000192,-0.00000041,-0.00000079,-0.00000130,0.00000170,0.0000
 0021,0.00000029,-0.00000096,0.00000031,-0.00000135,-0.00000244,0.00000
 014,-0.00000001,0.00000264,-0.00000211,0.00000013,-0.00000103,-0.00000
 063,0.00000031,-0.00000306,0.00000080,-0.00000081,0.,0.00000124,0.0000
 0159,-0.00000094,-0.00000079,-0.00000212,-0.00000047,-0.00000254,-0.00
 005560,0.00000762,-0.00000555,-0.00000429,-0.00001180,-0.00000903,-0.0
 0001223,0.00000428,-0.00000960,0.00006202,-0.00000874,-0.00000710,0.00
 001750,0.00000340,-0.00001150,0.00000139,0.00000741,-0.00002505,-0.000
 02062,-0.00001183,0.00001086,-0.00000323,0.00001119,0.00000285,-0.0000
 1611,0.00002021,-0.00001975,-0.00000875,0.00000374,-0.00000799,-0.0000
 1491,0.00003389,0.00000160,-0.00001356,-0.00001536,0.00001331,-0.00000
 928,0.00001489,-0.00000745,-0.00000012,-0.00000128,0.00000181,0.000002
 97,0.00000086,0.00000127,0.00000254,0.00000090,0.00000048,0.00000022,-
 0.00001917,-0.00000466,-0.00000270,0.00000186,-0.00000205,0.00000082,0
 .00000097,-0.00000111,0.00000229,-0.00000331,0.00000011,0.00000040,-0.
 00000070,0.00000211,-0.05571996,-0.01784653,0.03849537\\0.00001793,0.0
 0003564,-0.00000037,0.00001118,0.00000429,0.00001993,-0.00000003,0.000
 00357,-0.00001739,-0.00000187,0.00000033,-0.00000186,0.00000070,-0.000
 00278,-0.00000333,0.00000012,-0.00001001,-0.00000187,-0.00000276,-0.00
 000848,-0.00000277,-0.00000255,-0.00000108,-0.00000496,-0.00000224,-0.
 00000016,-0.00000368,-0.00002800,-0.00002857,0.00000254,0.00000229,-0.
 00000346,-0.00000263,0.00000047,-0.00000147,0.00000002,0.00000743,0.00
 000721,0.00000191,0.00000107,-0.00000006,-0.00000003,-0.00000559,-0.00
 000302,-0.00000723,0.00000541,0.00001176,0.00001008,-0.00000307,0.0000
 0100,-0.00000257,-0.00000041,-0.00000187,0.00000039,-0.00000102,0.0000
 0083,0.00000097,0.00000296,-0.00000453,-0.00000028,0.00000052,-0.00000
 110,0.00000305,-0.00000203,0.00000581,-0.00000196,0.00000364,-0.000010
 03,0.00000003,-0.00000190,-0.00000203,-0.00000163,-0.00000569,0.000004
 84,-0.00000035,-0.00000080,0.00000085,-0.00000117,-0.00000700,-0.00000
 052,0.00000657,0.00000209,0.00000168,-0.00000063,-0.00000289,0.0000008
 9,-0.00000118,0.00000037,0.00000389,0.00000229,0.00000513,0.00000085,0
 .00000447,-0.00000153,-0.00000011,-0.00000677,0.00000123,-0.00000002,-
 0.00000024,0.00000038,-0.00000122,-0.00000141,-0.00000063,-0.00000076,
 -0.00000286,0.00000066,0.00000093,0.00000185,0.00000107,-0.00000001,-0
 .00000263,-0.00000187,-0.00000543,0.00000206,0.00000543,0.00000128,0.0
 0000326,0.00000303,-0.00000137,-0.00000082,0.00000552,-0.00000061,0.00
 000262,-0.00000097,-0.00000103,-0.00000080,0.00000640,-0.00000240,-0.0
 0000023,-0.00000122,0.00000158,-0.00000015,0.00000235,0.00000208,0.000
 00472,-0.00000192,0.00000078,0.00000069,0.00000030,0.00000241,0.000000
 31,-0.00000002,0.00000079,0.00000092,-0.00000061,-0.00000030,0.0000024
 2,0.00000076,0.00000107,0.00000125,-0.00000062,0.00000233,0.00000481,-
 0.00000092,0.00000103,0.00000100,-0.00000131,0.00000125,0.00000142,0.0
 0000045,0.00000492,0.00000169,0.00000009,0.00000132,-0.00000045,-0.000
 00040,0.00000148,0.00000139,0.00000065,-0.00000117,0.00000318,0.000001
 93,-0.00000185,0.00000167,-0.00000089,-0.00000243,-0.00000806,-0.00000
 159,0.00000122,-0.00000044,0.00000023,-0.00000042,-0.00000147,-0.00000
 461,-0.00000153,-0.00000085,0.00000156,-0.00000049,-0.00000051,-0.0000
 0007,0.00000012,-0.00000082,0.00000108,-0.00000040,-0.00000187,0.00000
 012,-0.00000053,-0.00000134,0.00000055,0.00000047,-0.00000071,0.000000
 41,0.00000006,-0.00000163,0.00000066,-0.00000223,0.00000044,0.00000032
 ,0.00000050,0.00000224,-0.00000186,-0.00000078,-0.00000047,-0.00000108
 ,-0.00000098,0.00000235,-0.00000281,0.00000017,0.00000273,-0.00000023,
 0.00000034,0.00000373,-0.00000061,0.00000002,0.00000219,-0.00000111,-0
 .00000121,0.00000071,0.00000346,0.00000026,-0.00000232,-0.00000143,-0.
 00000138,-0.00000465,-0.00000385,-0.00000118,-0.00000295,-0.00000083,0
 .00000032,-0.00000081,0.00000090,-0.00000114,-0.00000073\\\@
 The archive entry for this job was punched.


 GOD DOES NOT PLAY WITH DICE.
               -- A. EINSTEIN
 Job cpu time:       1 days 15 hours 25 minutes 42.4 seconds.
 Elapsed time:       0 days  0 hours 38 minutes 30.5 seconds.
 File lengths (MBytes):  RWF=   4661 Int=      0 D2E=      0 Chk=     51 Scr=      2
 Normal termination of Gaussian 16 at Sat Jan 10 06:08:25 2026.
