 Entering Gaussian System, Link 0=/project/xlzhang/shared/bin/g16C02/g16
 Input=/users/s1155246974/li/complex_opt_c3/complex_opt_c3.com
 Output=/users/s1155246974/li/complex_opt_c3/complex_opt_c3.log
 Initial command:
 /project/xlzhang/shared/bin/g16C02/l1.exe "/ss02/scratch/s1/xlzhang/zihan/complex_opt_c3/Gau-2687015.inp" -scrdir="/ss02/scratch/s1/xlzhang/zihan/complex_opt_c3/"
 Entering Link 1 = /project/xlzhang/shared/bin/g16C02/l1.exe PID=   2687016.
  
 Copyright (c) 1988-2021, Gaussian, Inc.  All Rights Reserved.
  
 This is part of the Gaussian(R) 16 program.  It is based on
 the Gaussian(R) 09 system (copyright 2009, Gaussian, Inc.),
 the Gaussian(R) 03 system (copyright 2003, Gaussian, Inc.),
 the Gaussian(R) 98 system (copyright 1998, Gaussian, Inc.),
 the Gaussian(R) 94 system (copyright 1995, Gaussian, Inc.),
 the Gaussian 92(TM) system (copyright 1992, Gaussian, Inc.),
 the Gaussian 90(TM) system (copyright 1990, Gaussian, Inc.),
 the Gaussian 88(TM) system (copyright 1988, Gaussian, Inc.),
 the Gaussian 86(TM) system (copyright 1986, Carnegie Mellon
 University), and the Gaussian 82(TM) system (copyright 1983,
 Carnegie Mellon University). Gaussian is a federally registered
 trademark of Gaussian, Inc.
  
 This software contains proprietary and confidential information,
 including trade secrets, belonging to Gaussian, Inc.
  
 This software is provided under written license and may be
 used, copied, transmitted, or stored only in accord with that
 written license.
  
 The following legend is applicable only to US Government
 contracts under FAR:
  
                    RESTRICTED RIGHTS LEGEND
  
 Use, reproduction and disclosure by the US Government is
 subject to restrictions as set forth in subparagraphs (a)
 and (c) of the Commercial Computer Software - Restricted
 Rights clause in FAR 52.227-19.
  
 Gaussian, Inc.
 340 Quinnipiac St., Bldg. 40, Wallingford CT 06492
  
  
 ---------------------------------------------------------------
 Warning -- This program may not be used in any manner that
 competes with the business of Gaussian, Inc. or will provide
 assistance to any competitor of Gaussian, Inc.  The licensee
 of this program is prohibited from giving any competitor of
 Gaussian, Inc. access to this program.  By using this program,
 the user acknowledges that Gaussian, Inc. is engaged in the
 business of creating and licensing software in the field of
 computational chemistry and represents and warrants to the
 licensee that it is not a competitor of Gaussian, Inc. and that
 it will not use this program in any manner prohibited above.
 ---------------------------------------------------------------
  

 Cite this work as:
 Gaussian 16, Revision C.02,
 M. J. Frisch, G. W. Trucks, H. B. Schlegel, G. E. Scuseria, 
 M. A. Robb, J. R. Cheeseman, G. Scalmani, V. Barone, 
 G. A. Petersson, H. Nakatsuji, X. Li, M. Caricato, A. V. Marenich, 
 J. Bloino, B. G. Janesko, R. Gomperts, B. Mennucci, H. P. Hratchian, 
 J. V. Ortiz, A. F. Izmaylov, J. L. Sonnenberg, D. Williams-Young, 
 F. Ding, F. Lipparini, F. Egidi, J. Goings, B. Peng, A. Petrone, 
 T. Henderson, D. Ranasinghe, V. G. Zakrzewski, J. Gao, N. Rega, 
 G. Zheng, W. Liang, M. Hada, M. Ehara, K. Toyota, R. Fukuda, 
 J. Hasegawa, M. Ishida, T. Nakajima, Y. Honda, O. Kitao, H. Nakai, 
 T. Vreven, K. Throssell, J. A. Montgomery, Jr., J. E. Peralta, 
 F. Ogliaro, M. J. Bearpark, J. J. Heyd, E. N. Brothers, K. N. Kudin, 
 V. N. Staroverov, T. A. Keith, R. Kobayashi, J. Normand, 
 K. Raghavachari, A. P. Rendell, J. C. Burant, S. S. Iyengar, 
 J. Tomasi, M. Cossi, J. M. Millam, M. Klene, C. Adamo, R. Cammi, 
 J. W. Ochterski, R. L. Martin, K. Morokuma, O. Farkas, 
 J. B. Foresman, and D. J. Fox, Gaussian, Inc., Wallingford CT, 2019.
 
 ******************************************
 Gaussian 16:  ES64L-G16RevC.02  7-Dec-2021
                10-Jan-2026 
 ******************************************
 %chk=complex_opt_c3.chk
 %nprocshared=64
 Will use up to   64 processors via shared memory.
 %mem=180GB
 -----------------------
 # opt freq mn15 def2svp
 -----------------------
 1/18=20,19=15,26=3,38=1/1,3;
 2/9=110,12=2,17=6,18=5,40=1/2;
 3/5=43,7=101,11=2,25=1,30=1,71=1,74=-73/1,2,3;
 4//1;
 5/5=2,38=5/2;
 6/7=2,8=2,9=2,10=2,28=1/1;
 7//1,2,3,16;
 1/18=20,19=15,26=3/3(2);
 2/9=110/2;
 99//99;
 2/9=110/2;
 3/5=43,7=101,11=2,25=1,30=1,71=1,74=-73/1,2,3;
 4/5=5,16=3,69=1/1;
 5/5=2,38=5/2;
 7//1,2,3,16;
 1/18=20,19=15,26=3/3(-5);
 2/9=110/2;
 6/7=2,8=2,9=2,10=2,19=2,28=1/1;
 99/9=1/99;
 ----------------------------------
 Gaussian job with default settings
 ----------------------------------
 Symbolic Z-matrix:
 Charge =  0 Multiplicity = 1
 Ni                   -0.38002   0.33125   1.30207 
 N                     1.18866  -0.17792  -1.21266 
 N                    -0.88023  -0.41211  -1.69206 
 C                     1.0236    0.01475   3.17699 
 C                    -0.09853  -0.81647   3.18102 
 C                    -1.38366  -0.26393   3.07474 
 C                    -1.52757   1.12324   2.94464 
 C                    -0.39552   1.94995   2.93432 
 C                     0.88897   1.40432   3.05934 
 C                    -0.04812  -0.13901  -0.65691 
 C                     1.12705  -0.45143  -2.55474 
 H                     2.00224  -0.50481  -3.17054 
 C                    -0.18189  -0.60443  -2.85704 
 H                    -0.66947  -0.82927  -3.78355 
 C                     2.39548   0.03732  -0.49349 
 C                     2.94896  -1.01272   0.24667 
 C                     4.15529  -0.78422   0.89407 
 H                     4.6187   -1.57238   1.46545 
 C                     4.77559   0.4492    0.82423 
 C                     4.19763   1.48475   0.11424 
 H                     4.68473   2.44664   0.09108 
 C                     3.00065   1.29505  -0.56182 
 C                     2.23494  -2.34342   0.32119 
 H                     1.1613   -2.12619   0.37824 
 C                     2.60411  -3.16685   1.55327 
 C                     2.51199  -3.1669   -0.941 
 C                     2.30296   2.42282  -1.28493 
 H                     1.71778   1.99943  -2.10768 
 C                     1.33127   3.08728  -0.30529 
 C                     3.25976   3.45255  -1.88387 
 C                    -2.29197  -0.55099  -1.59963 
 C                    -2.82848  -1.82381  -1.3879 
 C                    -4.20919  -1.95549  -1.35215 
 H                    -4.65385  -2.92323  -1.1836 
 C                    -5.02745  -0.85476  -1.52205 
 C                    -4.48009   0.40108  -1.69963 
 H                    -5.13327   1.2532   -1.79963 
 C                    -3.10359   0.57543  -1.74205 
 C                    -1.91311  -2.9892   -1.09768 
 H                    -0.95037  -2.81315  -1.58816 
 C                    -1.67831  -3.0245    0.41576 
 C                    -2.448    -4.3296   -1.59916 
 C                    -2.48448   1.94867  -1.82789 
 H                    -1.4727    1.85412  -2.23449 
 C                    -2.37373   2.49032  -0.40016 
 C                    -3.26169   2.91349  -2.72252 
 H                     5.71211   0.60869   1.33942 
 H                     2.70521   4.13832  -2.52106 
 H                     3.74642   4.03974  -1.10908 
 H                     4.02432   2.9655   -2.48578 
 H                     0.6935    2.32698   0.16493 
 H                     1.88344   3.60446   0.47529 
 H                     0.69997   3.80552  -0.82312 
 H                     1.996    -4.12297  -0.88257 
 H                     2.17275  -2.65083  -1.83514 
 H                     3.57966  -3.35716  -1.03794 
 H                     1.92794  -4.01535   1.63725 
 H                     3.61818  -3.55529   1.4836 
 H                     2.51546  -2.57104   2.45721 
 H                    -2.61277  -3.22228   0.93657 
 H                    -0.96082  -3.80029   0.67405 
 H                    -1.29503  -2.05337   0.75294 
 H                    -3.30646  -4.65661  -1.0181 
 H                    -2.7395   -4.26133  -2.64521 
 H                    -1.67482  -5.08951  -1.50647 
 H                    -4.20893   3.19677  -2.271 
 H                    -2.68087   3.82093  -2.87357 
 H                    -3.45863   2.46489  -3.69408 
 H                    -1.76345   1.79663   0.20756 
 H                    -1.90412   3.4707   -0.39564 
 H                    -3.35984   2.56789   0.05218 
 H                    -2.51609   1.56677   2.94063 
 H                    -2.25819  -0.89421   3.18091 
 H                     0.01926  -1.88028   3.34957 
 H                     2.01174  -0.40272   3.32466 
 H                    -0.51778   3.02606   2.90054 
 C                     2.0987    2.28201   3.18975 
 H                     2.88623   1.95619   2.51189 
 H                     1.85357   3.31988   2.97523 
 H                     2.4859    2.22447   4.20854 
 H                    -6.10089  -0.97454  -1.49584 
 

 GradGradGradGradGradGradGradGradGradGradGradGradGradGradGradGradGradGrad
 Berny optimization.
 Initialization pass.
                           ----------------------------
                           !    Initial Parameters    !
                           ! (Angstroms and Degrees)  !
 --------------------------                            --------------------------
 ! Name  Definition              Value          Derivative Info.                !
 --------------------------------------------------------------------------------
 ! R1    R(1,5)                  2.2197         estimate D2E/DX2                !
 ! R2    R(1,6)                  2.1222         estimate D2E/DX2                !
 ! R3    R(1,7)                  2.1546         estimate D2E/DX2                !
 ! R4    R(1,10)                 2.0418         estimate D2E/DX2                !
 ! R5    R(2,10)                 1.3565         estimate D2E/DX2                !
 ! R6    R(2,11)                 1.3711         estimate D2E/DX2                !
 ! R7    R(2,15)                 1.4212         estimate D2E/DX2                !
 ! R8    R(3,10)                 1.3559         estimate D2E/DX2                !
 ! R9    R(3,13)                 1.3718         estimate D2E/DX2                !
 ! R10   R(3,31)                 1.4216         estimate D2E/DX2                !
 ! R11   R(4,5)                  1.3965         estimate D2E/DX2                !
 ! R12   R(4,9)                  1.401          estimate D2E/DX2                !
 ! R13   R(4,75)                 1.0828         estimate D2E/DX2                !
 ! R14   R(5,6)                  1.4029         estimate D2E/DX2                !
 ! R15   R(5,74)                 1.0835         estimate D2E/DX2                !
 ! R16   R(6,7)                  1.4007         estimate D2E/DX2                !
 ! R17   R(6,73)                 1.0832         estimate D2E/DX2                !
 ! R18   R(7,8)                  1.4018         estimate D2E/DX2                !
 ! R19   R(7,72)                 1.0835         estimate D2E/DX2                !
 ! R20   R(8,9)                  1.4012         estimate D2E/DX2                !
 ! R21   R(8,76)                 1.0836         estimate D2E/DX2                !
 ! R22   R(9,77)                 1.5003         estimate D2E/DX2                !
 ! R23   R(11,12)                1.0715         estimate D2E/DX2                !
 ! R24   R(11,13)                1.3521         estimate D2E/DX2                !
 ! R25   R(13,14)                1.0708         estimate D2E/DX2                !
 ! R26   R(15,16)                1.3988         estimate D2E/DX2                !
 ! R27   R(15,22)                1.3974         estimate D2E/DX2                !
 ! R28   R(16,17)                1.388          estimate D2E/DX2                !
 ! R29   R(16,23)                1.512          estimate D2E/DX2                !
 ! R30   R(17,18)                1.0782         estimate D2E/DX2                !
 ! R31   R(17,19)                1.3824         estimate D2E/DX2                !
 ! R32   R(19,20)                1.3822         estimate D2E/DX2                !
 ! R33   R(19,47)                1.0807         estimate D2E/DX2                !
 ! R34   R(20,21)                1.0784         estimate D2E/DX2                !
 ! R35   R(20,22)                1.3877         estimate D2E/DX2                !
 ! R36   R(22,27)                1.5105         estimate D2E/DX2                !
 ! R37   R(23,24)                1.0969         estimate D2E/DX2                !
 ! R38   R(23,25)                1.5272         estimate D2E/DX2                !
 ! R39   R(23,26)                1.5323         estimate D2E/DX2                !
 ! R40   R(25,57)                1.0882         estimate D2E/DX2                !
 ! R41   R(25,58)                1.0882         estimate D2E/DX2                !
 ! R42   R(25,59)                1.0863         estimate D2E/DX2                !
 ! R43   R(26,54)                1.088          estimate D2E/DX2                !
 ! R44   R(26,55)                1.0867         estimate D2E/DX2                !
 ! R45   R(26,56)                1.0888         estimate D2E/DX2                !
 ! R46   R(27,28)                1.0948         estimate D2E/DX2                !
 ! R47   R(27,29)                1.5315         estimate D2E/DX2                !
 ! R48   R(27,30)                1.5279         estimate D2E/DX2                !
 ! R49   R(29,51)                1.0981         estimate D2E/DX2                !
 ! R50   R(29,52)                1.087          estimate D2E/DX2                !
 ! R51   R(29,53)                1.0875         estimate D2E/DX2                !
 ! R52   R(30,48)                1.088          estimate D2E/DX2                !
 ! R53   R(30,49)                1.0872         estimate D2E/DX2                !
 ! R54   R(30,50)                1.0882         estimate D2E/DX2                !
 ! R55   R(31,32)                1.3974         estimate D2E/DX2                !
 ! R56   R(31,38)                1.3957         estimate D2E/DX2                !
 ! R57   R(32,33)                1.3874         estimate D2E/DX2                !
 ! R58   R(32,39)                1.5101         estimate D2E/DX2                !
 ! R59   R(33,34)                1.0783         estimate D2E/DX2                !
 ! R60   R(33,35)                1.382          estimate D2E/DX2                !
 ! R61   R(35,36)                1.3814         estimate D2E/DX2                !
 ! R62   R(35,81)                1.0804         estimate D2E/DX2                !
 ! R63   R(36,37)                1.0783         estimate D2E/DX2                !
 ! R64   R(36,38)                1.3882         estimate D2E/DX2                !
 ! R65   R(38,43)                1.5088         estimate D2E/DX2                !
 ! R66   R(39,40)                1.0947         estimate D2E/DX2                !
 ! R67   R(39,41)                1.5319         estimate D2E/DX2                !
 ! R68   R(39,42)                1.5278         estimate D2E/DX2                !
 ! R69   R(41,60)                1.0879         estimate D2E/DX2                !
 ! R70   R(41,61)                1.0878         estimate D2E/DX2                !
 ! R71   R(41,62)                1.0971         estimate D2E/DX2                !
 ! R72   R(42,63)                1.087          estimate D2E/DX2                !
 ! R73   R(42,64)                1.088          estimate D2E/DX2                !
 ! R74   R(42,65)                1.0881         estimate D2E/DX2                !
 ! R75   R(43,44)                1.0945         estimate D2E/DX2                !
 ! R76   R(43,45)                1.531          estimate D2E/DX2                !
 ! R77   R(43,46)                1.5282         estimate D2E/DX2                !
 ! R78   R(45,69)                1.1059         estimate D2E/DX2                !
 ! R79   R(45,70)                1.0871         estimate D2E/DX2                !
 ! R80   R(45,71)                1.0877         estimate D2E/DX2                !
 ! R81   R(46,66)                1.0869         estimate D2E/DX2                !
 ! R82   R(46,67)                1.0879         estimate D2E/DX2                !
 ! R83   R(46,68)                1.0881         estimate D2E/DX2                !
 ! R84   R(77,78)                1.089          estimate D2E/DX2                !
 ! R85   R(77,79)                1.0878         estimate D2E/DX2                !
 ! R86   R(77,80)                1.0914         estimate D2E/DX2                !
 ! A1    A(5,1,7)               67.1867         estimate D2E/DX2                !
 ! A2    A(5,1,10)             132.2573         estimate D2E/DX2                !
 ! A3    A(6,1,10)             144.4577         estimate D2E/DX2                !
 ! A4    A(7,1,10)             154.5136         estimate D2E/DX2                !
 ! A5    A(10,2,11)            111.4562         estimate D2E/DX2                !
 ! A6    A(10,2,15)            124.2326         estimate D2E/DX2                !
 ! A7    A(11,2,15)            124.3112         estimate D2E/DX2                !
 ! A8    A(10,3,13)            111.3559         estimate D2E/DX2                !
 ! A9    A(10,3,31)            125.4143         estimate D2E/DX2                !
 ! A10   A(13,3,31)            123.1661         estimate D2E/DX2                !
 ! A11   A(5,4,9)              120.8904         estimate D2E/DX2                !
 ! A12   A(5,4,75)             120.2259         estimate D2E/DX2                !
 ! A13   A(9,4,75)             118.7847         estimate D2E/DX2                !
 ! A14   A(1,5,4)               77.9764         estimate D2E/DX2                !
 ! A15   A(1,5,74)             130.7785         estimate D2E/DX2                !
 ! A16   A(4,5,6)              120.0951         estimate D2E/DX2                !
 ! A17   A(4,5,74)             119.8355         estimate D2E/DX2                !
 ! A18   A(6,5,74)             119.8718         estimate D2E/DX2                !
 ! A19   A(1,6,73)             128.8199         estimate D2E/DX2                !
 ! A20   A(5,6,7)              119.4199         estimate D2E/DX2                !
 ! A21   A(5,6,73)             120.1972         estimate D2E/DX2                !
 ! A22   A(7,6,73)             120.1601         estimate D2E/DX2                !
 ! A23   A(1,7,8)               77.353          estimate D2E/DX2                !
 ! A24   A(1,7,72)             129.3159         estimate D2E/DX2                !
 ! A25   A(6,7,8)              120.1176         estimate D2E/DX2                !
 ! A26   A(6,7,72)             119.9669         estimate D2E/DX2                !
 ! A27   A(8,7,72)             119.6919         estimate D2E/DX2                !
 ! A28   A(7,8,9)              120.664          estimate D2E/DX2                !
 ! A29   A(7,8,76)             119.6568         estimate D2E/DX2                !
 ! A30   A(9,8,76)             119.5347         estimate D2E/DX2                !
 ! A31   A(4,9,8)              118.8035         estimate D2E/DX2                !
 ! A32   A(4,9,77)             119.7003         estimate D2E/DX2                !
 ! A33   A(8,9,77)             121.2746         estimate D2E/DX2                !
 ! A34   A(1,10,2)             123.2231         estimate D2E/DX2                !
 ! A35   A(1,10,3)             132.7732         estimate D2E/DX2                !
 ! A36   A(2,10,3)             103.9447         estimate D2E/DX2                !
 ! A37   A(2,11,12)            122.3994         estimate D2E/DX2                !
 ! A38   A(2,11,13)            106.5553         estimate D2E/DX2                !
 ! A39   A(12,11,13)           131.0428         estimate D2E/DX2                !
 ! A40   A(3,13,11)            106.6834         estimate D2E/DX2                !
 ! A41   A(3,13,14)            122.169          estimate D2E/DX2                !
 ! A42   A(11,13,14)           131.1476         estimate D2E/DX2                !
 ! A43   A(2,15,16)            119.3433         estimate D2E/DX2                !
 ! A44   A(2,15,22)            118.6389         estimate D2E/DX2                !
 ! A45   A(16,15,22)           122.0142         estimate D2E/DX2                !
 ! A46   A(15,16,17)           117.8464         estimate D2E/DX2                !
 ! A47   A(15,16,23)           119.9914         estimate D2E/DX2                !
 ! A48   A(17,16,23)           122.1622         estimate D2E/DX2                !
 ! A49   A(16,17,18)           120.0261         estimate D2E/DX2                !
 ! A50   A(16,17,19)           120.8844         estimate D2E/DX2                !
 ! A51   A(18,17,19)           119.0886         estimate D2E/DX2                !
 ! A52   A(17,19,20)           120.4507         estimate D2E/DX2                !
 ! A53   A(17,19,47)           119.7652         estimate D2E/DX2                !
 ! A54   A(20,19,47)           119.7789         estimate D2E/DX2                !
 ! A55   A(19,20,21)           119.3674         estimate D2E/DX2                !
 ! A56   A(19,20,22)           120.5629         estimate D2E/DX2                !
 ! A57   A(21,20,22)           120.0696         estimate D2E/DX2                !
 ! A58   A(15,22,20)           118.2132         estimate D2E/DX2                !
 ! A59   A(15,22,27)           119.6944         estimate D2E/DX2                !
 ! A60   A(20,22,27)           121.9761         estimate D2E/DX2                !
 ! A61   A(16,23,24)           106.8872         estimate D2E/DX2                !
 ! A62   A(16,23,25)           113.5865         estimate D2E/DX2                !
 ! A63   A(16,23,26)           110.3033         estimate D2E/DX2                !
 ! A64   A(24,23,25)           107.5437         estimate D2E/DX2                !
 ! A65   A(24,23,26)           109.0409         estimate D2E/DX2                !
 ! A66   A(25,23,26)           109.3343         estimate D2E/DX2                !
 ! A67   A(23,25,57)           109.418          estimate D2E/DX2                !
 ! A68   A(23,25,58)           111.4744         estimate D2E/DX2                !
 ! A69   A(23,25,59)           110.8475         estimate D2E/DX2                !
 ! A70   A(57,25,58)           107.7979         estimate D2E/DX2                !
 ! A71   A(57,25,59)           108.225          estimate D2E/DX2                !
 ! A72   A(58,25,59)           108.974          estimate D2E/DX2                !
 ! A73   A(23,26,54)           110.0145         estimate D2E/DX2                !
 ! A74   A(23,26,55)           111.4754         estimate D2E/DX2                !
 ! A75   A(23,26,56)           110.1532         estimate D2E/DX2                !
 ! A76   A(54,26,55)           108.2678         estimate D2E/DX2                !
 ! A77   A(54,26,56)           108.4378         estimate D2E/DX2                !
 ! A78   A(55,26,56)           108.412          estimate D2E/DX2                !
 ! A79   A(22,27,28)           108.5363         estimate D2E/DX2                !
 ! A80   A(22,27,29)           108.1063         estimate D2E/DX2                !
 ! A81   A(22,27,30)           113.6782         estimate D2E/DX2                !
 ! A82   A(28,27,29)           108.022          estimate D2E/DX2                !
 ! A83   A(28,27,30)           107.5029         estimate D2E/DX2                !
 ! A84   A(29,27,30)           110.8344         estimate D2E/DX2                !
 ! A85   A(27,29,51)           109.9989         estimate D2E/DX2                !
 ! A86   A(27,29,52)           110.088          estimate D2E/DX2                !
 ! A87   A(27,29,53)           110.5054         estimate D2E/DX2                !
 ! A88   A(51,29,52)           108.4776         estimate D2E/DX2                !
 ! A89   A(51,29,53)           108.9066         estimate D2E/DX2                !
 ! A90   A(52,29,53)           108.8196         estimate D2E/DX2                !
 ! A91   A(27,30,48)           109.5826         estimate D2E/DX2                !
 ! A92   A(27,30,49)           111.4052         estimate D2E/DX2                !
 ! A93   A(27,30,50)           110.8039         estimate D2E/DX2                !
 ! A94   A(48,30,49)           107.7641         estimate D2E/DX2                !
 ! A95   A(48,30,50)           108.4383         estimate D2E/DX2                !
 ! A96   A(49,30,50)           108.7502         estimate D2E/DX2                !
 ! A97   A(3,31,32)            118.6927         estimate D2E/DX2                !
 ! A98   A(3,31,38)            119.4741         estimate D2E/DX2                !
 ! A99   A(32,31,38)           121.8257         estimate D2E/DX2                !
 ! A100  A(31,32,33)           118.1913         estimate D2E/DX2                !
 ! A101  A(31,32,39)           119.9563         estimate D2E/DX2                !
 ! A102  A(33,32,39)           121.6715         estimate D2E/DX2                !
 ! A103  A(32,33,34)           119.9729         estimate D2E/DX2                !
 ! A104  A(32,33,35)           120.6932         estimate D2E/DX2                !
 ! A105  A(34,33,35)           119.3325         estimate D2E/DX2                !
 ! A106  A(33,35,36)           120.3492         estimate D2E/DX2                !
 ! A107  A(33,35,81)           119.7992         estimate D2E/DX2                !
 ! A108  A(36,35,81)           119.84           estimate D2E/DX2                !
 ! A109  A(35,36,37)           119.361          estimate D2E/DX2                !
 ! A110  A(35,36,38)           120.732          estimate D2E/DX2                !
 ! A111  A(37,36,38)           119.9057         estimate D2E/DX2                !
 ! A112  A(31,38,36)           118.1746         estimate D2E/DX2                !
 ! A113  A(31,38,43)           120.1173         estimate D2E/DX2                !
 ! A114  A(36,38,43)           121.5302         estimate D2E/DX2                !
 ! A115  A(32,39,40)           108.8368         estimate D2E/DX2                !
 ! A116  A(32,39,41)           107.4911         estimate D2E/DX2                !
 ! A117  A(32,39,42)           113.6889         estimate D2E/DX2                !
 ! A118  A(40,39,41)           108.1522         estimate D2E/DX2                !
 ! A119  A(40,39,42)           107.5725         estimate D2E/DX2                !
 ! A120  A(41,39,42)           110.9599         estimate D2E/DX2                !
 ! A121  A(39,41,60)           110.2109         estimate D2E/DX2                !
 ! A122  A(39,41,61)           110.6148         estimate D2E/DX2                !
 ! A123  A(39,41,62)           109.6799         estimate D2E/DX2                !
 ! A124  A(60,41,61)           108.8572         estimate D2E/DX2                !
 ! A125  A(60,41,62)           108.2929         estimate D2E/DX2                !
 ! A126  A(61,41,62)           109.1392         estimate D2E/DX2                !
 ! A127  A(39,42,63)           111.4054         estimate D2E/DX2                !
 ! A128  A(39,42,64)           110.7512         estimate D2E/DX2                !
 ! A129  A(39,42,65)           109.633          estimate D2E/DX2                !
 ! A130  A(63,42,64)           108.7365         estimate D2E/DX2                !
 ! A131  A(63,42,65)           107.7918         estimate D2E/DX2                !
 ! A132  A(64,42,65)           108.4277         estimate D2E/DX2                !
 ! A133  A(38,43,44)           108.7732         estimate D2E/DX2                !
 ! A134  A(38,43,45)           107.3751         estimate D2E/DX2                !
 ! A135  A(38,43,46)           113.5312         estimate D2E/DX2                !
 ! A136  A(44,43,45)           108.0665         estimate D2E/DX2                !
 ! A137  A(44,43,46)           107.8907         estimate D2E/DX2                !
 ! A138  A(45,43,46)           111.0607         estimate D2E/DX2                !
 ! A139  A(43,45,69)           109.2959         estimate D2E/DX2                !
 ! A140  A(43,45,70)           110.7434         estimate D2E/DX2                !
 ! A141  A(43,45,71)           110.3326         estimate D2E/DX2                !
 ! A142  A(69,45,70)           108.9676         estimate D2E/DX2                !
 ! A143  A(69,45,71)           108.4527         estimate D2E/DX2                !
 ! A144  A(70,45,71)           109.0029         estimate D2E/DX2                !
 ! A145  A(43,46,66)           111.3817         estimate D2E/DX2                !
 ! A146  A(43,46,67)           109.6559         estimate D2E/DX2                !
 ! A147  A(43,46,68)           110.762          estimate D2E/DX2                !
 ! A148  A(66,46,67)           107.7916         estimate D2E/DX2                !
 ! A149  A(66,46,68)           108.7016         estimate D2E/DX2                !
 ! A150  A(67,46,68)           108.4536         estimate D2E/DX2                !
 ! A151  A(9,77,78)            110.7315         estimate D2E/DX2                !
 ! A152  A(9,77,79)            111.0591         estimate D2E/DX2                !
 ! A153  A(9,77,80)            109.656          estimate D2E/DX2                !
 ! A154  A(78,77,79)           109.0061         estimate D2E/DX2                !
 ! A155  A(78,77,80)           107.982          estimate D2E/DX2                !
 ! A156  A(79,77,80)           108.3213         estimate D2E/DX2                !
 ! D1    D(7,1,5,4)            -98.33           estimate D2E/DX2                !
 ! D2    D(7,1,5,74)           142.4585         estimate D2E/DX2                !
 ! D3    D(10,1,5,4)           101.4568         estimate D2E/DX2                !
 ! D4    D(10,1,5,74)          -17.7547         estimate D2E/DX2                !
 ! D5    D(10,1,6,73)          -22.3748         estimate D2E/DX2                !
 ! D6    D(5,1,7,8)             97.9159         estimate D2E/DX2                !
 ! D7    D(5,1,7,72)          -143.8937         estimate D2E/DX2                !
 ! D8    D(10,1,7,8)          -117.6948         estimate D2E/DX2                !
 ! D9    D(10,1,7,72)            0.4956         estimate D2E/DX2                !
 ! D10   D(5,1,10,2)           -75.7802         estimate D2E/DX2                !
 ! D11   D(5,1,10,3)           107.4869         estimate D2E/DX2                !
 ! D12   D(6,1,10,2)          -131.0798         estimate D2E/DX2                !
 ! D13   D(6,1,10,3)            52.1874         estimate D2E/DX2                !
 ! D14   D(7,1,10,2)           150.7031         estimate D2E/DX2                !
 ! D15   D(7,1,10,3)           -26.0297         estimate D2E/DX2                !
 ! D16   D(11,2,10,1)         -176.8509         estimate D2E/DX2                !
 ! D17   D(11,2,10,3)            0.6786         estimate D2E/DX2                !
 ! D18   D(15,2,10,1)            3.1718         estimate D2E/DX2                !
 ! D19   D(15,2,10,3)         -179.2987         estimate D2E/DX2                !
 ! D20   D(10,2,11,12)         178.8282         estimate D2E/DX2                !
 ! D21   D(10,2,11,13)          -0.6532         estimate D2E/DX2                !
 ! D22   D(15,2,11,12)          -1.1945         estimate D2E/DX2                !
 ! D23   D(15,2,11,13)         179.324          estimate D2E/DX2                !
 ! D24   D(10,2,15,16)          81.2068         estimate D2E/DX2                !
 ! D25   D(10,2,15,22)         -99.4746         estimate D2E/DX2                !
 ! D26   D(11,2,15,16)         -98.7676         estimate D2E/DX2                !
 ! D27   D(11,2,15,22)          80.5509         estimate D2E/DX2                !
 ! D28   D(13,3,10,1)          176.7269         estimate D2E/DX2                !
 ! D29   D(13,3,10,2)           -0.4574         estimate D2E/DX2                !
 ! D30   D(31,3,10,1)           -6.1094         estimate D2E/DX2                !
 ! D31   D(31,3,10,2)          176.7064         estimate D2E/DX2                !
 ! D32   D(10,3,13,11)           0.0768         estimate D2E/DX2                !
 ! D33   D(10,3,13,14)        -179.9078         estimate D2E/DX2                !
 ! D34   D(31,3,13,11)        -177.1619         estimate D2E/DX2                !
 ! D35   D(31,3,13,14)           2.8535         estimate D2E/DX2                !
 ! D36   D(10,3,31,32)         -92.0187         estimate D2E/DX2                !
 ! D37   D(10,3,31,38)          88.958          estimate D2E/DX2                !
 ! D38   D(13,3,31,32)          84.8254         estimate D2E/DX2                !
 ! D39   D(13,3,31,38)         -94.1979         estimate D2E/DX2                !
 ! D40   D(9,4,5,1)             54.352          estimate D2E/DX2                !
 ! D41   D(9,4,5,6)             -0.3965         estimate D2E/DX2                !
 ! D42   D(9,4,5,74)          -175.2822         estimate D2E/DX2                !
 ! D43   D(75,4,5,1)          -129.3109         estimate D2E/DX2                !
 ! D44   D(75,4,5,6)           175.9406         estimate D2E/DX2                !
 ! D45   D(75,4,5,74)            1.055          estimate D2E/DX2                !
 ! D46   D(5,4,9,8)             -0.5054         estimate D2E/DX2                !
 ! D47   D(5,4,9,77)           174.1562         estimate D2E/DX2                !
 ! D48   D(75,4,9,8)          -176.8944         estimate D2E/DX2                !
 ! D49   D(75,4,9,77)           -2.2328         estimate D2E/DX2                !
 ! D50   D(4,5,6,7)              0.9593         estimate D2E/DX2                !
 ! D51   D(4,5,6,73)          -173.6275         estimate D2E/DX2                !
 ! D52   D(74,5,6,7)           175.8431         estimate D2E/DX2                !
 ! D53   D(74,5,6,73)            1.2563         estimate D2E/DX2                !
 ! D54   D(5,6,7,8)             -0.6206         estimate D2E/DX2                !
 ! D55   D(5,6,7,72)          -175.1714         estimate D2E/DX2                !
 ! D56   D(73,6,7,8)           173.9682         estimate D2E/DX2                !
 ! D57   D(73,6,7,72)           -0.5825         estimate D2E/DX2                !
 ! D58   D(1,7,8,9)            -57.4382         estimate D2E/DX2                !
 ! D59   D(1,7,8,76)           126.9522         estimate D2E/DX2                !
 ! D60   D(6,7,8,9)             -0.2872         estimate D2E/DX2                !
 ! D61   D(6,7,8,76)          -175.8968         estimate D2E/DX2                !
 ! D62   D(72,7,8,9)           174.2786         estimate D2E/DX2                !
 ! D63   D(72,7,8,76)           -1.331          estimate D2E/DX2                !
 ! D64   D(7,8,9,4)              0.8463         estimate D2E/DX2                !
 ! D65   D(7,8,9,77)          -173.728          estimate D2E/DX2                !
 ! D66   D(76,8,9,4)           176.4612         estimate D2E/DX2                !
 ! D67   D(76,8,9,77)            1.8869         estimate D2E/DX2                !
 ! D68   D(4,9,77,78)           52.9604         estimate D2E/DX2                !
 ! D69   D(4,9,77,79)          174.2172         estimate D2E/DX2                !
 ! D70   D(4,9,77,80)          -66.0986         estimate D2E/DX2                !
 ! D71   D(8,9,77,78)         -132.5132         estimate D2E/DX2                !
 ! D72   D(8,9,77,79)          -11.2564         estimate D2E/DX2                !
 ! D73   D(8,9,77,80)          108.4278         estimate D2E/DX2                !
 ! D74   D(2,11,13,3)            0.3385         estimate D2E/DX2                !
 ! D75   D(2,11,13,14)        -179.6788         estimate D2E/DX2                !
 ! D76   D(12,11,13,3)        -179.081          estimate D2E/DX2                !
 ! D77   D(12,11,13,14)          0.9018         estimate D2E/DX2                !
 ! D78   D(2,15,16,17)         177.5083         estimate D2E/DX2                !
 ! D79   D(2,15,16,23)          -2.4564         estimate D2E/DX2                !
 ! D80   D(22,15,16,17)         -1.7864         estimate D2E/DX2                !
 ! D81   D(22,15,16,23)        178.2489         estimate D2E/DX2                !
 ! D82   D(2,15,22,20)        -178.2801         estimate D2E/DX2                !
 ! D83   D(2,15,22,27)           5.5639         estimate D2E/DX2                !
 ! D84   D(16,15,22,20)          1.0194         estimate D2E/DX2                !
 ! D85   D(16,15,22,27)       -175.1366         estimate D2E/DX2                !
 ! D86   D(15,16,17,18)       -179.3313         estimate D2E/DX2                !
 ! D87   D(15,16,17,19)          0.9974         estimate D2E/DX2                !
 ! D88   D(23,16,17,18)          0.6326         estimate D2E/DX2                !
 ! D89   D(23,16,17,19)       -179.0387         estimate D2E/DX2                !
 ! D90   D(15,16,23,24)        -37.9358         estimate D2E/DX2                !
 ! D91   D(15,16,23,25)       -156.3784         estimate D2E/DX2                !
 ! D92   D(15,16,23,26)         80.4788         estimate D2E/DX2                !
 ! D93   D(17,16,23,24)        142.1011         estimate D2E/DX2                !
 ! D94   D(17,16,23,25)         23.6584         estimate D2E/DX2                !
 ! D95   D(17,16,23,26)        -99.4843         estimate D2E/DX2                !
 ! D96   D(16,17,19,20)          0.528          estimate D2E/DX2                !
 ! D97   D(16,17,19,47)        179.6941         estimate D2E/DX2                !
 ! D98   D(18,17,19,20)       -179.1464         estimate D2E/DX2                !
 ! D99   D(18,17,19,47)          0.0197         estimate D2E/DX2                !
 ! D100  D(17,19,20,21)        178.5295         estimate D2E/DX2                !
 ! D101  D(17,19,20,22)         -1.3328         estimate D2E/DX2                !
 ! D102  D(47,19,20,21)         -0.6365         estimate D2E/DX2                !
 ! D103  D(47,19,20,22)        179.5012         estimate D2E/DX2                !
 ! D104  D(19,20,22,15)          0.5617         estimate D2E/DX2                !
 ! D105  D(19,20,22,27)        176.625          estimate D2E/DX2                !
 ! D106  D(21,20,22,15)       -179.2997         estimate D2E/DX2                !
 ! D107  D(21,20,22,27)         -3.2363         estimate D2E/DX2                !
 ! D108  D(15,22,27,28)        -31.761          estimate D2E/DX2                !
 ! D109  D(15,22,27,29)         85.1717         estimate D2E/DX2                !
 ! D110  D(15,22,27,30)       -151.3256         estimate D2E/DX2                !
 ! D111  D(20,22,27,28)        152.2324         estimate D2E/DX2                !
 ! D112  D(20,22,27,29)        -90.8349         estimate D2E/DX2                !
 ! D113  D(20,22,27,30)         32.6678         estimate D2E/DX2                !
 ! D114  D(16,23,25,57)        169.7105         estimate D2E/DX2                !
 ! D115  D(16,23,25,58)        -71.1493         estimate D2E/DX2                !
 ! D116  D(16,23,25,59)         50.4301         estimate D2E/DX2                !
 ! D117  D(24,23,25,57)         51.6464         estimate D2E/DX2                !
 ! D118  D(24,23,25,58)        170.7865         estimate D2E/DX2                !
 ! D119  D(24,23,25,59)        -67.634          estimate D2E/DX2                !
 ! D120  D(26,23,25,57)        -66.6172         estimate D2E/DX2                !
 ! D121  D(26,23,25,58)         52.5229         estimate D2E/DX2                !
 ! D122  D(26,23,25,59)        174.1024         estimate D2E/DX2                !
 ! D123  D(16,23,26,54)       -179.9866         estimate D2E/DX2                !
 ! D124  D(16,23,26,55)        -59.8675         estimate D2E/DX2                !
 ! D125  D(16,23,26,56)         60.5256         estimate D2E/DX2                !
 ! D126  D(24,23,26,54)        -62.8992         estimate D2E/DX2                !
 ! D127  D(24,23,26,55)         57.2199         estimate D2E/DX2                !
 ! D128  D(24,23,26,56)        177.613          estimate D2E/DX2                !
 ! D129  D(25,23,26,54)         54.4254         estimate D2E/DX2                !
 ! D130  D(25,23,26,55)        174.5445         estimate D2E/DX2                !
 ! D131  D(25,23,26,56)        -65.0624         estimate D2E/DX2                !
 ! D132  D(22,27,29,51)        -51.1762         estimate D2E/DX2                !
 ! D133  D(22,27,29,52)         68.3102         estimate D2E/DX2                !
 ! D134  D(22,27,29,53)       -171.4584         estimate D2E/DX2                !
 ! D135  D(28,27,29,51)         66.0885         estimate D2E/DX2                !
 ! D136  D(28,27,29,52)       -174.425          estimate D2E/DX2                !
 ! D137  D(28,27,29,53)        -54.1936         estimate D2E/DX2                !
 ! D138  D(30,27,29,51)       -176.3817         estimate D2E/DX2                !
 ! D139  D(30,27,29,52)        -56.8953         estimate D2E/DX2                !
 ! D140  D(30,27,29,53)         63.3361         estimate D2E/DX2                !
 ! D141  D(22,27,30,48)        170.8116         estimate D2E/DX2                !
 ! D142  D(22,27,30,49)        -70.0271         estimate D2E/DX2                !
 ! D143  D(22,27,30,50)         51.1896         estimate D2E/DX2                !
 ! D144  D(28,27,30,48)         50.6614         estimate D2E/DX2                !
 ! D145  D(28,27,30,49)        169.8228         estimate D2E/DX2                !
 ! D146  D(28,27,30,50)        -68.9606         estimate D2E/DX2                !
 ! D147  D(29,27,30,48)        -67.1852         estimate D2E/DX2                !
 ! D148  D(29,27,30,49)         51.9761         estimate D2E/DX2                !
 ! D149  D(29,27,30,50)        173.1928         estimate D2E/DX2                !
 ! D150  D(3,31,32,33)        -177.4963         estimate D2E/DX2                !
 ! D151  D(3,31,32,39)           7.3105         estimate D2E/DX2                !
 ! D152  D(38,31,32,33)          1.5029         estimate D2E/DX2                !
 ! D153  D(38,31,32,39)       -173.6903         estimate D2E/DX2                !
 ! D154  D(3,31,38,36)         177.5056         estimate D2E/DX2                !
 ! D155  D(3,31,38,43)          -7.2676         estimate D2E/DX2                !
 ! D156  D(32,31,38,36)         -1.486          estimate D2E/DX2                !
 ! D157  D(32,31,38,43)        173.7408         estimate D2E/DX2                !
 ! D158  D(31,32,33,34)       -179.5645         estimate D2E/DX2                !
 ! D159  D(31,32,33,35)          0.0097         estimate D2E/DX2                !
 ! D160  D(39,32,33,34)         -4.4582         estimate D2E/DX2                !
 ! D161  D(39,32,33,35)        175.116          estimate D2E/DX2                !
 ! D162  D(31,32,39,40)        -29.5663         estimate D2E/DX2                !
 ! D163  D(31,32,39,41)         87.3465         estimate D2E/DX2                !
 ! D164  D(31,32,39,42)       -149.4356         estimate D2E/DX2                !
 ! D165  D(33,32,39,40)        155.4121         estimate D2E/DX2                !
 ! D166  D(33,32,39,41)        -87.6751         estimate D2E/DX2                !
 ! D167  D(33,32,39,42)         35.5428         estimate D2E/DX2                !
 ! D168  D(32,33,35,36)         -1.5048         estimate D2E/DX2                !
 ! D169  D(32,33,35,81)        179.7341         estimate D2E/DX2                !
 ! D170  D(34,33,35,36)        178.072          estimate D2E/DX2                !
 ! D171  D(34,33,35,81)         -0.689          estimate D2E/DX2                !
 ! D172  D(33,35,36,37)       -178.0842         estimate D2E/DX2                !
 ! D173  D(33,35,36,38)          1.5228         estimate D2E/DX2                !
 ! D174  D(81,35,36,37)          0.6763         estimate D2E/DX2                !
 ! D175  D(81,35,36,38)       -179.7167         estimate D2E/DX2                !
 ! D176  D(35,36,38,31)         -0.0431         estimate D2E/DX2                !
 ! D177  D(35,36,38,43)       -175.199          estimate D2E/DX2                !
 ! D178  D(37,36,38,31)        179.5617         estimate D2E/DX2                !
 ! D179  D(37,36,38,43)          4.4058         estimate D2E/DX2                !
 ! D180  D(31,38,43,44)         26.8223         estimate D2E/DX2                !
 ! D181  D(31,38,43,45)        -89.8935         estimate D2E/DX2                !
 ! D182  D(31,38,43,46)        146.9486         estimate D2E/DX2                !
 ! D183  D(36,38,43,44)       -158.1145         estimate D2E/DX2                !
 ! D184  D(36,38,43,45)         85.1697         estimate D2E/DX2                !
 ! D185  D(36,38,43,46)        -37.9882         estimate D2E/DX2                !
 ! D186  D(32,39,41,60)         64.0118         estimate D2E/DX2                !
 ! D187  D(32,39,41,61)       -175.5596         estimate D2E/DX2                !
 ! D188  D(32,39,41,62)        -55.1244         estimate D2E/DX2                !
 ! D189  D(40,39,41,60)       -178.6286         estimate D2E/DX2                !
 ! D190  D(40,39,41,61)        -58.2            estimate D2E/DX2                !
 ! D191  D(40,39,41,62)         62.2352         estimate D2E/DX2                !
 ! D192  D(42,39,41,60)        -60.8648         estimate D2E/DX2                !
 ! D193  D(42,39,41,61)         59.5638         estimate D2E/DX2                !
 ! D194  D(42,39,41,62)        179.9991         estimate D2E/DX2                !
 ! D195  D(32,39,42,63)        -70.0813         estimate D2E/DX2                !
 ! D196  D(32,39,42,64)         51.0818         estimate D2E/DX2                !
 ! D197  D(32,39,42,65)        170.69           estimate D2E/DX2                !
 ! D198  D(40,39,42,63)        169.3358         estimate D2E/DX2                !
 ! D199  D(40,39,42,64)        -69.5011         estimate D2E/DX2                !
 ! D200  D(40,39,42,65)         50.1071         estimate D2E/DX2                !
 ! D201  D(41,39,42,63)         51.2197         estimate D2E/DX2                !
 ! D202  D(41,39,42,64)        172.3828         estimate D2E/DX2                !
 ! D203  D(41,39,42,65)        -68.009          estimate D2E/DX2                !
 ! D204  D(38,43,45,69)         58.2178         estimate D2E/DX2                !
 ! D205  D(38,43,45,70)        178.2742         estimate D2E/DX2                !
 ! D206  D(38,43,45,71)        -60.951          estimate D2E/DX2                !
 ! D207  D(44,43,45,69)        -58.9609         estimate D2E/DX2                !
 ! D208  D(44,43,45,70)         61.0954         estimate D2E/DX2                !
 ! D209  D(44,43,45,71)       -178.1297         estimate D2E/DX2                !
 ! D210  D(46,43,45,69)       -177.1172         estimate D2E/DX2                !
 ! D211  D(46,43,45,70)        -57.0609         estimate D2E/DX2                !
 ! D212  D(46,43,45,71)         63.714          estimate D2E/DX2                !
 ! D213  D(38,43,46,66)         70.1723         estimate D2E/DX2                !
 ! D214  D(38,43,46,67)       -170.5994         estimate D2E/DX2                !
 ! D215  D(38,43,46,68)        -50.9379         estimate D2E/DX2                !
 ! D216  D(44,43,46,66)       -169.2025         estimate D2E/DX2                !
 ! D217  D(44,43,46,67)        -49.9741         estimate D2E/DX2                !
 ! D218  D(44,43,46,68)         69.6874         estimate D2E/DX2                !
 ! D219  D(45,43,46,66)        -50.9398         estimate D2E/DX2                !
 ! D220  D(45,43,46,67)         68.2885         estimate D2E/DX2                !
 ! D221  D(45,43,46,68)       -172.0499         estimate D2E/DX2                !
 --------------------------------------------------------------------------------
 Trust Radius=3.00D-01 FncErr=1.00D-07 GrdErr=1.00D-06 EigMax=2.50D+02 EigMin=1.00D-04
 Number of steps in this run=    473 maximum allowed number of steps=    486.
 GradGradGradGradGradGradGradGradGradGradGradGradGradGradGradGradGradGrad

 Stoichiometry    C34H44N2Ni
 Framework group  C1[X(C34H44N2Ni)]
 Deg. of freedom   237
 Full point group                 C1      NOp   1
 Largest Abelian subgroup         C1      NOp   1
 Largest concise Abelian subgroup C1      NOp   1
                         Standard orientation:                         
 ---------------------------------------------------------------------
 Center     Atomic      Atomic             Coordinates (Angstroms)
 Number     Number       Type             X           Y           Z
 ---------------------------------------------------------------------
      1         28           0       -0.152743   -0.246292    1.382532
      2          7           0       -0.645107    0.250851   -1.542243
      3          7           0        1.465150    0.049935   -1.274963
      4          6           0       -2.003784    0.529956    2.630220
      5          6           0       -0.800136    1.138790    2.991689
      6          6           0        0.300348    0.353820    3.367085
      7          6           0        0.185543   -1.042093    3.355950
      8          6           0       -1.024168   -1.645439    2.984924
      9          6           0       -2.131788   -0.865209    2.627578
     10          6           0        0.296858    0.051394   -0.586772
     11          6           0       -0.081785    0.354827   -2.787892
     12          1           0       -0.668418    0.496012   -3.673305
     13          6           0        1.253999    0.232535   -2.618065
     14          1           0        2.059286    0.258757   -3.323420
     15          6           0       -2.039709    0.341036   -1.283607
     16          6           0       -2.576090    1.551038   -0.830895
     17          6           0       -3.948982    1.620044   -0.638642
     18          1           0       -4.400948    2.538775   -0.300879
     19          6           0       -4.753823    0.519816   -0.868188
     20          6           0       -4.202031   -0.677066   -1.284706
     21          1           0       -4.843252   -1.530930   -1.435615
     22          6           0       -2.836249   -0.785518   -1.505370
     23          6           0       -1.666339    2.729835   -0.568304
     24          1           0       -0.744610    2.329284   -0.128848
     25          6           0       -2.245592    3.740758    0.419037
     26          6           0       -1.325690    3.441538   -1.881863
     27          6           0       -2.189376   -2.095700   -1.888164
     28          1           0       -1.287580   -1.881480   -2.470824
     29          6           0       -1.763940   -2.810113   -0.602085
     30          6           0       -3.083510   -2.995836   -2.739526
     31          6           0        2.760236   -0.060084   -0.699209
     32          6           0        3.448834    1.109916   -0.368046
     33          6           0        4.732889    0.992071    0.144118
     34          1           0        5.287661    1.875825    0.415885
     35          6           0        5.310933   -0.250896    0.319940
     36          6           0        4.604485   -1.398470    0.016174
     37          1           0        5.059542   -2.360709    0.188709
     38          6           0        3.317592   -1.323836   -0.498900
     39          6           0        2.754828    2.447299   -0.468188
     40          1           0        1.997740    2.394443   -1.257152
     41          6           0        2.039712    2.695818    0.863622
     42          6           0        3.694929    3.602814   -0.807679
     43          6           0        2.489916   -2.562681   -0.736933
     44          1           0        1.716375   -2.332796   -1.476357
     45          6           0        1.796608   -2.909967    0.583213
     46          6           0        3.301409   -3.747531   -1.259335
     47          1           0       -5.820120    0.592303   -0.707934
     48          1           0       -2.504322   -3.838528   -3.111308
     49          1           0       -3.913051   -3.393367   -2.160083
     50          1           0       -3.482314   -2.449515   -3.591912
     51          1           0       -1.176225   -2.129859    0.028605
     52          1           0       -2.640938   -3.126706   -0.043245
     53          1           0       -1.161019   -3.684935   -0.833882
     54          1           0       -0.670961    4.288473   -1.687577
     55          1           0       -0.822715    2.774566   -2.576896
     56          1           0       -2.234230    3.810137   -2.355371
     57          1           0       -1.474787    4.456444    0.698076
     58          1           0       -3.072504    4.296308   -0.018744
     59          1           0       -2.591655    3.245044    1.321517
     60          1           0        2.765210    2.778475    1.670087
     61          1           0        1.456572    3.613098    0.819899
     62          1           0        1.371262    1.854908    1.086609
     63          1           0        4.357505    3.832313    0.022893
     64          1           0        4.298718    3.364736   -1.680950
     65          1           0        3.112768    4.495926   -1.025147
     66          1           0        3.961082   -4.144977   -0.492358
     67          1           0        2.628319   -4.545692   -1.565113
     68          1           0        3.901650   -3.455108   -2.118487
     69          1           0        1.177751   -2.052751    0.907523
     70          1           0        1.158308   -3.781933    0.465132
     71          1           0        2.534804   -3.113425    1.355679
     72          1           0        1.002115   -1.655178    3.718233
     73          1           0        1.200229    0.822861    3.745936
     74          1           0       -0.741947    2.218438    3.061955
     75          1           0       -2.873580    1.133779    2.403592
     76          1           0       -1.125957   -2.722653    3.042830
     77          6           0       -3.470666   -1.488314    2.363156
     78          1           0       -3.898916   -1.103935    1.438642
     79          1           0       -3.391037   -2.570940    2.293430
     80          1           0       -4.155495   -1.246439    3.177818
     81          1           0        6.313399   -0.325689    0.715885
 ---------------------------------------------------------------------
 Rotational constants (GHZ):           0.1437639           0.0951200           0.0889217
 Standard basis: def2SVP (5D, 7F)
 There are   796 symmetry adapted cartesian basis functions of A   symmetry.
 There are   755 symmetry adapted basis functions of A   symmetry.
   755 basis functions,  1289 primitive gaussians,   796 cartesian basis functions
   145 alpha electrons      145 beta electrons
       nuclear repulsion energy      5255.1084948146 Hartrees.
 NAtoms=   81 NActive=   81 NUniq=   81 SFac= 1.00D+00 NAtFMM=   60 NAOKFM=T Big=T
 Integral buffers will be    131072 words long.
 Raffenetti 2 integral format.
 Two-electron integral symmetry is turned on.
 One-electron integrals computed using PRISM.
   1 Symmetry operations used in ECPInt.
 ECPInt:  NShTT=   64620 NPrTT=  232861 LenC2=   57678 LenP2D=  137927.
 LDataN:  DoStor=T MaxTD1= 6 Len=  172
 NBasis=   755 RedAO= T EigKep=  1.59D-04  NBF=   755
 NBsUse=   755 1.00D-06 EigRej= -1.00D+00 NBFU=   755
 ExpMin= 3.81D-02 ExpMax= 7.11D+04 ExpMxC= 1.07D+04 IAcc=3 IRadAn=         5 AccDes= 0.00D+00
 Harris functional with IExCor= 1009 and IRadAn=       5 diagonalized for initial guess.
 HarFok:  IExCor= 1009 AccDes= 0.00D+00 IRadAn=         5 IDoV= 1 UseB2=F ITyADJ=14
 ICtDFT=  3500011 ScaDFX=  1.000000  1.000000  1.000000  1.000000
 FoFCou: FMM=F IPFlag=           0 FMFlag=      100000 FMFlg1=        2001
         NFxFlg=           0 DoJE=T BraDBF=F KetDBF=T FulRan=T
         wScrn=  0.000000 ICntrl=       500 IOpCl=  0 I1Cent=   200000004 NGrid=           0
         NMat0=    1 NMatS0=      1 NMatT0=    0 NMatD0=    1 NMtDS0=    0 NMtDT0=    0
 Petite list used in FoFCou.
 Requested convergence on RMS density matrix=1.00D-08 within 128 cycles.
 Requested convergence on MAX density matrix=1.00D-06.
 Requested convergence on             energy=1.00D-06.
 No special actions if energy rises.
 SCF Done:  E(RMN15) =  -2936.93690373     A.U. after   18 cycles
            NFock= 18  Conv=0.77D-08     -V/T= 2.0075

 **********************************************************************

            Population analysis using the SCF Density.

 **********************************************************************

 Orbital symmetries:
       Occupied  (A) (A) (A) (A) (A) (A) (A) (A) (A) (A) (A) (A)
                 (A) (A) (A) (A) (A) (A) (A) (A) (A) (A) (A) (A)
                 (A) (A) (A) (A) (A) (A) (A) (A) (A) (A) (A) (A)
                 (A) (A) (A) (A) (A) (A) (A) (A) (A) (A) (A) (A)
                 (A) (A) (A) (A) (A) (A) (A) (A) (A) (A) (A) (A)
                 (A) (A) (A) (A) (A) (A) (A) (A) (A) (A) (A) (A)
                 (A) (A) (A) (A) (A) (A) (A) (A) (A) (A) (A) (A)
                 (A) (A) (A) (A) (A) (A) (A) (A) (A) (A) (A) (A)
                 (A) (A) (A) (A) (A) (A) (A) (A) (A) (A) (A) (A)
                 (A) (A) (A) (A) (A) (A) (A) (A) (A) (A) (A) (A)
                 (A) (A) (A) (A) (A) (A) (A) (A) (A) (A) (A) (A)
                 (A) (A) (A) (A) (A) (A) (A) (A) (A) (A) (A) (A)
                 (A)
       Virtual   (A) (A) (A) (A) (A) (A) (A) (A) (A) (A) (A) (A)
                 (A) (A) (A) (A) (A) (A) (A) (A) (A) (A) (A) (A)
                 (A) (A) (A) (A) (A) (A) (A) (A) (A) (A) (A) (A)
                 (A) (A) (A) (A) (A) (A) (A) (A) (A) (A) (A) (A)
                 (A) (A) (A) (A) (A) (A) (A) (A) (A) (A) (A) (A)
                 (A) (A) (A) (A) (A) (A) (A) (A) (A) (A) (A) (A)
                 (A) (A) (A) (A) (A) (A) (A) (A) (A) (A) (A) (A)
                 (A) (A) (A) (A) (A) (A) (A) (A) (A) (A) (A) (A)
                 (A) (A) (A) (A) (A) (A) (A) (A) (A) (A) (A) (A)
                 (A) (A) (A) (A) (A) (A) (A) (A) (A) (A) (A) (A)
                 (A) (A) (A) (A) (A) (A) (A) (A) (A) (A) (A) (A)
                 (A) (A) (A) (A) (A) (A) (A) (A) (A) (A) (A) (A)
                 (A) (A) (A) (A) (A) (A) (A) (A) (A) (A) (A) (A)
                 (A) (A) (A) (A) (A) (A) (A) (A) (A) (A) (A) (A)
                 (A) (A) (A) (A) (A) (A) (A) (A) (A) (A) (A) (A)
                 (A) (A) (A) (A) (A) (A) (A) (A) (A) (A) (A) (A)
                 (A) (A) (A) (A) (A) (A) (A) (A) (A) (A) (A) (A)
                 (A) (A) (A) (A) (A) (A) (A) (A) (A) (A) (A) (A)
                 (A) (A) (A) (A) (A) (A) (A) (A) (A) (A) (A) (A)
                 (A) (A) (A) (A) (A) (A) (A) (A) (A) (A) (A) (A)
                 (A) (A) (A) (A) (A) (A) (A) (A) (A) (A) (A) (A)
                 (A) (A) (A) (A) (A) (A) (A) (A) (A) (A) (A) (A)
                 (A) (A) (A) (A) (A) (A) (A) (A) (A) (A) (A) (A)
                 (A) (A) (A) (A) (A) (A) (A) (A) (A) (A) (A) (A)
                 (A) (A) (A) (A) (A) (A) (A) (A) (A) (A) (A) (A)
                 (A) (A) (A) (A) (A) (A) (A) (A) (A) (A) (A) (A)
                 (A) (A) (A) (A) (A) (A) (A) (A) (A) (A) (A) (A)
                 (A) (A) (A) (A) (A) (A) (A) (A) (A) (A) (A) (A)
                 (A) (A) (A) (A) (A) (A) (A) (A) (A) (A) (A) (A)
                 (A) (A) (A) (A) (A) (A) (A) (A) (A) (A) (A) (A)
                 (A) (A) (A) (A) (A) (A) (A) (A) (A) (A) (A) (A)
                 (A) (A) (A) (A) (A) (A) (A) (A) (A) (A) (A) (A)
                 (A) (A) (A) (A) (A) (A) (A) (A) (A) (A) (A) (A)
                 (A) (A) (A) (A) (A) (A) (A) (A) (A) (A) (A) (A)
                 (A) (A) (A) (A) (A) (A) (A) (A) (A) (A) (A) (A)
                 (A) (A) (A) (A) (A) (A) (A) (A) (A) (A) (A) (A)
                 (A) (A) (A) (A) (A) (A) (A) (A) (A) (A) (A) (A)
                 (A) (A) (A) (A) (A) (A) (A) (A) (A) (A) (A) (A)
                 (A) (A) (A) (A) (A) (A) (A) (A) (A) (A) (A) (A)
                 (A) (A) (A) (A) (A) (A) (A) (A) (A) (A) (A) (A)
                 (A) (A) (A) (A) (A) (A) (A) (A) (A) (A) (A) (A)
                 (A) (A) (A) (A) (A) (A) (A) (A) (A) (A) (A) (A)
                 (A) (A) (A) (A) (A) (A) (A) (A) (A) (A) (A) (A)
                 (A) (A) (A) (A) (A) (A) (A) (A) (A) (A) (A) (A)
                 (A) (A) (A) (A) (A) (A) (A) (A) (A) (A) (A) (A)
                 (A) (A) (A) (A) (A) (A) (A) (A) (A) (A) (A) (A)
                 (A) (A) (A) (A) (A) (A) (A) (A) (A) (A) (A) (A)
                 (A) (A) (A) (A) (A) (A) (A) (A) (A) (A) (A) (A)
                 (A) (A) (A) (A) (A) (A) (A) (A) (A) (A) (A) (A)
                 (A) (A) (A) (A) (A) (A) (A) (A) (A) (A) (A) (A)
                 (A) (A) (A) (A) (A) (A) (A) (A) (A) (A)
 The electronic state is 1-A.
 Alpha  occ. eigenvalues -- -297.46670 -34.78721 -30.82148 -30.82024 -30.80850
 Alpha  occ. eigenvalues --  -14.15372 -14.15362 -10.08920 -10.08777 -10.08670
 Alpha  occ. eigenvalues --  -10.08662 -10.08590 -10.05962 -10.05902 -10.05646
 Alpha  occ. eigenvalues --  -10.05561 -10.05314 -10.05309 -10.05224 -10.05150
 Alpha  occ. eigenvalues --  -10.04980 -10.04930 -10.04890 -10.04879 -10.04827
 Alpha  occ. eigenvalues --  -10.04538 -10.04526 -10.04493 -10.04450 -10.04295
 Alpha  occ. eigenvalues --  -10.04259 -10.03965 -10.03916 -10.03891 -10.03833
 Alpha  occ. eigenvalues --  -10.03774 -10.03535 -10.03443 -10.02662 -10.02622
 Alpha  occ. eigenvalues --  -10.01991  -3.70883  -2.46602  -2.46416  -2.44384
 Alpha  occ. eigenvalues --   -1.08062  -0.97817  -0.91191  -0.89371  -0.89212
 Alpha  occ. eigenvalues --   -0.85512  -0.85238  -0.82871  -0.82311  -0.81298
 Alpha  occ. eigenvalues --   -0.80019  -0.78011  -0.77247  -0.76269  -0.76007
 Alpha  occ. eigenvalues --   -0.75548  -0.71967  -0.71502  -0.71443  -0.70967
 Alpha  occ. eigenvalues --   -0.70890  -0.69487  -0.67266  -0.66574  -0.66446
 Alpha  occ. eigenvalues --   -0.63236  -0.63100  -0.62598  -0.61641  -0.60896
 Alpha  occ. eigenvalues --   -0.60556  -0.58538  -0.57303  -0.56965  -0.55587
 Alpha  occ. eigenvalues --   -0.55147  -0.54800  -0.53316  -0.52864  -0.50097
 Alpha  occ. eigenvalues --   -0.49723  -0.49286  -0.49237  -0.49050  -0.48449
 Alpha  occ. eigenvalues --   -0.48415  -0.48055  -0.47622  -0.47592  -0.47216
 Alpha  occ. eigenvalues --   -0.47029  -0.46882  -0.46522  -0.45762  -0.45501
 Alpha  occ. eigenvalues --   -0.45094  -0.44634  -0.44212  -0.44135  -0.43535
 Alpha  occ. eigenvalues --   -0.42912  -0.42393  -0.42294  -0.42117  -0.41526
 Alpha  occ. eigenvalues --   -0.41310  -0.41156  -0.40894  -0.40719  -0.40549
 Alpha  occ. eigenvalues --   -0.39972  -0.39767  -0.38841  -0.37860  -0.37687
 Alpha  occ. eigenvalues --   -0.37353  -0.37261  -0.36886  -0.36771  -0.36475
 Alpha  occ. eigenvalues --   -0.36281  -0.36152  -0.35916  -0.35593  -0.35380
 Alpha  occ. eigenvalues --   -0.35124  -0.32775  -0.31519  -0.30494  -0.29544
 Alpha  occ. eigenvalues --   -0.28539  -0.28259  -0.27772  -0.27568  -0.27287
 Alpha  occ. eigenvalues --   -0.19822  -0.19739  -0.18255  -0.17098  -0.16433
 Alpha virt. eigenvalues --    0.00988   0.01576   0.01832   0.02108   0.03360
 Alpha virt. eigenvalues --    0.03746   0.05255   0.05387   0.07079   0.08704
 Alpha virt. eigenvalues --    0.09018   0.10202   0.10600   0.11083   0.11618
 Alpha virt. eigenvalues --    0.11902   0.12248   0.12861   0.13393   0.13584
 Alpha virt. eigenvalues --    0.14377   0.14655   0.15074   0.15354   0.15692
 Alpha virt. eigenvalues --    0.15775   0.15952   0.16135   0.16461   0.16481
 Alpha virt. eigenvalues --    0.17148   0.17325   0.17779   0.17880   0.18254
 Alpha virt. eigenvalues --    0.18410   0.18598   0.18837   0.19290   0.19528
 Alpha virt. eigenvalues --    0.19775   0.19975   0.20384   0.20779   0.21363
 Alpha virt. eigenvalues --    0.21487   0.22058   0.22328   0.22768   0.22882
 Alpha virt. eigenvalues --    0.23220   0.23364   0.23414   0.23967   0.24038
 Alpha virt. eigenvalues --    0.24365   0.24506   0.24665   0.25051   0.25533
 Alpha virt. eigenvalues --    0.25963   0.26366   0.26414   0.26856   0.27985
 Alpha virt. eigenvalues --    0.28353   0.28990   0.29455   0.29699   0.30395
 Alpha virt. eigenvalues --    0.30535   0.30738   0.31900   0.32349   0.33200
 Alpha virt. eigenvalues --    0.33710   0.33990   0.34185   0.34439   0.34906
 Alpha virt. eigenvalues --    0.35646   0.35964   0.36125   0.36789   0.37194
 Alpha virt. eigenvalues --    0.37836   0.38071   0.38598   0.39271   0.39957
 Alpha virt. eigenvalues --    0.40415   0.40881   0.41371   0.41668   0.42429
 Alpha virt. eigenvalues --    0.42656   0.43461   0.43669   0.44494   0.44876
 Alpha virt. eigenvalues --    0.45494   0.46077   0.46376   0.46665   0.46967
 Alpha virt. eigenvalues --    0.47346   0.47935   0.48210   0.48274   0.48736
 Alpha virt. eigenvalues --    0.49119   0.49247   0.49428   0.49882   0.50186
 Alpha virt. eigenvalues --    0.50639   0.50925   0.51596   0.52291   0.52795
 Alpha virt. eigenvalues --    0.53107   0.53505   0.54090   0.54623   0.54912
 Alpha virt. eigenvalues --    0.55734   0.56597   0.56865   0.57169   0.57387
 Alpha virt. eigenvalues --    0.57416   0.58025   0.58316   0.58857   0.59287
 Alpha virt. eigenvalues --    0.59981   0.60330   0.60872   0.61304   0.61918
 Alpha virt. eigenvalues --    0.62294   0.62802   0.63168   0.63660   0.64058
 Alpha virt. eigenvalues --    0.64185   0.64787   0.65183   0.65581   0.65903
 Alpha virt. eigenvalues --    0.66163   0.66437   0.66600   0.66990   0.67259
 Alpha virt. eigenvalues --    0.67655   0.68071   0.68287   0.68635   0.68848
 Alpha virt. eigenvalues --    0.69009   0.69176   0.69355   0.69496   0.69772
 Alpha virt. eigenvalues --    0.69952   0.70123   0.70652   0.70759   0.70935
 Alpha virt. eigenvalues --    0.71223   0.71432   0.71757   0.72172   0.72225
 Alpha virt. eigenvalues --    0.72660   0.72876   0.73050   0.73137   0.73316
 Alpha virt. eigenvalues --    0.73496   0.73653   0.73739   0.73883   0.74424
 Alpha virt. eigenvalues --    0.74617   0.74862   0.75156   0.75474   0.75508
 Alpha virt. eigenvalues --    0.75912   0.76081   0.76239   0.76316   0.76929
 Alpha virt. eigenvalues --    0.77273   0.77466   0.77691   0.77948   0.78288
 Alpha virt. eigenvalues --    0.78470   0.78944   0.79207   0.79546   0.79815
 Alpha virt. eigenvalues --    0.80077   0.80270   0.80601   0.81029   0.81389
 Alpha virt. eigenvalues --    0.81699   0.82065   0.82235   0.82722   0.83486
 Alpha virt. eigenvalues --    0.83947   0.84112   0.84237   0.84694   0.84908
 Alpha virt. eigenvalues --    0.85236   0.85551   0.86212   0.86309   0.86550
 Alpha virt. eigenvalues --    0.87213   0.87396   0.87806   0.89163   0.90207
 Alpha virt. eigenvalues --    0.90933   0.91415   0.91719   0.92531   0.93253
 Alpha virt. eigenvalues --    0.94119   0.94593   0.94910   0.95547   0.97128
 Alpha virt. eigenvalues --    0.97867   0.98260   0.99126   1.00219   1.00533
 Alpha virt. eigenvalues --    1.01598   1.01883   1.03738   1.04023   1.04819
 Alpha virt. eigenvalues --    1.05188   1.06167   1.06489   1.07674   1.08515
 Alpha virt. eigenvalues --    1.09559   1.10082   1.10841   1.12512   1.12823
 Alpha virt. eigenvalues --    1.14317   1.14608   1.14835   1.15224   1.16064
 Alpha virt. eigenvalues --    1.16252   1.16605   1.17158   1.18195   1.18443
 Alpha virt. eigenvalues --    1.19587   1.20478   1.21947   1.22464   1.22672
 Alpha virt. eigenvalues --    1.23584   1.24291   1.24923   1.25185   1.26071
 Alpha virt. eigenvalues --    1.26418   1.27255   1.27450   1.27903   1.28379
 Alpha virt. eigenvalues --    1.28881   1.29658   1.30425   1.31281   1.32155
 Alpha virt. eigenvalues --    1.32639   1.33210   1.34022   1.34988   1.36317
 Alpha virt. eigenvalues --    1.36717   1.37133   1.37761   1.38603   1.40311
 Alpha virt. eigenvalues --    1.41341   1.41985   1.43110   1.43424   1.44417
 Alpha virt. eigenvalues --    1.44938   1.46548   1.47357   1.47459   1.48707
 Alpha virt. eigenvalues --    1.49533   1.49682   1.50718   1.52054   1.52961
 Alpha virt. eigenvalues --    1.53210   1.54319   1.54658   1.56210   1.57192
 Alpha virt. eigenvalues --    1.57323   1.57630   1.57748   1.58135   1.58443
 Alpha virt. eigenvalues --    1.58994   1.59465   1.59783   1.60224   1.60876
 Alpha virt. eigenvalues --    1.61321   1.61514   1.63217   1.64586   1.65241
 Alpha virt. eigenvalues --    1.66616   1.66999   1.68264   1.68645   1.69050
 Alpha virt. eigenvalues --    1.69489   1.70686   1.71019   1.71281   1.71625
 Alpha virt. eigenvalues --    1.71872   1.72017   1.72380   1.72545   1.72851
 Alpha virt. eigenvalues --    1.73259   1.73877   1.74045   1.74759   1.74934
 Alpha virt. eigenvalues --    1.75110   1.75318   1.75628   1.76018   1.76455
 Alpha virt. eigenvalues --    1.76563   1.77098   1.77444   1.77711   1.78197
 Alpha virt. eigenvalues --    1.78219   1.78765   1.79296   1.80053   1.80336
 Alpha virt. eigenvalues --    1.80666   1.80853   1.81141   1.81377   1.81693
 Alpha virt. eigenvalues --    1.82207   1.82617   1.82976   1.83225   1.83353
 Alpha virt. eigenvalues --    1.83554   1.83974   1.84113   1.84285   1.84457
 Alpha virt. eigenvalues --    1.84816   1.85352   1.85462   1.86024   1.86259
 Alpha virt. eigenvalues --    1.87224   1.87329   1.87690   1.87966   1.88383
 Alpha virt. eigenvalues --    1.89097   1.89321   1.89682   1.90041   1.90330
 Alpha virt. eigenvalues --    1.90514   1.91241   1.91487   1.91942   1.92261
 Alpha virt. eigenvalues --    1.92451   1.92840   1.93118   1.93255   1.93542
 Alpha virt. eigenvalues --    1.94514   1.94726   1.95119   1.95409   1.95575
 Alpha virt. eigenvalues --    1.95822   1.96138   1.96428   1.96835   1.97325
 Alpha virt. eigenvalues --    1.97569   1.98296   1.98954   2.00173   2.00440
 Alpha virt. eigenvalues --    2.00558   2.01086   2.01518   2.01887   2.02069
 Alpha virt. eigenvalues --    2.03118   2.03293   2.04231   2.04977   2.05445
 Alpha virt. eigenvalues --    2.05582   2.06584   2.06997   2.07069   2.07232
 Alpha virt. eigenvalues --    2.07539   2.07817   2.08882   2.09263   2.09666
 Alpha virt. eigenvalues --    2.10542   2.11618   2.12277   2.12330   2.13412
 Alpha virt. eigenvalues --    2.14248   2.15408   2.16334   2.16787   2.17532
 Alpha virt. eigenvalues --    2.18217   2.18664   2.18886   2.19165   2.19560
 Alpha virt. eigenvalues --    2.20114   2.20401   2.20812   2.21703   2.22409
 Alpha virt. eigenvalues --    2.23390   2.23857   2.24930   2.25670   2.25972
 Alpha virt. eigenvalues --    2.27153   2.27362   2.28006   2.28503   2.29206
 Alpha virt. eigenvalues --    2.29386   2.30060   2.30173   2.30305   2.31182
 Alpha virt. eigenvalues --    2.31711   2.32067   2.32728   2.33860   2.34278
 Alpha virt. eigenvalues --    2.35563   2.36049   2.36542   2.36781   2.37249
 Alpha virt. eigenvalues --    2.37932   2.38254   2.38488   2.39089   2.39942
 Alpha virt. eigenvalues --    2.40761   2.41470   2.41829   2.42293   2.42561
 Alpha virt. eigenvalues --    2.43548   2.43890   2.44414   2.45510   2.46067
 Alpha virt. eigenvalues --    2.46774   2.47324   2.48240   2.48665   2.49537
 Alpha virt. eigenvalues --    2.50616   2.53062   2.53156   2.53560   2.53978
 Alpha virt. eigenvalues --    2.54768   2.55701   2.56254   2.56346   2.57209
 Alpha virt. eigenvalues --    2.58557   2.58892   2.59027   2.59382   2.59534
 Alpha virt. eigenvalues --    2.60536   2.60733   2.61161   2.61797   2.61945
 Alpha virt. eigenvalues --    2.62486   2.62695   2.63069   2.63413   2.64320
 Alpha virt. eigenvalues --    2.67227   2.67807   2.67966   2.68263   2.72377
 Alpha virt. eigenvalues --    2.73016   2.73349   2.74583   2.75197   2.75446
 Alpha virt. eigenvalues --    2.76106   2.76454   2.77182   2.77516   2.79532
 Alpha virt. eigenvalues --    2.79988   2.81295   2.81680   2.82317   2.83013
 Alpha virt. eigenvalues --    2.83438   2.84165   2.84710   2.85539   2.86459
 Alpha virt. eigenvalues --    2.86968   2.87405   2.87614   2.88116   2.88422
 Alpha virt. eigenvalues --    2.89264   2.90046   2.90538   2.91224   2.92120
 Alpha virt. eigenvalues --    2.92652   2.93107   2.93416   2.93843   2.95750
 Alpha virt. eigenvalues --    2.97220   2.97918   2.98302   2.99298   2.99533
 Alpha virt. eigenvalues --    2.99847   3.00334   3.00740   3.01652   3.02345
 Alpha virt. eigenvalues --    3.02846   3.03317   3.04695   3.06113   3.07999
 Alpha virt. eigenvalues --    3.08207   3.08798   3.09208   3.11508   3.17796
 Alpha virt. eigenvalues --    3.20013   3.20568   3.27373   3.28252   3.43896
 Alpha virt. eigenvalues --    3.52455   3.52896   3.54281   5.64413   5.65654
 Alpha virt. eigenvalues --    5.66071   5.66615   5.66817   5.67213   5.68242
          Condensed to atoms (all electrons):
 Mulliken charges:
               1
     1  Ni  -0.011864
     2  N   -0.156945
     3  N   -0.156587
     4  C    0.023126
     5  C    0.029910
     6  C    0.029954
     7  C    0.023998
     8  C   -0.007362
     9  C   -0.123721
    10  C    0.010624
    11  C    0.111352
    12  H    0.012954
    13  C    0.086105
    14  H    0.003783
    15  C   -0.044943
    16  C    0.090659
    17  C   -0.078699
    18  H   -0.048380
    19  C    0.072630
    20  C   -0.060840
    21  H   -0.047885
    22  C    0.061084
    23  C   -0.082173
    24  H   -0.023731
    25  C    0.087318
    26  C    0.103775
    27  C   -0.109518
    28  H   -0.012595
    29  C    0.137628
    30  C    0.079873
    31  C   -0.037386
    32  C    0.076064
    33  C   -0.070045
    34  H   -0.048854
    35  C    0.075497
    36  C   -0.066634
    37  H   -0.048119
    38  C    0.077724
    39  C   -0.109884
    40  H   -0.026049
    41  C    0.136794
    42  C    0.080586
    43  C   -0.107525
    44  H   -0.022039
    45  C    0.141160
    46  C    0.080420
    47  H   -0.032379
    48  H    0.006549
    49  H    0.005833
    50  H    0.006465
    51  H   -0.021197
    52  H   -0.024173
    53  H   -0.002169
    54  H    0.002490
    55  H   -0.008024
    56  H   -0.005076
    57  H    0.003670
    58  H    0.002979
    59  H   -0.000287
    60  H   -0.016035
    61  H   -0.012523
    62  H    0.014643
    63  H    0.005955
    64  H    0.007087
    65  H    0.004699
    66  H    0.004494
    67  H    0.004810
    68  H    0.005612
    69  H   -0.004382
    70  H   -0.009702
    71  H   -0.018956
    72  H   -0.022179
    73  H   -0.021684
    74  H   -0.036110
    75  H   -0.056594
    76  H   -0.042778
    77  C    0.142152
    78  H   -0.000350
    79  H    0.000752
    80  H    0.016902
    81  H   -0.031735
 Sum of Mulliken charges =  -0.00000
 Mulliken charges with hydrogens summed into heavy atoms:
               1
     1  Ni  -0.011864
     2  N   -0.156945
     3  N   -0.156587
     4  C   -0.033467
     5  C   -0.006200
     6  C    0.008270
     7  C    0.001819
     8  C   -0.050140
     9  C   -0.123721
    10  C    0.010624
    11  C    0.124306
    13  C    0.089889
    15  C   -0.044943
    16  C    0.090659
    17  C   -0.127079
    19  C    0.040251
    20  C   -0.108725
    22  C    0.061084
    23  C   -0.105904
    25  C    0.093680
    26  C    0.093165
    27  C   -0.122113
    29  C    0.090090
    30  C    0.098720
    31  C   -0.037386
    32  C    0.076064
    33  C   -0.118899
    35  C    0.043762
    36  C   -0.114753
    38  C    0.077724
    39  C   -0.135932
    41  C    0.122878
    42  C    0.098327
    43  C   -0.129564
    45  C    0.108119
    46  C    0.095336
    77  C    0.159456
 Electronic spatial extent (au):  <R**2>=          15134.5024
 Charge=              0.0000 electrons
 Dipole moment (field-independent basis, Debye):
    X=             -0.2021    Y=              0.4387    Z=             -2.1932  Tot=              2.2458
 Quadrupole moment (field-independent basis, Debye-Ang):
   XX=           -221.2357   YY=           -226.0928   ZZ=           -231.9455
   XY=              0.2511   XZ=              1.4079   YZ=              0.5790
 Traceless Quadrupole moment (field-independent basis, Debye-Ang):
   XX=              5.1889   YY=              0.3319   ZZ=             -5.5208
   XY=              0.2511   XZ=              1.4079   YZ=              0.5790
 Octapole moment (field-independent basis, Debye-Ang**2):
  XXX=            -13.0759  YYY=             -5.1589  ZZZ=             -1.0078  XYY=             -3.9964
  XXY=             -2.7303  XXZ=             33.9152  XZZ=             13.2453  YZZ=             -5.3613
  YYZ=             20.4332  XYZ=             -3.0283
 Hexadecapole moment (field-independent basis, Debye-Ang**3):
 XXXX=         -10195.1081 YYYY=          -5955.5503 ZZZZ=          -4530.1130 XXXY=            -13.4768
 XXXZ=             83.6957 YYYX=             -7.0599 YYYZ=             -5.5452 ZZZX=              4.9314
 ZZZY=            -18.2947 XXYY=          -2711.0979 XXZZ=          -2573.5763 YYZZ=          -1747.1601
 XXYZ=              3.7507 YYXZ=              8.6365 ZZXY=             17.3936
 N-N= 5.255108494815D+03 E-N=-1.741579445654D+04  KE= 2.915156394289D+03
   1 Symmetry operations used in ECPInt.
 ECPInt:  NShTT=   64620 NPrTT=  232861 LenC2=   57678 LenP2D=  137927.
 LDataN:  DoStor=T MaxTD1= 7 Len=  274
 Calling FoFJK, ICntrl=      2127 FMM=T ISym2X=0 I1Cent= 0 IOpClX= 0 NMat=1 NMatS=1 NMatT=0.
 ***** Axes restored to original set *****
 -------------------------------------------------------------------
 Center     Atomic                   Forces (Hartrees/Bohr)
 Number     Number              X              Y              Z
 -------------------------------------------------------------------
      1       28           0.004680449   -0.008863260   -0.000221525
      2        7          -0.001430546   -0.000699868    0.003364018
      3        7          -0.000518267    0.000586428    0.007205914
      4        6           0.000160106   -0.000433227   -0.002314800
      5        6          -0.000135347   -0.002604522   -0.001321772
      6        6          -0.002670681   -0.002671726   -0.001298493
      7        6          -0.002506447    0.000149827   -0.002446300
      8        6          -0.000346523   -0.001136851   -0.005171158
      9        6           0.004546574    0.003298488   -0.002475756
     10        6          -0.007742392    0.014098762    0.045106771
     11        6          -0.003946758   -0.001985204   -0.009936862
     12        1           0.009665920   -0.001097001   -0.006954169
     13        6           0.007666396    0.000038134   -0.007150149
     14        1          -0.005349250   -0.002527421   -0.010569331
     15        6           0.002961330    0.001215062    0.002470798
     16        6          -0.008022744   -0.005730710    0.000068149
     17        6           0.000248995   -0.001463787    0.001504152
     18        1           0.003444594   -0.007767589    0.005374517
     19        6           0.003025047    0.001425974    0.001815498
     20        6           0.001986780    0.000941883   -0.001018983
     21        1           0.004104738    0.009167085   -0.001056076
     22        6          -0.006087469    0.003083204   -0.007800474
     23        6           0.005037796   -0.005847831   -0.000602018
     24        1          -0.003519297    0.001613321    0.000587952
     25        6          -0.004801373    0.006846493   -0.008068687
     26        6          -0.003898470    0.005250863    0.007161258
     27        6           0.003722095    0.007874852    0.004248387
     28        1          -0.002553992   -0.002377549   -0.002740401
     29        6          -0.000240558   -0.008640562   -0.007357764
     30        6          -0.006826826   -0.009094823    0.001366922
     31        6          -0.004122532    0.000148147    0.002246758
     32        6           0.008849688   -0.004899529   -0.001401750
     33        6          -0.000429195   -0.001840547   -0.000399787
     34        1          -0.003435222   -0.009598484    0.001226799
     35        6          -0.003268353   -0.000070116    0.001310368
     36        6          -0.000879091    0.001157281   -0.000750835
     37        1          -0.005500584    0.008597628   -0.001393129
     38        6           0.008153239    0.006322884   -0.002861946
     39        6          -0.006220357   -0.006243898    0.004872583
[...]
 12919,-0.00000519,-0.00000831,-0.00001455,0.00004185,0.00000663,-0.000
 03213,0.00000787,0.00000110,-0.00000949,-0.00026935,-0.00012998,-0.000
 09048,0.00001840,-0.00006764,-0.00000732,0.00006680,-0.00001071,-0.000
 05548,-0.00000854,0.00001988,0.00000818,0.00003080,-0.00009120,0.00007
 652,0.00001426,0.00011198,0.00008583,0.00001857,-0.00000635,-0.0000061
 0,-0.00003948,0.00007516,-0.00000041,-0.00001602,-0.00000158,0.0000083
 8,-0.00001024,0.00005284,0.00001363,0.00001906,0.00001133,0.00001220,0
 .00001889,0.00001497,-0.00001023,0.00001271,-0.00000322,-0.00007924,-0
 .00000493,-0.00000538,0.00002330,0.00005653,-0.00015768,0.00006277,0.0
 0000777,0.00000129,0.00000200,0.00007748,0.00000450,-0.00000287,-0.000
 01727,0.00000402,0.00000435,0.00000704,0.00000033,-0.00000932,0.000000
 18,-0.00000164,0.00000303,0.00000252,0.00000454,-0.00000106,-0.0000013
 5,-0.00000427,-0.00000308,-0.00000352,0.00000230,0.00000106,-0.0000034
 1,-0.00001214,0.00000621,0.00000268,0.00000059,0.00000865,-0.00000670,
 0.00001253,0.00000580,0.00000236,0.00000127,0.00001526,-0.00000147,0.0
 0000540,0.00000135,-0.00000706,0.00000808,0.00000846,0.00000109,-0.000
 00400,-0.00000028,0.00001032,-0.00001348,-0.00000867,0.00000198,-0.000
 00810,-0.00000404,-0.00002714,0.00001123,0.00000264,0.00000009,-0.0000
 0186,0.00000054,0.00000787,0.00000541,0.00000250,-0.00000335,0.0000030
 7,0.00000234,-0.00011437,-0.00006835,0.00000790,0.00007070,0.00010998,
 0.00002870,-0.00000639,0.00000983,0.00009420,-0.00000014,0.00000795,0.
 00000613,-0.00000645,0.00000140,-0.00000155,0.00000666,-0.00000905,-0.
 00000376,-0.00000259,0.00000710,-0.00000523,0.00000955,-0.00001146,-0.
 00000432,-0.00001071,0.00000509,-0.00001112,-0.00000521,-0.00000646,-0
 .00000422,0.00000323,-0.00001073,-0.00000694,-0.00000450,0.00001826,-0
 .00001117,-0.00000309,-0.00000247,-0.00000041,0.00000024,0.00000155,-0
 .00000372,0.00000277,-0.00000434,0.00000009,-0.00000236,-0.00000064,0.
 00000189,0.00000149,0.00000591,-0.00000229,-0.00000451,-0.00000076,-0.
 00000354,-0.00000321,-0.00002628,0.00002533,-0.00000307,0.00001702,-0.
 00001203,0.00000018,-0.00000269,0.00000293,-0.00013677,-0.00005384,0.0
 0000177,0.00002229,-0.00003472,-0.00008423,0.00000454,-0.00003080,0.00
 000611,0.00024279,-0.00014420,-0.00033208,0.00003950,-0.00007736,-0.00
 060815,-0.06907494,-0.00678456,-0.08325431,0.00822754,0.00055383,0.021
 16689,-0.00281493,-0.00128533,-0.00552897,0.07488996,-0.00030393,-0.00
 050028,-0.00070042,0.00021510,-0.00001888,-0.00008187,-0.00011254,-0.0
 0000259,-0.00014756,-0.00019442,0.00058908,0.00001648,-0.00008777,0.00
 028459,0.00016244,-0.00065300,0.00020785,0.00052691,-0.00057083,-0.000
 92948,-0.00010983,0.00147534,-0.00027717,0.00008458,-0.00694121,-0.002
 02153,-0.01741827,-0.00014849,0.00010992,0.00078748,0.00000346,-0.0000
 2764,-0.00009744,-0.00000083,-0.00000818,-0.00001444,0.00002629,0.0000
 0122,-0.00002829,0.00000490,0.00000048,-0.00000786,-0.00012052,0.00001
 066,-0.00003745,-0.00002104,0.00000920,0.00001298,-0.00004247,0.000022
 76,0.00003333,0.00001129,-0.00002717,-0.00000816,0.00000530,0.00004657
 ,0.00001317,0.00000126,0.00002676,-0.00004238,0.00001428,0.00000120,0.
 00000442,0.00006319,-0.00011018,0.00004324,-0.00000968,0.00000650,-0.0
 0001168,-0.00000355,0.00003705,0.00000672,0.00001184,-0.00000785,-0.00
 002538,0.00001654,-0.00000386,0.00000212,0.00009641,-0.00006687,0.0000
 7617,-0.00004435,0.00002882,0.00005141,-0.00013296,-0.00005888,0.00017
 602,-0.00001712,0.00004628,0.00001007,0.00006017,0.00000490,0.00000598
 ,-0.00001653,0.00000685,0.00000157,0.00000727,0.00000174,-0.00000951,-
 0.00000104,-0.00000025,0.00000284,0.00000128,0.00000083,-0.00000308,0.
 00000102,0.00000028,-0.00000579,-0.00000320,0.00000032,0.00000218,-0.0
 0000517,-0.00001956,0.00000880,0.00000120,0.00000303,0.00000601,-0.000
 00423,0.00001048,0.00000385,0.00000370,-0.00000139,0.00001297,-0.00000
 097,0.00000305,0.00000264,0.00000107,-0.00000222,0.00000328,0.,-0.0000
 0492,-0.00000385,-0.00000499,0.00000456,0.00000247,0.00000088,0.000000
 63,0.00000168,0.00003019,0.00000110,-0.00001270,0.00000693,0.00000322,
 -0.00000694,0.00001431,-0.00000115,-0.00000508,-0.00002239,-0.00000413
 ,0.00001444,-0.00015434,-0.00020121,-0.00006935,0.00026550,0.00020051,
 0.00004843,-0.00000346,0.00000581,0.00011741,-0.00000108,0.00000512,0.
 00000142,-0.00000495,0.00000321,0.00000530,0.00000558,-0.00000720,-0.0
 0000560,0.00000067,0.00000890,0.00000501,0.00000946,-0.00000895,0.0000
 0061,-0.00001480,0.00000421,0.00000754,-0.00000101,-0.00000150,-0.0000
 0011,0.00000303,-0.00001108,-0.00000652,-0.00000583,0.00002683,-0.0000
 1244,-0.00000133,-0.00000117,-0.00000070,-0.00000010,0.00000113,-0.000
 00156,0.00000211,-0.00000449,-0.00000074,0.00000023,-0.00000106,-0.000
 00026,-0.00000049,0.00000544,-0.00000290,-0.00000030,-0.00000099,0.000
 00022,-0.00000481,-0.00005128,0.00002781,-0.00001054,0.00002629,-0.000
 01759,0.00000932,0.00000180,0.00000090,-0.00006982,-0.00001214,0.00008
 281,0.00001832,-0.00000700,0.00001563,0.00000745,-0.00002933,0.0000213
 4,0.00033284,-0.00032421,-0.00008629,-0.00011969,0.00009161,0.00005630
 ,-0.00699555,-0.04536089,-0.02152893,-0.00466652,-0.00119634,-0.010590
 62,0.00808589,0.00416972,0.02613511,0.01070472,0.04529173,-0.00035347,
 -0.00031864,0.00009011,0.00003455,-0.00004866,-0.00005111,-0.00008312,
 -0.00000899,-0.00004766,0.00022383,0.00107433,0.00075823,-0.00056034,-
 0.00037494,-0.00007860,0.00023297,-0.00006816,0.00025773,-0.00002765,-
 0.00009858,-0.00021946,0.00045264,-0.00033225,-0.00014341,-0.00031837,
 -0.00054864,0.00254366,0.00006602,0.00013195,0.00029355,-0.00000260,-0
 .00000607,-0.00000308,-0.00000037,0.00000423,-0.00000335,0.00001428,-0
 .00001297,-0.00003636,0.00000107,0.00000121,-0.00000280,0.00004507,0.0
 0009921,0.00002879,-0.00000864,0.00004067,0.00002139,-0.00004487,0.000
 00502,0.00005698,0.00001034,-0.00003614,-0.00000707,-0.00003788,0.0000
 9166,-0.00007745,0.00000268,-0.00011413,-0.00006289,-0.00001145,0.0000
 1836,-0.00000803,0.00005028,-0.00002246,-0.00000827,0.00001138,0.00001
 225,-0.00001269,-0.00000663,0.00001468,0.00001283,-0.00000295,-0.00001
 082,-0.00002077,-0.00000020,-0.00000621,0.00001208,-0.00006666,0.00004
 192,0.00001873,0.00002832,-0.00001828,-0.00003351,0.00005640,0.0001419
 5,-0.00001316,-0.00000170,-0.00004599,-0.00001726,0.00006372,0.0000111
 5,0.00000501,-0.00001389,0.00000490,-0.00000067,0.00000308,-0.00000103
 ,-0.00000333,-0.00000075,-0.00000325,0.00000240,0.00000099,0.00000343,
 -0.00000050,-0.00000052,-0.00000675,0.00000071,-0.00000188,0.00000303,
 0.00000092,-0.00000489,-0.00000349,-0.00000602,0.00000494,0.00000260,0
 .00000222,-0.00000581,0.00000905,0.00000461,-0.00000388,0.00000407,0.0
 0000714,-0.00000110,0.00000292,0.00000179,0.00000257,0.00000476,0.0000
 0821,0.00000052,-0.00000092,0.00000538,0.00000187,-0.00000319,-0.00000
 035,0.00000146,-0.00000766,-0.00000250,0.00005676,-0.00001678,-0.00000
 223,-0.00000537,0.00000409,0.00000123,-0.00000405,0.00000514,0.0000108
 3,0.00002339,0.00000193,-0.00001403,0.00010672,0.00005706,0.00010273,-
 0.00017654,-0.00019090,-0.00007527,0.00000836,-0.00002225,-0.00013066,
 -0.00000497,-0.00000608,-0.00000272,-0.00000186,0.00000575,0.00000657,
 0.00000839,-0.00000288,-0.00000291,-0.00000303,0.00000023,0.00000674,0
 .00001140,-0.00000581,-0.00000177,-0.00001104,0.00000369,0.00000050,-0
 .00000669,-0.00000562,-0.00000301,0.00000476,-0.00000565,-0.00000310,0
 .00000633,0.00000681,-0.00000749,-0.00000441,-0.00000240,0.00000019,0.
 00000130,0.00000206,-0.00000063,0.00000358,-0.00000335,-0.00000032,-0.
 00000376,0.00000078,0.00000266,0.00000277,0.00000245,0.00000014,-0.000
 00485,-0.00000161,-0.00000518,0.00000621,0.00000661,0.00000567,0.00000
 699,-0.00000470,-0.00000165,-0.00000911,-0.00000445,0.00000203,-0.0000
 1812,-0.00000880,0.00000684,0.00001033,-0.00002341,-0.00004780,-0.0000
 3134,-0.00002771,-0.00001757,-0.00006407,-0.00032410,-0.00035255,0.000
 04629,-0.00005881,-0.00002044,-0.08175191,-0.01959308,-0.29207610,-0.0
 0624631,0.00014261,-0.01372335,-0.00169556,-0.00205280,-0.00772863,0.0
 8999412,0.02249779,0.31079749,0.00000115,-0.00003747,-0.00014274,-0.00
 004833,-0.00000528,-0.00001243,-0.00023527,-0.00011279,-0.00021753,0.0
 0000705,-0.00000065,0.00000396,0.00000677,0.00002866,-0.00000494,-0.00
 002488,-0.00003321,-0.00000608,-0.00000758,0.00002025,-0.00000028,-0.0
 0000162,-0.00001879,-0.00000145,0.00001215,-0.00000004,0.00000766,0.00
 004399,0.00004131,0.00024139,-0.00003909,-0.00000132,0.00000301,-0.000
 00116,0.00000181,-0.00000328,0.00007481,-0.00002289,-0.00011750,0.0000
 0447,0.00000368,-0.00000930,0.00003694,0.00000388,0.00002479,-0.000004
 23,0.00000729,-0.00000649,-0.00000408,-0.00000609,-0.00000074,-0.00000
 023,0.00000224,-0.00000083,-0.00000099,0.00000050,-0.00000183,-0.00000
 202,-0.00000163,-0.00000070,-0.00000170,-0.00000224,-0.00000018,-0.000
 00741,0.00000162,-0.00000295,0.00000879,-0.00000520,0.00000071,0.00000
 127,0.00001084,0.00001511,-0.00000085,0.00000082,0.00000208,-0.0000021
 8,0.00000559,0.00000477,0.00000493,0.00000363,0.00000182,0.00000099,0.
 00000131,-0.00000594,-0.00000121,-0.00000109,0.00000074,0.00000170,0.0
 0000067,-0.00000220,0.00090920,0.00050956,-0.00038786,-0.00068100,0.00
 385562,0.00066683,-0.01356864,-0.00721350,0.00561880,0.00067579,-0.000
 28786,-0.00097273,-0.32226686,-0.05102192,0.07057619,-0.00313357,0.002
 25720,0.00097556,0.00046049,-0.00038593,-0.00086779,0.00161117,-0.0010
 2761,0.00132360,-0.00056948,-0.00070693,0.00024488,-0.00020675,0.00024
 880,-0.00000165,-0.00002493,0.00001769,0.00006745,-0.00007083,-0.00004
 648,-0.00008246,-0.00022547,0.00025325,0.00003115,-0.00004471,-0.00014
 444,0.00002264,-0.00003642,-0.00004968,0.00008965,-0.00005072,-0.00002
 222,-0.00003811,-0.00000312,-0.00000065,-0.00000126,0.00000146,-0.0000
 0100,0.00000111,-0.00000269,-0.00000170,-0.00000182,-0.00000160,0.0000
 0116,0.00000068,0.00000226,0.00000017,0.00000659,-0.00000559,-0.000002
 06,-0.00000273,0.00000397,0.00000384,-0.00000068,0.00000679,-0.0000144
 8,0.00000155,0.00000868,0.00000308,-0.00001133,-0.00001312,-0.00000169
 ,-0.00000617,0.00000329,-0.00000346,0.00000468,-0.00000619,0.00000169,
 -0.00000171,-0.00000171,-0.00000265,-0.00000480,0.00001767,0.00000891,
 -0.00001202,-0.00001621,0.00003831,-0.00003912,-0.00000142,-0.00000091
 ,-0.00001127,0.00004690,0.00000019,-0.00000510,0.00000470,-0.00000543,
 0.00000924,-0.00000235,0.00005412,0.00002716,0.00000951,0.00000610,0.0
 0000085,0.00001106,-0.00002392,0.00001928,0.00000053,0.00001584,0.0000
 0033,0.00000317,-0.00000088,0.00000309,-0.00001823,-0.00003326,-0.0000
 3239,0.00001820,0.00000646,-0.00000932,-0.00000738,-0.00002290,0.00001
 900,-0.00002277,0.00002737,0.00001437,0.00000049,0.00000079,0.00000611
 ,-0.00000007,0.00000324,0.00000206,0.00000236,0.00000026,0.00000482,0.
 00000314,0.00000107,-0.00000010,0.00000078,-0.00000006,0.00000223,-0.0
 0000011,-0.00000006,0.00000272,-0.00000317,-0.00000047,-0.00000411,0.3
 3736131,0.00000037,0.00002261,-0.00003970,-0.00003135,0.00000074,-0.00
 001548,-0.00011403,0.00007908,-0.00033045,0.00000335,0.00000355,-0.000
 00139,-0.00000575,0.00000311,-0.00000258,0.00000749,-0.00000415,0.0000
 0747,-0.00001992,0.00000833,-0.00000905,0.00000826,-0.00001266,0.00000
 070,0.00000220,0.00000180,0.00000496,-0.00000598,-0.00000829,0.0000760
 5,-0.00000553,0.00000277,-0.00000177,0.00000129,-0.00000674,0.00000139
 ,0.00004752,0.00000744,-0.00002118,0.00000520,-0.00001296,-0.00000039,
 0.00000761,0.00000105,0.00000730,-0.00000265,-0.00000800,0.00000142,0.
 00000150,0.00000434,-0.00000197,-0.00000104,-0.00000010,-0.00000062,-0
 .00000070,-0.00000072,0.00000002,-0.00000006,0.00000296,-0.00000178,0.
 00000027,-0.00000020,0.00000039,-0.00000127,-0.00000422,0.00000121,-0.
 00000446,0.00000112,0.00000105,-0.00000049,-0.00000785,-0.00000736,0.0
 0000215,0.00000096,-0.00000005,0.00000508,-0.00000331,-0.00000068,0.00
 000219,0.00000063,0.00000187,0.00000142,-0.00000189,-0.00000273,0.0000
 0075,-0.00000147,-0.00000066,-0.00000049,0.00000121,-0.00000038,0.0005
 2021,-0.00135245,0.00020629,0.00326388,-0.00249853,0.00174937,0.021954
 74,0.00805300,-0.00523162,-0.00081614,0.00067838,-0.00116071,-0.051048
 76,-0.06584731,0.01735358,-0.02679624,-0.00006130,0.00669974,0.0001230
 1,0.00077508,-0.00144961,-0.00066358,-0.00413273,0.00306752,0.00081047
 ,0.00059823,-0.00022490,0.00022562,-0.00022480,-0.00002922,-0.00003271
 ,0.00010413,-0.00006556,-0.00000415,0.00003666,0.00003209,-0.00103854,
 0.00037046,0.00024139,-0.00015296,-0.00033967,0.00008642,-0.00003289,-
 0.00001977,0.00010796,-0.00005243,0.00007403,-0.00005201,-0.00000015,0
 .00000057,-0.00000027,0.00000074,0.00000138,-0.00000068,-0.00000080,-0
 .00000088,-0.00000080,-0.00000106,0.00000003,0.00000086,0.00000342,-0.
 00000432,0.00000606,-0.00000450,-0.00000035,-0.00000129,0.00000253,0.0
 0000782,-0.00000211,-0.00000305,0.00000967,-0.00000181,-0.00000438,-0.
 00000465,0.00000384,0.00000538,0.00000184,0.00000314,-0.00000064,0.000
 00216,-0.00000179,0.00000132,-0.00000071,0.00000077,0.00000028,0.00000
 009,0.00000161,-0.00004628,-0.00002568,0.00002281,-0.00000166,-0.00002
 266,0.00001333,-0.00000317,-0.00000435,0.00001181,-0.00001992,-0.00002
 204,-0.00001538,-0.00000088,-0.00000637,-0.00001110,-0.00000504,-0.000
 02083,-0.00001358,0.00005005,-0.00001764,-0.00002834,0.00002590,-0.000
 02586,0.00002066,0.00000614,0.00001418,0.00002184,0.00000685,-0.000010
 30,-0.00000086,-0.00000887,-0.00004372,-0.00004485,0.00002043,-0.00000
 453,-0.00003625,-0.00001174,-0.00001100,0.00001142,0.00000031,0.000014
 35,-0.00000364,0.00000142,0.00000066,-0.00000141,0.00000029,0.00000038
 ,0.00000014,0.00000075,0.00000244,0.00000509,0.00000152,-0.00000158,-0
 .00000023,0.00000094,-0.00000022,0.00000042,-0.00000025,0.00000136,0.0
 0000130,-0.00000037,0.00000081,-0.00000095,0.05382202,0.06388746,0.000
 00448,-0.00001833,-0.00006254,-0.00003365,0.00000825,-0.00002648,-0.00
 005741,-0.00030991,-0.00105898,0.00000877,0.00000230,0.00000187,-0.000
 00008,0.00001910,-0.00000226,-0.00001930,-0.00002586,0.00000659,-0.000
 01313,0.00001738,0.00000637,0.00000064,-0.00001262,0.00000334,0.000001
 03,-0.00000399,-0.00000103,-0.00012832,-0.00002870,0.00009791,0.000023
 73,-0.00001150,-0.00003677,0.00000853,0.00000079,0.00000422,0.00011107
 ,0.00002233,0.00003141,0.00000463,0.00000827,0.00000833,-0.00001026,0.
 00000961,0.00000417,-0.00000014,-0.00000014,-0.00000191,0.00000024,-0.
 00000124,-0.00000300,-0.00000075,0.00000003,0.00000082,-0.00000073,0.0
 0000057,-0.00000171,0.00000153,-0.00000238,-0.00000055,-0.00000024,0.0
 0000084,0.00000057,0.00000152,-0.00000011,-0.00000256,0.00000035,-0.00
 000081,0.00000230,0.00000052,0.00000461,0.00000335,0.00000086,0.000001
 10,0.00000051,0.00000117,0.00000090,0.00000063,-0.00000209,0.00000105,
 0.00000259,-0.00000116,-0.00000074,0.00000036,-0.00000001,0.00000002,0
 .00000005,0.00000037,-0.00000174,0.00000020,-0.00044358,0.00016548,-0.
 00019167,0.00056601,0.00156159,0.00647293,-0.00200445,0.00056020,0.005
 22969,-0.00079634,-0.00123950,-0.00389753,0.07040198,0.01708449,-0.059
 01826,0.00909418,0.00126381,0.00278463,-0.00098369,-0.00143287,-0.0038
 0118,0.00103797,0.00357325,0.00574453,-0.00011172,-0.00002993,0.000093
 77,-0.00001118,0.00000337,-0.00006303,-0.00000386,0.00011722,-0.000065
 43,0.00002819,-0.00013332,-0.00003833,0.00040330,-0.00034169,0.0000060
 5,0.00003099,0.00005197,-0.00007574,-0.00002747,-0.00003361,-0.0000448
 1,0.00002503,0.00007343,-0.00000996,0.00000017,0.00000033,0.00000113,-
 0.00000102,0.00000057,0.00000012,0.00000023,0.00000035,0.00000039,0.00
 000199,-0.00000057,-0.00000086,-0.00000130,0.00000101,-0.00000027,0.00
 000118,-0.00000080,0.00000082,-0.00000173,-0.00000264,0.00000012,0.000
 00011,-0.00000199,0.00000079,-0.00000068,0.00000215,-0.00000152,0.0000
 0119,-0.00000102,-0.00000031,-0.00000104,0.00000041,0.00000101,0.00000
 226,-0.00000115,-0.00000076,-0.00000232,-0.00000030,-0.00000262,-0.000
 05438,0.00000607,-0.00000379,-0.00000284,-0.00001266,-0.00000221,-0.00
 000982,0.00000641,-0.00001186,0.00004766,-0.00001222,-0.00000207,0.000
 01632,0.00000453,-0.00000928,-0.00000005,0.00000479,-0.00002994,-0.000
 01543,-0.00000728,0.00000617,-0.00000390,0.00001101,-0.00000262,-0.000
 01779,0.00001452,-0.00002191,-0.00000897,0.00000203,-0.00000552,-0.000
 01302,0.00003475,0.00000308,-0.00001726,-0.00001527,0.00001675,-0.0000
 0229,-0.00002490,-0.00000284,-0.00001730,0.00002284,-0.00000992,-0.000
 00027,-0.00000120,0.00000151,0.00000433,0.00000109,0.00000172,-0.00000
 004,0.00000057,-0.00000172,0.00000242,-0.00000214,0.00000115,0.0000017
 8,0.00000088,-0.00000008,-0.00000066,0.00000126,-0.00000045,0.00000172
 ,0.00000170,0.00000160,-0.07701674,-0.02095609,0.04797071\\0.00001219,
 0.00002360,0.00001010,0.00000987,-0.00000853,-0.00000051,0.00001032,0.
 00000895,-0.00001089,-0.00000112,-0.00000248,0.,-0.00000076,-0.0000023
 9,-0.00000397,0.00000150,-0.00001000,-0.00000235,-0.00000130,0.0000009
 7,-0.00000791,-0.00000048,-0.00000229,0.00000053,-0.00000176,0.0000033
 0,-0.00000051,-0.00002607,-0.00000815,0.00000587,0.00000580,0.00000583
 ,0.00000592,0.00000015,0.00000036,-0.00000027,-0.00000382,-0.00000156,
 0.00000195,0.00000136,-0.00000067,0.00000036,0.00000206,0.00000240,-0.
 00000312,0.00000501,-0.00000082,0.00000259,-0.00000402,-0.00000282,-0.
 00000044,-0.00000055,-0.00000086,0.00000138,0.00000010,0.00000406,-0.0
 0000100,0.00000298,-0.00000261,0.00000430,-0.00000016,0.00000140,0.000
 00037,-0.00000873,-0.00000228,-0.00000099,-0.00000321,-0.00000131,0.00
 000285,0.00000108,-0.00000148,-0.00000102,-0.00000018,0.00000054,0.000
 00075,0.00000054,-0.00000084,-0.00000090,0.00000309,0.00000167,-0.0000
 0039,-0.00000120,-0.00000050,0.00000094,0.00000172,0.00000018,0.000002
 19,0.00000032,-0.00000262,0.00000041,-0.00000888,-0.00000713,0.0000067
 7,0.00001228,0.00001101,-0.00000564,-0.00000919,0.00000057,-0.00000140
 ,-0.00000009,0.00000038,-0.00000159,0.00000154,-0.00000610,0.00000078,
 0.00000596,0.00000367,-0.00000056,-0.00000006,0.00000077,-0.00000129,-
 0.00000541,0.00000223,-0.00000301,-0.00000380,-0.00000974,0.00000244,0
 .00000096,-0.00000059,-0.00000137,-0.00000037,-0.00000064,0.00000087,0
 .00000153,0.00000135,-0.00000020,0.00000512,-0.00000135,0.00000509,0.0
 0000082,-0.00000053,0.00000062,-0.00000167,-0.00000164,-0.00000491,-0.
 00000137,0.00000030,-0.00000326,-0.00000019,-0.00000065,0.00000108,0.0
 0000131,-0.00000051,0.00000072,0.00000147,-0.00000005,0.00000151,0.000
 00086,-0.00000088,0.00000129,-0.00000018,-0.00000037,-0.00000184,-0.00
 000069,-0.00000014,0.00000016,0.00000021,0.00000029,-0.00000006,-0.000
 00031,-0.00000036,-0.00000043,0.00000026,0.00000006,0.00000163,-0.0000
 0005,-0.00000009,0.00000081,-0.00000057,0.00000032,0.00000022,-0.00000
 075,-0.00000021,0.00000093,-0.00000032,0.00000009,-0.00000038,0.000000
 05,0.00000118,-0.00000090,-0.00000015,0.00000010,-0.00000032,-0.000001
 05,0.00000185,-0.00000068,-0.00000009,-0.00000040,-0.00000126,-0.00000
 006,-0.00000039,-0.00000005,0.00000017,0.00000034,0.00000055,0.0000003
 2,0.00000009,-0.00000084,0.00000075,0.00000046,-0.00000090,0.00000117,
 0.,-0.00000078,0.00000183,0.00000108,-0.00000289,0.00000065,-0.0000001
 1,0.00000021,0.00000038,0.00000096,-0.00000053,-0.00000063,-0.00000032
 ,0.00000143,-0.00000110,0.00000096,-0.00000049,-0.00000283,0.00000011,
 0.00000209,-0.00000123,0.00000130,0.00000066,0.00000016,0.00000038,-0.
 00000120,0.00000016,-0.00000018,0.00000004,-0.00000102,0.00000110,0.00
 000023,-0.00000014,0.00000030,0.00000168,-0.00000053,-0.00000090,0.000
 00024,0.,0.00000099,-0.00000147\\\@
 The archive entry for this job was punched.


 THE DIFFERENCE BETWEEN A NOOSE AND A HALO IS ONLY 12 INCHES.
 Job cpu time:       1 days 15 hours 52 minutes 43.7 seconds.
 Elapsed time:       0 days  0 hours 38 minutes 55.9 seconds.
 File lengths (MBytes):  RWF=   4661 Int=      0 D2E=      0 Chk=     51 Scr=      2
 Normal termination of Gaussian 16 at Sat Jan 10 07:39:34 2026.
